 running on  128 total cores
 distrk:  each k-point on  128 cores,    1 groups
 distr:  one band on    8 cores,   16 groups
 using from now: INCAR     
 vasp.5.4.4.18Apr17-6-g9f103f2a35 (build Dec  7 2020 12:43:57) complex           
 POSCAR found type information on POSCAR  Mo V  B 
 POSCAR found :  3 types and      72 ions
 scaLAPACK will be used

 ----------------------------------------------------------------------------- 
|                                                                             |
|  ADVICE TO THIS USER RUNNING 'VASP/VAMP'   (HEAR YOUR MASTER'S VOICE ...):  |
|                                                                             |
|      You enforced a specific xc-type in the INCAR file,                     |
|      a different type was found on the POTCAR file                          |
|          I HOPE YOU KNOW, WHAT YOU ARE  DOING                               |
|                                                                             |
 ----------------------------------------------------------------------------- 

 LDA part: xc-table for Pade appr. of Perdew
 WARNING: stress and forces are not correct
 POSCAR, INCAR and KPOINTS ok, starting setup
 resort distribution
 resort distribution
 resort distribution
 resort distribution
 resort distribution
 resort distribution
 resort distribution
 resort distribution
 resort distribution
 resort distribution
 resort distribution
 resort distribution
 resort distribution
 resort distribution
 resort distribution
 resort distribution
 resort distribution
 resort distribution
 resort distribution
 resort distribution
 resort distribution
 resort distribution
 resort distribution
 resort distribution
 resort distribution
 resort distribution
 resort distribution
 resort distribution
 resort distribution
 resort distribution
 resort distribution
 resort distribution
 resort distribution
 resort distribution
 resort distribution
 resort distribution
 resort distribution
 resort distribution
 resort distribution
 resort distribution
 resort distribution
 resort distribution
 resort distribution
 resort distribution
 resort distribution
 resort distribution
 resort distribution
 resort distribution
 resort distribution
 resort distribution
 resort distribution
 resort distribution
 resort distribution
 resort distribution
 resort distribution
 resort distribution
 resort distribution
 resort distribution
 resort distribution
 resort distribution
 resort distribution
 resort distribution
 resort distribution
 resort distribution
 resort distribution
 resort distribution
 resort distribution
 resort distribution
 resort distribution
 resort distribution
 resort distribution
 resort distribution
 resort distribution
 resort distribution
 resort distribution
 resort distribution
 resort distribution
 resort distribution
 resort distribution
 resort distribution
 resort distribution
 resort distribution
 resort distribution
 resort distribution
 resort distribution
 resort distribution
 resort distribution
 resort distribution
 resort distribution
 resort distribution
 resort distribution
 resort distribution
 resort distribution
 resort distribution
 resort distribution
 resort distribution
 resort distribution
 resort distribution
 resort distribution
 resort distribution
 resort distribution
 resort distribution
 resort distribution
 resort distribution
 resort distribution
 resort distribution
 resort distribution
 resort distribution
 resort distribution
 resort distribution
 resort distribution
 resort distribution
 resort distribution
 resort distribution
 resort distribution
 resort distribution
 resort distribution
 resort distribution
 resort distribution
 resort distribution
 resort distribution
 resort distribution
 resort distribution
 resort distribution
 resort distribution
 resort distribution
 resort distribution
 resort distribution
 FFT: planning ...
 WAVECAR not read
 augmentation electrons   276.02611492408460     
 augmentation electrons   276.02611492408460     
 soft         electrons   0.0000000000000000     
 augmentation electrons   276.02611492408460     
 soft         electrons   0.0000000000000000     
 augmentation electrons   276.02611492408460     
 soft         electrons   0.0000000000000000     
 augmentation electrons   276.02611492408460     
 soft         electrons   0.0000000000000000     
 augmentation electrons   276.02611492408460     
 soft         electrons   0.0000000000000000     
 augmentation electrons   276.02611492408460     
 soft         electrons   0.0000000000000000     
 augmentation electrons   276.02611492408460     
 soft         electrons   0.0000000000000000     
 augmentation electrons   276.02611492408460     
 soft         electrons   0.0000000000000000     
 augmentation electrons   276.02611492408460     
 soft         electrons   0.0000000000000000     
 augmentation electrons   276.02611492408460     
 soft         electrons   0.0000000000000000     
 augmentation electrons   276.02611492408460     
 soft         electrons   0.0000000000000000     
 augmentation electrons   276.02611492408460     
 soft         electrons   0.0000000000000000     
 augmentation electrons   276.02611492408460     
 soft         electrons   0.0000000000000000     
 augmentation electrons   276.02611492408460     
 soft         electrons   0.0000000000000000     
 augmentation electrons   276.02611492408460     
 soft         electrons   0.0000000000000000     
 augmentation electrons   276.02611492408460     
 augmentation electrons   276.02611492408460     
 soft         electrons   0.0000000000000000     
 augmentation electrons   276.02611492408460     
 soft         electrons   0.0000000000000000     
 augmentation electrons   276.02611492408460     
 soft         electrons   0.0000000000000000     
 augmentation electrons   276.02611492408460     
 soft         electrons   0.0000000000000000     
 augmentation electrons   276.02611492408460     
 soft         electrons   0.0000000000000000     
 augmentation electrons   276.02611492408460     
 soft         electrons   0.0000000000000000     
 augmentation electrons   276.02611492408460     
 soft         electrons   0.0000000000000000     
 augmentation electrons   276.02611492408460     
 soft         electrons   0.0000000000000000     
 augmentation electrons   276.02611492408460     
 soft         electrons   0.0000000000000000     
 augmentation electrons   276.02611492408460     
 soft         electrons   0.0000000000000000     
 augmentation electrons   276.02611492408460     
 soft         electrons   0.0000000000000000     
 augmentation electrons   276.02611492408460     
 soft         electrons   0.0000000000000000     
 augmentation electrons   276.02611492408460     
 soft         electrons   0.0000000000000000     
 soft         electrons   0.0000000000000000     
 augmentation electrons   276.02611492408460     
 soft         electrons   0.0000000000000000     
 augmentation electrons   276.02611492408460     
 soft         electrons   0.0000000000000000     
 augmentation electrons   276.02611492408460     
 soft         electrons   0.0000000000000000     
 augmentation electrons   276.02611492408460     
 soft         electrons   0.0000000000000000     
 augmentation electrons   276.02611492408460     
 soft         electrons   0.0000000000000000     
 augmentation electrons   276.02611492408460     
 soft         electrons   0.0000000000000000     
 augmentation electrons   276.02611492408460     
 soft         electrons   0.0000000000000000     
 augmentation electrons   276.02611492408460     
 soft         electrons   0.0000000000000000     
 augmentation electrons   276.02611492408460     
 soft         electrons   0.0000000000000000     
 augmentation electrons   276.02611492408460     
 soft         electrons   0.0000000000000000     
 augmentation electrons   276.02611492408460     
 soft         electrons   0.0000000000000000     
 augmentation electrons   276.02611492408460     
 soft         electrons   0.0000000000000000     
 augmentation electrons   276.02611492408460     
 soft         electrons   0.0000000000000000     
 augmentation electrons   276.02611492408460     
 soft         electrons   0.0000000000000000     
 augmentation electrons   276.02611492408460     
 soft         electrons   0.0000000000000000     
 augmentation electrons   276.02611492408460     
 soft         electrons   0.0000000000000000     
 augmentation electrons   276.02611492408460     
 soft         electrons   0.0000000000000000     
 augmentation electrons   276.02611492408460     
 soft         electrons   0.0000000000000000     
 augmentation electrons   276.02611492408460     
 soft         electrons   0.0000000000000000     
 augmentation electrons   276.02611492408460     
 soft         electrons   0.0000000000000000     
 augmentation electrons   276.02611492408460     
 soft         electrons   0.0000000000000000     
 augmentation electrons   276.02611492408460     
 soft         electrons   0.0000000000000000     
 augmentation electrons   276.02611492408460     
 soft         electrons   0.0000000000000000     
 augmentation electrons   276.02611492408460     
 soft         electrons   0.0000000000000000     
 augmentation electrons   276.02611492408460     
 soft         electrons   0.0000000000000000     
 augmentation electrons   276.02611492408460     
 soft         electrons   0.0000000000000000     
 augmentation electrons   276.02611492408460     
 soft         electrons   0.0000000000000000     
 augmentation electrons   276.02611492408460     
 soft         electrons   0.0000000000000000     
 augmentation electrons   276.02611492408460     
 soft         electrons   0.0000000000000000     
 augmentation electrons   276.02611492408460     
 soft         electrons   0.0000000000000000     
 augmentation electrons   276.02611492408460     
 soft         electrons   0.0000000000000000     
 augmentation electrons   276.02611492408460     
 soft         electrons   0.0000000000000000     
 augmentation electrons   276.02611492408460     
 soft         electrons   0.0000000000000000     
 augmentation electrons   276.02611492408460     
 soft         electrons   0.0000000000000000     
 augmentation electrons   276.02611492408460     
 soft         electrons   0.0000000000000000     
 augmentation electrons   276.02611492408460     
 soft         electrons   0.0000000000000000     
 augmentation electrons   276.02611492408460     
 soft         electrons   0.0000000000000000     
 augmentation electrons   276.02611492408460     
 soft         electrons   0.0000000000000000     
 augmentation electrons   276.02611492408460     
 soft         electrons   0.0000000000000000     
 augmentation electrons   276.02611492408460     
 soft         electrons   0.0000000000000000     
 augmentation electrons   276.02611492408460     
 soft         electrons   0.0000000000000000     
 augmentation electrons   276.02611492408460     
 soft         electrons   0.0000000000000000     
 augmentation electrons   276.02611492408460     
 soft         electrons   0.0000000000000000     
 augmentation electrons   276.02611492408460     
 soft         electrons   0.0000000000000000     
 augmentation electrons   276.02611492408460     
 soft         electrons   0.0000000000000000     
 augmentation electrons   276.02611492408460     
 soft         electrons   0.0000000000000000     
 augmentation electrons   276.02611492408460     
 soft         electrons   0.0000000000000000     
 augmentation electrons   276.02611492408460     
 soft         electrons   0.0000000000000000     
 augmentation electrons   276.02611492408460     
 soft         electrons   0.0000000000000000     
 augmentation electrons   276.02611492408460     
 soft         electrons   0.0000000000000000     
 augmentation electrons   276.02611492408460     
 soft         electrons   0.0000000000000000     
 augmentation electrons   276.02611492408460     
 soft         electrons   0.0000000000000000     
 augmentation electrons   276.02611492408460     
 soft         electrons   0.0000000000000000     
 augmentation electrons   276.02611492408460     
 soft         electrons   0.0000000000000000     
 augmentation electrons   276.02611492408460     
 soft         electrons   0.0000000000000000     
 augmentation electrons   276.02611492408460     
 soft         electrons   0.0000000000000000     
 augmentation electrons   276.02611492408460     
 soft         electrons   0.0000000000000000     
 augmentation electrons   276.02611492408460     
 soft         electrons   0.0000000000000000     
 augmentation electrons   276.02611492408460     
 soft         electrons   0.0000000000000000     
 augmentation electrons   276.02611492408460     
 soft         electrons   0.0000000000000000     
 augmentation electrons   276.02611492408460     
 soft         electrons   0.0000000000000000     
 augmentation electrons   276.02611492408460     
 soft         electrons   0.0000000000000000     
 augmentation electrons   276.02611492408460     
 soft         electrons   0.0000000000000000     
 augmentation electrons   276.02611492408460     
 soft         electrons   0.0000000000000000     
 augmentation electrons   276.02611492408460     
 soft         electrons   0.0000000000000000     
 augmentation electrons   276.02611492408460     
 soft         electrons   0.0000000000000000     
 augmentation electrons   276.02611492408460     
 soft         electrons   0.0000000000000000     
 augmentation electrons   276.02611492408460     
 soft         electrons   0.0000000000000000     
 augmentation electrons   276.02611492408460     
 soft         electrons   0.0000000000000000     
 augmentation electrons   276.02611492408460     
 soft         electrons   0.0000000000000000     
 augmentation electrons   276.02611492408460     
 soft         electrons   0.0000000000000000     
 augmentation electrons   276.02611492408460     
 soft         electrons   0.0000000000000000     
 augmentation electrons   276.02611492408460     
 soft         electrons   0.0000000000000000     
 augmentation electrons   276.02611492408460     
 soft         electrons   0.0000000000000000     
 augmentation electrons   276.02611492408460     
 soft         electrons   0.0000000000000000     
 augmentation electrons   276.02611492408460     
 soft         electrons   0.0000000000000000     
 augmentation electrons   276.02611492408460     
 soft         electrons   0.0000000000000000     
 augmentation electrons   276.02611492408460     
 soft         electrons   0.0000000000000000     
 augmentation electrons   276.02611492408460     
 soft         electrons   0.0000000000000000     
 augmentation electrons   276.02611492408460     
 soft         electrons   0.0000000000000000     
 augmentation electrons   276.02611492408460     
 soft         electrons   0.0000000000000000     
 augmentation electrons   276.02611492408460     
 soft         electrons   0.0000000000000000     
 augmentation electrons   276.02611492408460     
 soft         electrons   0.0000000000000000     
 augmentation electrons   276.02611492408460     
 soft         electrons   0.0000000000000000     
 augmentation electrons   276.02611492408460     
 soft         electrons   0.0000000000000000     
 augmentation electrons   276.02611492408460     
 soft         electrons   0.0000000000000000     
 augmentation electrons   276.02611492408460     
 soft         electrons   0.0000000000000000     
 augmentation electrons   276.02611492408460     
 soft         electrons   0.0000000000000000     
 augmentation electrons   276.02611492408460     
 soft         electrons   0.0000000000000000     
 augmentation electrons   276.02611492408460     
 soft         electrons   0.0000000000000000     
 augmentation electrons   276.02611492408460     
 soft         electrons   0.0000000000000000     
 augmentation electrons   276.02611492408460     
 soft         electrons   0.0000000000000000     
 augmentation electrons   276.02611492408460     
 soft         electrons   0.0000000000000000     
 augmentation electrons   276.02611492408460     
 soft         electrons   0.0000000000000000     
 augmentation electrons   276.02611492408460     
 soft         electrons   0.0000000000000000     
 augmentation electrons   276.02611492408460     
 soft         electrons   0.0000000000000000     
 augmentation electrons   276.02611492408460     
 soft         electrons   0.0000000000000000     
 soft         electrons   0.0000000000000000     
 augmentation electrons   276.02611492408460     
 soft         electrons   0.0000000000000000     
 total        electrons   276.02611492408460     
 total        electrons   276.02611492408460     
 total        electrons   276.02611492408460     
 total        electrons   276.02611492408460     
 total        electrons   276.02611492408460     
 total        electrons   276.02611492408460     
 total        electrons   276.02611492408460     
 total        electrons   276.02611492408460     
 total        electrons   276.02611492408460     
 total        electrons   276.02611492408460     
 total        electrons   276.02611492408460     
 total        electrons   276.02611492408460     
 total        electrons   276.02611492408460     
 total        electrons   276.02611492408460     
 total        electrons   276.02611492408460     
 total        electrons   276.02611492408460     
 total        electrons   276.02611492408460     
 total        electrons   276.02611492408460     
 total        electrons   276.02611492408460     
 total        electrons   276.02611492408460     
 total        electrons   276.02611492408460     
 total        electrons   276.02611492408460     
 total        electrons   276.02611492408460     
 total        electrons   276.02611492408460     
 total        electrons   276.02611492408460     
 total        electrons   276.02611492408460     
 total        electrons   276.02611492408460     
 total        electrons   276.02611492408460     
 total        electrons   276.02611492408460     
 total        electrons   276.02611492408460     
 total        electrons   276.02611492408460     
 total        electrons   276.02611492408460     
 total        electrons   276.02611492408460     
 total        electrons   276.02611492408460     
 total        electrons   276.02611492408460     
 total        electrons   276.02611492408460     
 total        electrons   276.02611492408460     
 total        electrons   276.02611492408460     
 total        electrons   276.02611492408460     
 total        electrons   276.02611492408460     
 total        electrons   276.02611492408460     
 total        electrons   276.02611492408460     
 total        electrons   276.02611492408460     
 total        electrons   276.02611492408460     
 total        electrons   276.02611492408460     
 total        electrons   276.02611492408460     
 total        electrons   276.02611492408460     
 total        electrons   276.02611492408460     
 total        electrons   276.02611492408460     
 total        electrons   276.02611492408460     
 total        electrons   276.02611492408460     
 total        electrons   276.02611492408460     
 total        electrons   276.02611492408460     
 total        electrons   276.02611492408460     
 total        electrons   276.02611492408460     
 total        electrons   276.02611492408460     
 total        electrons   276.02611492408460     
 total        electrons   276.02611492408460     
 total        electrons   276.02611492408460     
 total        electrons   276.02611492408460     
 total        electrons   276.02611492408460     
 total        electrons   276.02611492408460     
 total        electrons   276.02611492408460     
 total        electrons   276.02611492408460     
 total        electrons   276.02611492408460     
 total        electrons   276.02611492408460     
 total        electrons   276.02611492408460     
 total        electrons   276.02611492408460     
 total        electrons   276.02611492408460     
 total        electrons   276.02611492408460     
 total        electrons   276.02611492408460     
 total        electrons   276.02611492408460     
 total        electrons   276.02611492408460     
 total        electrons   276.02611492408460     
 total        electrons   276.02611492408460     
 total        electrons   276.02611492408460     
 total        electrons   276.02611492408460     
 total        electrons   276.02611492408460     
 total        electrons   276.02611492408460     
 total        electrons   276.02611492408460     
 total        electrons   276.02611492408460     
 total        electrons   276.02611492408460     
 total        electrons   276.02611492408460     
 total        electrons   276.02611492408460     
 total        electrons   276.02611492408460     
 total        electrons   276.02611492408460     
 total        electrons   276.02611492408460     
 total        electrons   276.02611492408460     
 total        electrons   276.02611492408460     
 total        electrons   276.02611492408460     
 total        electrons   276.02611492408460     
 total        electrons   276.02611492408460     
 total        electrons   276.02611492408460     
 total        electrons   276.02611492408460     
 total        electrons   276.02611492408460     
 total        electrons   276.02611492408460     
 total        electrons   276.02611492408460     
 total        electrons   276.02611492408460     
 total        electrons   276.02611492408460     
 total        electrons   276.02611492408460     
 total        electrons   276.02611492408460     
 total        electrons   276.02611492408460     
 total        electrons   276.02611492408460     
 total        electrons   276.02611492408460     
 total        electrons   276.02611492408460     
 total        electrons   276.02611492408460     
 total        electrons   276.02611492408460     
 total        electrons   276.02611492408460     
 total        electrons   276.02611492408460     
 total        electrons   276.02611492408460     
 total        electrons   276.02611492408460     
 total        electrons   276.02611492408460     
 total        electrons   276.02611492408460     
 total        electrons   276.02611492408460     
 total        electrons   276.02611492408460     
 total        electrons   276.02611492408460     
 total        electrons   276.02611492408460     
 total        electrons   276.02611492408460     
 total        electrons   276.02611492408460     
 total        electrons   276.02611492408460     
 total        electrons   276.02611492408460     
 total        electrons   276.02611492408460     
 total        electrons   276.02611492408460     
 total        electrons   276.02611492408460     
 total        electrons   276.02611492408460     
 total        electrons   276.02611492408460     
 total        electrons   276.02611492408460     
 total        electrons   276.02611492408460     
 augmentation electrons   864.17339141328512     
 soft         electrons   0.0000000000000000     
 augmentation electrons   864.17339141328512     
 soft         electrons   0.0000000000000000     
 augmentation electrons   864.17339141328512     
 soft         electrons   0.0000000000000000     
 augmentation electrons   864.17339141328512     
 soft         electrons   0.0000000000000000     
 augmentation electrons   864.17339141328512     
 soft         electrons   0.0000000000000000     
 augmentation electrons   864.17339141328512     
 soft         electrons   0.0000000000000000     
 augmentation electrons   864.17339141328512     
 soft         electrons   0.0000000000000000     
 augmentation electrons   864.17339141328512     
 soft         electrons   0.0000000000000000     
 augmentation electrons   864.17339141328512     
 soft         electrons   0.0000000000000000     
 augmentation electrons   864.17339141328512     
 soft         electrons   0.0000000000000000     
 augmentation electrons   864.17339141328512     
 soft         electrons   0.0000000000000000     
 augmentation electrons   864.17339141328512     
 soft         electrons   0.0000000000000000     
 augmentation electrons   864.17339141328512     
 soft         electrons   0.0000000000000000     
 augmentation electrons   864.17339141328512     
 soft         electrons   0.0000000000000000     
 augmentation electrons   864.17339141328512     
 soft         electrons   0.0000000000000000     
 augmentation electrons   864.17339141328512     
 soft         electrons   0.0000000000000000     
 augmentation electrons   864.17339141328512     
 soft         electrons   0.0000000000000000     
 augmentation electrons   864.17339141328512     
 soft         electrons   0.0000000000000000     
 augmentation electrons   864.17339141328512     
 soft         electrons   0.0000000000000000     
 augmentation electrons   864.17339141328512     
 soft         electrons   0.0000000000000000     
 augmentation electrons   864.17339141328512     
 soft         electrons   0.0000000000000000     
 augmentation electrons   864.17339141328512     
 soft         electrons   0.0000000000000000     
 augmentation electrons   864.17339141328512     
 soft         electrons   0.0000000000000000     
 augmentation electrons   864.17339141328512     
 soft         electrons   0.0000000000000000     
 augmentation electrons   864.17339141328512     
 soft         electrons   0.0000000000000000     
 augmentation electrons   864.17339141328512     
 soft         electrons   0.0000000000000000     
 augmentation electrons   864.17339141328512     
 soft         electrons   0.0000000000000000     
 augmentation electrons   864.17339141328512     
 soft         electrons   0.0000000000000000     
 augmentation electrons   864.17339141328512     
 soft         electrons   0.0000000000000000     
 augmentation electrons   864.17339141328512     
 soft         electrons   0.0000000000000000     
 augmentation electrons   864.17339141328512     
 soft         electrons   0.0000000000000000     
 augmentation electrons   864.17339141328512     
 augmentation electrons   864.17339141328512     
 soft         electrons   0.0000000000000000     
 augmentation electrons   864.17339141328512     
 soft         electrons   0.0000000000000000     
 augmentation electrons   864.17339141328512     
 soft         electrons   0.0000000000000000     
 augmentation electrons   864.17339141328512     
 soft         electrons   0.0000000000000000     
 augmentation electrons   864.17339141328512     
 soft         electrons   0.0000000000000000     
 augmentation electrons   864.17339141328512     
 soft         electrons   0.0000000000000000     
 augmentation electrons   864.17339141328512     
 soft         electrons   0.0000000000000000     
 augmentation electrons   864.17339141328512     
 soft         electrons   0.0000000000000000     
 augmentation electrons   864.17339141328512     
 soft         electrons   0.0000000000000000     
 augmentation electrons   864.17339141328512     
 soft         electrons   0.0000000000000000     
 augmentation electrons   864.17339141328512     
 soft         electrons   0.0000000000000000     
 augmentation electrons   864.17339141328512     
 soft         electrons   0.0000000000000000     
 augmentation electrons   864.17339141328512     
 soft         electrons   0.0000000000000000     
 augmentation electrons   864.17339141328512     
 soft         electrons   0.0000000000000000     
 augmentation electrons   864.17339141328512     
 soft         electrons   0.0000000000000000     
 augmentation electrons   864.17339141328512     
 soft         electrons   0.0000000000000000     
 augmentation electrons   864.17339141328512     
 soft         electrons   0.0000000000000000     
 augmentation electrons   864.17339141328512     
 soft         electrons   0.0000000000000000     
 augmentation electrons   864.17339141328512     
 soft         electrons   0.0000000000000000     
 augmentation electrons   864.17339141328512     
 soft         electrons   0.0000000000000000     
 augmentation electrons   864.17339141328512     
 soft         electrons   0.0000000000000000     
 augmentation electrons   864.17339141328512     
 soft         electrons   0.0000000000000000     
 augmentation electrons   864.17339141328512     
 soft         electrons   0.0000000000000000     
 augmentation electrons   864.17339141328512     
 soft         electrons   0.0000000000000000     
 augmentation electrons   864.17339141328512     
 soft         electrons   0.0000000000000000     
 augmentation electrons   864.17339141328512     
 soft         electrons   0.0000000000000000     
 augmentation electrons   864.17339141328512     
 soft         electrons   0.0000000000000000     
 augmentation electrons   864.17339141328512     
 soft         electrons   0.0000000000000000     
 augmentation electrons   864.17339141328512     
 soft         electrons   0.0000000000000000     
 augmentation electrons   864.17339141328512     
 soft         electrons   0.0000000000000000     
 augmentation electrons   864.17339141328512     
 soft         electrons   0.0000000000000000     
 augmentation electrons   864.17339141328512     
 soft         electrons   0.0000000000000000     
 augmentation electrons   864.17339141328512     
 soft         electrons   0.0000000000000000     
 augmentation electrons   864.17339141328512     
 soft         electrons   0.0000000000000000     
 augmentation electrons   864.17339141328512     
 soft         electrons   0.0000000000000000     
 augmentation electrons   864.17339141328512     
 soft         electrons   0.0000000000000000     
 augmentation electrons   864.17339141328512     
 soft         electrons   0.0000000000000000     
 augmentation electrons   864.17339141328512     
 soft         electrons   0.0000000000000000     
 augmentation electrons   864.17339141328512     
 soft         electrons   0.0000000000000000     
 augmentation electrons   864.17339141328512     
 soft         electrons   0.0000000000000000     
 augmentation electrons   864.17339141328512     
 soft         electrons   0.0000000000000000     
 augmentation electrons   864.17339141328512     
 soft         electrons   0.0000000000000000     
 augmentation electrons   864.17339141328512     
 soft         electrons   0.0000000000000000     
 augmentation electrons   864.17339141328512     
 soft         electrons   0.0000000000000000     
 augmentation electrons   864.17339141328512     
 soft         electrons   0.0000000000000000     
 augmentation electrons   864.17339141328512     
 soft         electrons   0.0000000000000000     
 augmentation electrons   864.17339141328512     
 soft         electrons   0.0000000000000000     
 augmentation electrons   864.17339141328512     
 soft         electrons   0.0000000000000000     
 augmentation electrons   864.17339141328512     
 soft         electrons   0.0000000000000000     
 augmentation electrons   864.17339141328512     
 soft         electrons   0.0000000000000000     
 augmentation electrons   864.17339141328512     
 soft         electrons   0.0000000000000000     
 augmentation electrons   864.17339141328512     
 soft         electrons   0.0000000000000000     
 augmentation electrons   864.17339141328512     
 soft         electrons   0.0000000000000000     
 augmentation electrons   864.17339141328512     
 soft         electrons   0.0000000000000000     
 augmentation electrons   864.17339141328512     
 soft         electrons   0.0000000000000000     
 augmentation electrons   864.17339141328512     
 soft         electrons   0.0000000000000000     
 augmentation electrons   864.17339141328512     
 soft         electrons   0.0000000000000000     
 augmentation electrons   864.17339141328512     
 soft         electrons   0.0000000000000000     
 augmentation electrons   864.17339141328512     
 soft         electrons   0.0000000000000000     
 augmentation electrons   864.17339141328512     
 soft         electrons   0.0000000000000000     
 augmentation electrons   864.17339141328512     
 soft         electrons   0.0000000000000000     
 augmentation electrons   864.17339141328512     
 soft         electrons   0.0000000000000000     
 augmentation electrons   864.17339141328512     
 soft         electrons   0.0000000000000000     
 augmentation electrons   864.17339141328512     
 soft         electrons   0.0000000000000000     
 augmentation electrons   864.17339141328512     
 soft         electrons   0.0000000000000000     
 augmentation electrons   864.17339141328512     
 soft         electrons   0.0000000000000000     
 augmentation electrons   864.17339141328512     
 soft         electrons   0.0000000000000000     
 augmentation electrons   864.17339141328512     
 soft         electrons   0.0000000000000000     
 augmentation electrons   864.17339141328512     
 soft         electrons   0.0000000000000000     
 augmentation electrons   864.17339141328512     
 soft         electrons   0.0000000000000000     
 augmentation electrons   864.17339141328512     
 soft         electrons   0.0000000000000000     
 augmentation electrons   864.17339141328512     
 soft         electrons   0.0000000000000000     
 augmentation electrons   864.17339141328512     
 soft         electrons   0.0000000000000000     
 augmentation electrons   864.17339141328512     
 soft         electrons   0.0000000000000000     
 augmentation electrons   864.17339141328512     
 soft         electrons   0.0000000000000000     
 augmentation electrons   864.17339141328512     
 soft         electrons   0.0000000000000000     
 augmentation electrons   864.17339141328512     
 soft         electrons   0.0000000000000000     
 augmentation electrons   864.17339141328512     
 soft         electrons   0.0000000000000000     
 augmentation electrons   864.17339141328512     
 soft         electrons   0.0000000000000000     
 augmentation electrons   864.17339141328512     
 soft         electrons   0.0000000000000000     
 augmentation electrons   864.17339141328512     
 soft         electrons   0.0000000000000000     
 augmentation electrons   864.17339141328512     
 soft         electrons   0.0000000000000000     
 augmentation electrons   864.17339141328512     
 soft         electrons   0.0000000000000000     
 augmentation electrons   864.17339141328512     
 soft         electrons   0.0000000000000000     
 augmentation electrons   864.17339141328512     
 soft         electrons   0.0000000000000000     
 augmentation electrons   864.17339141328512     
 soft         electrons   0.0000000000000000     
 augmentation electrons   864.17339141328512     
 soft         electrons   0.0000000000000000     
 augmentation electrons   864.17339141328512     
 soft         electrons   0.0000000000000000     
 augmentation electrons   864.17339141328512     
 soft         electrons   0.0000000000000000     
 augmentation electrons   864.17339141328512     
 soft         electrons   0.0000000000000000     
 augmentation electrons   864.17339141328512     
 soft         electrons   0.0000000000000000     
 augmentation electrons   864.17339141328512     
 soft         electrons   0.0000000000000000     
 augmentation electrons   864.17339141328512     
 soft         electrons   0.0000000000000000     
 augmentation electrons   864.17339141328512     
 soft         electrons   0.0000000000000000     
 augmentation electrons   864.17339141328512     
 soft         electrons   0.0000000000000000     
 augmentation electrons   864.17339141328512     
 soft         electrons   0.0000000000000000     
 soft         electrons   0.0000000000000000     
 total        electrons   864.17339141328512     
 total        electrons   864.17339141328512     
 total        electrons   864.17339141328512     
 total        electrons   864.17339141328512     
 total        electrons   864.17339141328512     
 total        electrons   864.17339141328512     
 total        electrons   864.17339141328512     
 total        electrons   864.17339141328512     
 total        electrons   864.17339141328512     
 total        electrons   864.17339141328512     
 total        electrons   864.17339141328512     
 total        electrons   864.17339141328512     
 total        electrons   864.17339141328512     
 total        electrons   864.17339141328512     
 total        electrons   864.17339141328512     
 total        electrons   864.17339141328512     
 total        electrons   864.17339141328512     
 total        electrons   864.17339141328512     
 total        electrons   864.17339141328512     
 total        electrons   864.17339141328512     
 total        electrons   864.17339141328512     
 total        electrons   864.17339141328512     
 total        electrons   864.17339141328512     
 total        electrons   864.17339141328512     
 total        electrons   864.17339141328512     
 total        electrons   864.17339141328512     
 total        electrons   864.17339141328512     
 total        electrons   864.17339141328512     
 total        electrons   864.17339141328512     
 total        electrons   864.17339141328512     
 total        electrons   864.17339141328512     
 total        electrons   864.17339141328512     
 total        electrons   864.17339141328512     
 total        electrons   864.17339141328512     
 total        electrons   864.17339141328512     
 total        electrons   864.17339141328512     
 total        electrons   864.17339141328512     
 total        electrons   864.17339141328512     
 total        electrons   864.17339141328512     
 total        electrons   864.17339141328512     
 total        electrons   864.17339141328512     
 total        electrons   864.17339141328512     
 total        electrons   864.17339141328512     
 total        electrons   864.17339141328512     
 total        electrons   864.17339141328512     
 total        electrons   864.17339141328512     
 total        electrons   864.17339141328512     
 total        electrons   864.17339141328512     
 total        electrons   864.17339141328512     
 total        electrons   864.17339141328512     
 total        electrons   864.17339141328512     
 total        electrons   864.17339141328512     
 total        electrons   864.17339141328512     
 total        electrons   864.17339141328512     
 total        electrons   864.17339141328512     
 total        electrons   864.17339141328512     
 total        electrons   864.17339141328512     
 total        electrons   864.17339141328512     
 total        electrons   864.17339141328512     
 total        electrons   864.17339141328512     
 total        electrons   864.17339141328512     
 total        electrons   864.17339141328512     
 total        electrons   864.17339141328512     
 total        electrons   864.17339141328512     
 total        electrons   864.17339141328512     
 total        electrons   864.17339141328512     
 total        electrons   864.17339141328512     
 total        electrons   864.17339141328512     
 total        electrons   864.17339141328512     
 total        electrons   864.17339141328512     
 total        electrons   864.17339141328512     
 total        electrons   864.17339141328512     
 total        electrons   864.17339141328512     
 total        electrons   864.17339141328512     
 total        electrons   864.17339141328512     
 total        electrons   864.17339141328512     
 total        electrons   864.17339141328512     
 total        electrons   864.17339141328512     
 total        electrons   864.17339141328512     
 total        electrons   864.17339141328512     
 total        electrons   864.17339141328512     
 total        electrons   864.17339141328512     
 total        electrons   864.17339141328512     
 total        electrons   864.17339141328512     
 total        electrons   864.17339141328512     
 total        electrons   864.17339141328512     
 total        electrons   864.17339141328512     
 total        electrons   864.17339141328512     
 total        electrons   864.17339141328512     
 total        electrons   864.17339141328512     
 total        electrons   864.17339141328512     
 total        electrons   864.17339141328512     
 total        electrons   864.17339141328512     
 total        electrons   864.17339141328512     
 total        electrons   864.17339141328512     
 total        electrons   864.17339141328512     
 total        electrons   864.17339141328512     
 total        electrons   864.17339141328512     
 total        electrons   864.17339141328512     
 total        electrons   864.17339141328512     
 total        electrons   864.17339141328512     
 total        electrons   864.17339141328512     
 total        electrons   864.17339141328512     
 total        electrons   864.17339141328512     
 total        electrons   864.17339141328512     
 total        electrons   864.17339141328512     
 total        electrons   864.17339141328512     
 total        electrons   864.17339141328512     
 total        electrons   864.17339141328512     
 total        electrons   864.17339141328512     
 total        electrons   864.17339141328512     
 total        electrons   864.17339141328512     
 total        electrons   864.17339141328512     
 total        electrons   864.17339141328512     
 total        electrons   864.17339141328512     
 total        electrons   864.17339141328512     
 total        electrons   864.17339141328512     
 total        electrons   864.17339141328512     
 total        electrons   864.17339141328512     
 total        electrons   864.17339141328512     
 total        electrons   864.17339141328512     
 total        electrons   864.17339141328512     
 total        electrons   864.17339141328512     
 total        electrons   864.17339141328512     
 total        electrons   864.17339141328512     
 total        electrons   864.17339141328512     
 total        electrons   864.17339141328512     
 total        electrons   864.17339141328512     
 charge-density read from file: Name                                    
 entering main loop
       N       E                     dE             d eps       ncg     rms          rms(c)
DAV:   1     0.236655046474E+04    0.23666E+04   -0.97389E+04 13728   0.132E+03
DAV:   2    -0.796889059281E+01   -0.23745E+04   -0.21993E+04 14352   0.319E+02
DAV:   3    -0.498713114331E+03   -0.49074E+03   -0.46511E+03 20240   0.170E+02
DAV:   4    -0.546646294601E+03   -0.47933E+02   -0.46124E+02 21568   0.542E+01
DAV:   5    -0.549221193435E+03   -0.25749E+01   -0.24986E+01 23360   0.120E+01
RMM:   6    -0.549319917965E+03   -0.98725E-01   -0.99097E-01 15314   0.266E+00
RMM:   7    -0.549371224534E+03   -0.51307E-01   -0.50006E-01 22178   0.735E-01
RMM:   8    -0.549381999850E+03   -0.10775E-01   -0.11366E-01 22489   0.195E-01
RMM:   9    -0.549382692639E+03   -0.69279E-03   -0.11921E-02 20376   0.637E-02
RMM:  10    -0.549382812714E+03   -0.12008E-03   -0.15956E-03 19517   0.240E-02
RMM:  11    -0.549382837373E+03   -0.24659E-04   -0.31885E-04 14384   0.887E-03
RMM:  12    -0.549382840929E+03   -0.35562E-05   -0.53394E-05 12791   0.415E-03
RMM:  13    -0.549382841778E+03   -0.84862E-06   -0.11630E-05 12098   0.295E-03
RMM:  14    -0.549382841950E+03   -0.17208E-06   -0.24905E-06 11117   0.195E-03
   1 F= -.54938284E+03 E0= -.54938284E+03  d E =0.000000E+00
 augmentation electrons   35.468215517566620     
 soft         electrons   240.62729942964251     
 total        electrons   276.09551494720915     
 augmentation electrons   35.468215517566620     
 soft         electrons   240.62729942964251     
 total        electrons   276.09551494720915     
 augmentation electrons   35.468215517566620     
 soft         electrons   240.62729942964251     
 total        electrons   276.09551494720915     
 augmentation electrons   35.468215517566620     
 soft         electrons   240.62729942964251     
 total        electrons   276.09551494720915     
 augmentation electrons   35.468215517566620     
 soft         electrons   240.62729942964251     
 total        electrons   276.09551494720915     
 augmentation electrons   35.468215517566620     
 soft         electrons   240.62729942964251     
 total        electrons   276.09551494720915     
 augmentation electrons   35.468215517566620     
 soft         electrons   240.62729942964251     
 total        electrons   276.09551494720915     
 augmentation electrons   35.468215517566620     
 soft         electrons   240.62729942964251     
 augmentation electrons   35.468215517566620     
 soft         electrons   240.62729942964251     
 total        electrons   276.09551494720915     
 augmentation electrons   35.468215517566620     
 soft         electrons   240.62729942964251     
 total        electrons   276.09551494720915     
 augmentation electrons   35.468215517566620     
 soft         electrons   240.62729942964251     
 total        electrons   276.09551494720915     
 augmentation electrons   35.468215517566620     
 soft         electrons   240.62729942964251     
 total        electrons   276.09551494720915     
 augmentation electrons   35.468215517566620     
 soft         electrons   240.62729942964251     
 total        electrons   276.09551494720915     
 augmentation electrons   35.468215517566620     
 soft         electrons   240.62729942964251     
 total        electrons   276.09551494720915     
 augmentation electrons   35.468215517566620     
 soft         electrons   240.62729942964251     
 total        electrons   276.09551494720915     
 augmentation electrons   35.468215517566620     
 soft         electrons   240.62729942964251     
 total        electrons   276.09551494720915     
 augmentation electrons   35.468215517566620     
 soft         electrons   240.62729942964251     
 total        electrons   276.09551494720915     
 augmentation electrons   35.468215517566620     
 soft         electrons   240.62729942964251     
 total        electrons   276.09551494720915     
 augmentation electrons   35.468215517566620     
 soft         electrons   240.62729942964251     
 total        electrons   276.09551494720915     
 augmentation electrons   35.468215517566620     
 soft         electrons   240.62729942964251     
 total        electrons   276.09551494720915     
 augmentation electrons   35.468215517566620     
 soft         electrons   240.62729942964251     
 total        electrons   276.09551494720915     
 augmentation electrons   35.468215517566620     
 soft         electrons   240.62729942964251     
 augmentation electrons   35.468215517566620     
 soft         electrons   240.62729942964251     
 total        electrons   276.09551494720915     
 augmentation electrons   35.468215517566620     
 soft         electrons   240.62729942964251     
 total        electrons   276.09551494720915     
 augmentation electrons   35.468215517566620     
 soft         electrons   240.62729942964251     
 total        electrons   276.09551494720915     
 augmentation electrons   35.468215517566620     
 soft         electrons   240.62729942964251     
 total        electrons   276.09551494720915     
 augmentation electrons   35.468215517566620     
 soft         electrons   240.62729942964251     
 total        electrons   276.09551494720915     
 augmentation electrons   35.468215517566620     
 soft         electrons   240.62729942964251     
 total        electrons   276.09551494720915     
 augmentation electrons   35.468215517566620     
 soft         electrons   240.62729942964251     
 total        electrons   276.09551494720915     
 augmentation electrons   35.468215517566620     
 soft         electrons   240.62729942964251     
 total        electrons   276.09551494720915     
 augmentation electrons   35.468215517566620     
 soft         electrons   240.62729942964251     
 total        electrons   276.09551494720915     
 augmentation electrons   35.468215517566620     
 soft         electrons   240.62729942964251     
 total        electrons   276.09551494720915     
 augmentation electrons   35.468215517566620     
 soft         electrons   240.62729942964251     
 total        electrons   276.09551494720915     
 augmentation electrons   35.468215517566620     
 soft         electrons   240.62729942964251     
 total        electrons   276.09551494720915     
 augmentation electrons   35.468215517566620     
 soft         electrons   240.62729942964251     
 total        electrons   276.09551494720915     
 augmentation electrons   35.468215517566620     
 soft         electrons   240.62729942964251     
 total        electrons   276.09551494720915     
 augmentation electrons   35.468215517566620     
 soft         electrons   240.62729942964251     
 total        electrons   276.09551494720915     
 augmentation electrons   35.468215517566620     
 soft         electrons   240.62729942964251     
 total        electrons   276.09551494720915     
 augmentation electrons   35.468215517566620     
 soft         electrons   240.62729942964251     
 total        electrons   276.09551494720915     
 augmentation electrons   35.468215517566620     
 soft         electrons   240.62729942964251     
 total        electrons   276.09551494720915     
 augmentation electrons   35.468215517566620     
 soft         electrons   240.62729942964251     
 total        electrons   276.09551494720915     
 augmentation electrons   35.468215517566620     
 soft         electrons   240.62729942964251     
 total        electrons   276.09551494720915     
 augmentation electrons   35.468215517566620     
 soft         electrons   240.62729942964251     
 total        electrons   276.09551494720915     
 augmentation electrons   35.468215517566620     
 soft         electrons   240.62729942964251     
 total        electrons   276.09551494720915     
 augmentation electrons   35.468215517566620     
 soft         electrons   240.62729942964251     
 total        electrons   276.09551494720915     
 augmentation electrons   35.468215517566620     
 soft         electrons   240.62729942964251     
 total        electrons   276.09551494720915     
 augmentation electrons   35.468215517566620     
 soft         electrons   240.62729942964251     
 total        electrons   276.09551494720915     
 augmentation electrons   35.468215517566620     
 soft         electrons   240.62729942964251     
 total        electrons   276.09551494720915     
 augmentation electrons   35.468215517566620     
 soft         electrons   240.62729942964251     
 total        electrons   276.09551494720915     
 augmentation electrons   35.468215517566620     
 soft         electrons   240.62729942964251     
 total        electrons   276.09551494720915     
 augmentation electrons   35.468215517566620     
 soft         electrons   240.62729942964251     
 total        electrons   276.09551494720915     
 augmentation electrons   35.468215517566620     
 soft         electrons   240.62729942964251     
 total        electrons   276.09551494720915     
 augmentation electrons   35.468215517566620     
 soft         electrons   240.62729942964251     
 total        electrons   276.09551494720915     
 augmentation electrons   35.468215517566620     
 soft         electrons   240.62729942964251     
 total        electrons   276.09551494720915     
 augmentation electrons   35.468215517566620     
 soft         electrons   240.62729942964251     
 total        electrons   276.09551494720915     
 augmentation electrons   35.468215517566620     
 soft         electrons   240.62729942964251     
 augmentation electrons   35.468215517566620     
 soft         electrons   240.62729942964251     
 total        electrons   276.09551494720915     
 augmentation electrons   35.468215517566620     
 soft         electrons   240.62729942964251     
 total        electrons   276.09551494720915     
 augmentation electrons   35.468215517566620     
 soft         electrons   240.62729942964251     
 total        electrons   276.09551494720915     
 augmentation electrons   35.468215517566620     
 soft         electrons   240.62729942964251     
 total        electrons   276.09551494720915     
 augmentation electrons   35.468215517566620     
 soft         electrons   240.62729942964251     
 total        electrons   276.09551494720915     
 augmentation electrons   35.468215517566620     
 soft         electrons   240.62729942964251     
 total        electrons   276.09551494720915     
 augmentation electrons   35.468215517566620     
 soft         electrons   240.62729942964251     
 total        electrons   276.09551494720915     
 augmentation electrons   35.468215517566620     
 soft         electrons   240.62729942964251     
 total        electrons   276.09551494720915     
 augmentation electrons   35.468215517566620     
 soft         electrons   240.62729942964251     
 total        electrons   276.09551494720915     
 augmentation electrons   35.468215517566620     
 soft         electrons   240.62729942964251     
 total        electrons   276.09551494720915     
 augmentation electrons   35.468215517566620     
 soft         electrons   240.62729942964251     
 total        electrons   276.09551494720915     
 augmentation electrons   35.468215517566620     
 soft         electrons   240.62729942964251     
 total        electrons   276.09551494720915     
 augmentation electrons   35.468215517566620     
 soft         electrons   240.62729942964251     
 total        electrons   276.09551494720915     
 augmentation electrons   35.468215517566620     
 soft         electrons   240.62729942964251     
 total        electrons   276.09551494720915     
 augmentation electrons   35.468215517566620     
 soft         electrons   240.62729942964251     
 total        electrons   276.09551494720915     
 augmentation electrons   35.468215517566620     
 soft         electrons   240.62729942964251     
 total        electrons   276.09551494720915     
 augmentation electrons   35.468215517566620     
 soft         electrons   240.62729942964251     
 total        electrons   276.09551494720915     
 augmentation electrons   35.468215517566620     
 soft         electrons   240.62729942964251     
 augmentation electrons   35.468215517566620     
 soft         electrons   240.62729942964251     
 total        electrons   276.09551494720915     
 augmentation electrons   35.468215517566620     
 soft         electrons   240.62729942964251     
 total        electrons   276.09551494720915     
 augmentation electrons   35.468215517566620     
 soft         electrons   240.62729942964251     
 total        electrons   276.09551494720915     
 augmentation electrons   35.468215517566620     
 soft         electrons   240.62729942964251     
 total        electrons   276.09551494720915     
 augmentation electrons   35.468215517566620     
 soft         electrons   240.62729942964251     
 total        electrons   276.09551494720915     
 augmentation electrons   35.468215517566620     
 soft         electrons   240.62729942964251     
 total        electrons   276.09551494720915     
 augmentation electrons   35.468215517566620     
 soft         electrons   240.62729942964251     
 total        electrons   276.09551494720915     
 augmentation electrons   35.468215517566620     
 soft         electrons   240.62729942964251     
 total        electrons   276.09551494720915     
 augmentation electrons   35.468215517566620     
 soft         electrons   240.62729942964251     
 total        electrons   276.09551494720915     
 augmentation electrons   35.468215517566620     
 soft         electrons   240.62729942964251     
 total        electrons   276.09551494720915     
 augmentation electrons   35.468215517566620     
 soft         electrons   240.62729942964251     
 total        electrons   276.09551494720915     
 augmentation electrons   35.468215517566620     
 soft         electrons   240.62729942964251     
 total        electrons   276.09551494720915     
 augmentation electrons   35.468215517566620     
 soft         electrons   240.62729942964251     
 total        electrons   276.09551494720915     
 augmentation electrons   35.468215517566620     
 soft         electrons   240.62729942964251     
 total        electrons   276.09551494720915     
 augmentation electrons   35.468215517566620     
 soft         electrons   240.62729942964251     
 total        electrons   276.09551494720915     
 augmentation electrons   35.468215517566620     
 soft         electrons   240.62729942964251     
 total        electrons   276.09551494720915     
 augmentation electrons   35.468215517566620     
 soft         electrons   240.62729942964251     
 augmentation electrons   35.468215517566620     
 soft         electrons   240.62729942964251     
 total        electrons   276.09551494720915     
 augmentation electrons   35.468215517566620     
 soft         electrons   240.62729942964251     
 total        electrons   276.09551494720915     
 augmentation electrons   35.468215517566620     
 soft         electrons   240.62729942964251     
 total        electrons   276.09551494720915     
 augmentation electrons   35.468215517566620     
 soft         electrons   240.62729942964251     
 total        electrons   276.09551494720915     
 augmentation electrons   35.468215517566620     
 soft         electrons   240.62729942964251     
 total        electrons   276.09551494720915     
 augmentation electrons   35.468215517566620     
 soft         electrons   240.62729942964251     
 total        electrons   276.09551494720915     
 augmentation electrons   35.468215517566620     
 soft         electrons   240.62729942964251     
 total        electrons   276.09551494720915     
 augmentation electrons   35.468215517566620     
 soft         electrons   240.62729942964251     
 total        electrons   276.09551494720915     
 augmentation electrons   35.468215517566620     
 soft         electrons   240.62729942964251     
 total        electrons   276.09551494720915     
 augmentation electrons   35.468215517566620     
 soft         electrons   240.62729942964251     
 total        electrons   276.09551494720915     
 augmentation electrons   35.468215517566620     
 soft         electrons   240.62729942964251     
 total        electrons   276.09551494720915     
 augmentation electrons   35.468215517566620     
 soft         electrons   240.62729942964251     
 total        electrons   276.09551494720915     
 augmentation electrons   35.468215517566620     
 soft         electrons   240.62729942964251     
 total        electrons   276.09551494720915     
 augmentation electrons   35.468215517566620     
 soft         electrons   240.62729942964251     
 augmentation electrons   35.468215517566620     
 soft         electrons   240.62729942964251     
 total        electrons   276.09551494720915     
 augmentation electrons   35.468215517566620     
 soft         electrons   240.62729942964251     
 total        electrons   276.09551494720915     
 augmentation electrons   35.468215517566620     
 soft         electrons   240.62729942964251     
 total        electrons   276.09551494720915     
 augmentation electrons   35.468215517566620     
 soft         electrons   240.62729942964251     
 total        electrons   276.09551494720915     
 augmentation electrons   35.468215517566620     
 soft         electrons   240.62729942964251     
 total        electrons   276.09551494720915     
 augmentation electrons   35.468215517566620     
 soft         electrons   240.62729942964251     
 total        electrons   276.09551494720915     
 augmentation electrons   35.468215517566620     
 soft         electrons   240.62729942964251     
 total        electrons   276.09551494720915     
 augmentation electrons   35.468215517566620     
 soft         electrons   240.62729942964251     
 total        electrons   276.09551494720915     
 augmentation electrons   35.468215517566620     
 soft         electrons   240.62729942964251     
 total        electrons   276.09551494720915     
 augmentation electrons   35.468215517566620     
 soft         electrons   240.62729942964251     
 total        electrons   276.09551494720915     
 augmentation electrons   35.468215517566620     
 soft         electrons   240.62729942964251     
 total        electrons   276.09551494720915     
 augmentation electrons   35.468215517566620     
 soft         electrons   240.62729942964251     
 total        electrons   276.09551494720915     
 augmentation electrons   35.468215517566620     
 soft         electrons   240.62729942964251     
 total        electrons   276.09551494720915     
 augmentation electrons   35.468215517566620     
 soft         electrons   240.62729942964251     
 total        electrons   276.09551494720915     
 augmentation electrons   35.468215517566620     
 soft         electrons   240.62729942964251     
 total        electrons   276.09551494720915     
 augmentation electrons   35.468215517566620     
 soft         electrons   240.62729942964251     
 augmentation electrons   35.468215517566620     
 soft         electrons   240.62729942964251     
 total        electrons   276.09551494720915     
 augmentation electrons   35.468215517566620     
 soft         electrons   240.62729942964251     
 total        electrons   276.09551494720915     
 augmentation electrons   35.468215517566620     
 soft         electrons   240.62729942964251     
 total        electrons   276.09551494720915     
 augmentation electrons   35.468215517566620     
 soft         electrons   240.62729942964251     
 total        electrons   276.09551494720915     
 augmentation electrons   35.468215517566620     
 soft         electrons   240.62729942964251     
 total        electrons   276.09551494720915     
 augmentation electrons   35.468215517566620     
 soft         electrons   240.62729942964251     
 total        electrons   276.09551494720915     
 augmentation electrons   35.468215517566620     
 soft         electrons   240.62729942964251     
 total        electrons   276.09551494720915     
 total        electrons   276.09551494720915     
 total        electrons   276.09551494720915     
 total        electrons   276.09551494720915     
 total        electrons   276.09551494720915     
 total        electrons   276.09551494720915     
 total        electrons   276.09551494720915     
 total        electrons   276.09551494720915     
Note: The following floating-point exceptions are signalling: IEEE_OVERFLOW_FLAG
Note: The following floating-point exceptions are signalling: IEEE_OVERFLOW_FLAG
Note: The following floating-point exceptions are signalling: IEEE_OVERFLOW_FLAG
Note: The following floating-point exceptions are signalling: IEEE_OVERFLOW_FLAG
Note: The following floating-point exceptions are signalling: IEEE_OVERFLOW_FLAG
Note: The following floating-point exceptions are signalling: IEEE_OVERFLOW_FLAG
Note: The following floating-point exceptions are signalling: IEEE_OVERFLOW_FLAG
Note: The following floating-point exceptions are signalling: IEEE_OVERFLOW_FLAG
Note: The following floating-point exceptions are signalling: IEEE_OVERFLOW_FLAG
Note: The following floating-point exceptions are signalling: IEEE_INVALID_FLAG IEEE_OVERFLOW_FLAG
Note: The following floating-point exceptions are signalling: IEEE_OVERFLOW_FLAG
Note: The following floating-point exceptions are signalling: IEEE_OVERFLOW_FLAG
Note: The following floating-point exceptions are signalling: IEEE_OVERFLOW_FLAG
Note: The following floating-point exceptions are signalling: IEEE_OVERFLOW_FLAG
Note: The following floating-point exceptions are signalling: IEEE_OVERFLOW_FLAG
Note: The following floating-point exceptions are signalling: IEEE_OVERFLOW_FLAG
Note: The following floating-point exceptions are signalling: IEEE_OVERFLOW_FLAG
Note: The following floating-point exceptions are signalling: IEEE_OVERFLOW_FLAG
Note: The following floating-point exceptions are signalling: IEEE_OVERFLOW_FLAG
Note: The following floating-point exceptions are signalling: IEEE_OVERFLOW_FLAG
Note: The following floating-point exceptions are signalling: IEEE_OVERFLOW_FLAG
Note: The following floating-point exceptions are signalling: IEEE_OVERFLOW_FLAG
Note: The following floating-point exceptions are signalling: IEEE_OVERFLOW_FLAG
Note: The following floating-point exceptions are signalling: IEEE_OVERFLOW_FLAG
Note: The following floating-point exceptions are signalling: IEEE_OVERFLOW_FLAG
Note: The following floating-point exceptions are signalling: IEEE_OVERFLOW_FLAG
Note: The following floating-point exceptions are signalling: IEEE_OVERFLOW_FLAG
Note: The following floating-point exceptions are signalling: IEEE_OVERFLOW_FLAG
Note: The following floating-point exceptions are signalling: IEEE_OVERFLOW_FLAG
Note: The following floating-point exceptions are signalling: IEEE_OVERFLOW_FLAG
Note: The following floating-point exceptions are signalling: IEEE_OVERFLOW_FLAG
Note: The following floating-point exceptions are signalling: IEEE_OVERFLOW_FLAG
Note: The following floating-point exceptions are signalling: IEEE_OVERFLOW_FLAG
Note: The following floating-point exceptions are signalling: IEEE_OVERFLOW_FLAG
Note: The following floating-point exceptions are signalling: IEEE_OVERFLOW_FLAG
Note: The following floating-point exceptions are signalling: IEEE_OVERFLOW_FLAG
Note: The following floating-point exceptions are signalling: IEEE_OVERFLOW_FLAG
Note: The following floating-point exceptions are signalling: IEEE_OVERFLOW_FLAG
Note: The following floating-point exceptions are signalling: IEEE_OVERFLOW_FLAG
Note: The following floating-point exceptions are signalling: IEEE_OVERFLOW_FLAG
Note: The following floating-point exceptions are signalling: IEEE_OVERFLOW_FLAG
Note: The following floating-point exceptions are signalling: IEEE_OVERFLOW_FLAG
Note: The following floating-point exceptions are signalling: IEEE_OVERFLOW_FLAG
Note: The following floating-point exceptions are signalling: IEEE_OVERFLOW_FLAG
Note: The following floating-point exceptions are signalling: IEEE_OVERFLOW_FLAG
Note: The following floating-point exceptions are signalling: IEEE_OVERFLOW_FLAG
Note: The following floating-point exceptions are signalling: IEEE_OVERFLOW_FLAG
Note: The following floating-point exceptions are signalling: IEEE_OVERFLOW_FLAG
Note: The following floating-point exceptions are signalling: IEEE_OVERFLOW_FLAG
Note: The following floating-point exceptions are signalling: IEEE_OVERFLOW_FLAG
Note: The following floating-point exceptions are signalling: IEEE_OVERFLOW_FLAG
Note: The following floating-point exceptions are signalling: IEEE_OVERFLOW_FLAG
Note: The following floating-point exceptions are signalling: IEEE_OVERFLOW_FLAG
Note: The following floating-point exceptions are signalling: IEEE_OVERFLOW_FLAG
Note: The following floating-point exceptions are signalling: IEEE_OVERFLOW_FLAG
Note: The following floating-point exceptions are signalling: IEEE_OVERFLOW_FLAG
Note: The following floating-point exceptions are signalling: IEEE_OVERFLOW_FLAG
Note: The following floating-point exceptions are signalling: IEEE_OVERFLOW_FLAG
Note: The following floating-point exceptions are signalling: IEEE_OVERFLOW_FLAG
Note: The following floating-point exceptions are signalling: IEEE_OVERFLOW_FLAG
Note: The following floating-point exceptions are signalling: IEEE_OVERFLOW_FLAG
Note: The following floating-point exceptions are signalling: IEEE_OVERFLOW_FLAG
Note: The following floating-point exceptions are signalling: IEEE_OVERFLOW_FLAG
Note: The following floating-point exceptions are signalling: IEEE_OVERFLOW_FLAG
Note: The following floating-point exceptions are signalling: IEEE_OVERFLOW_FLAG
Note: The following floating-point exceptions are signalling: IEEE_OVERFLOW_FLAG
Note: The following floating-point exceptions are signalling: IEEE_OVERFLOW_FLAG
Note: The following floating-point exceptions are signalling: IEEE_OVERFLOW_FLAG
Note: The following floating-point exceptions are signalling: IEEE_OVERFLOW_FLAG
Note: The following floating-point exceptions are signalling: IEEE_OVERFLOW_FLAG
Note: The following floating-point exceptions are signalling: IEEE_OVERFLOW_FLAG
Note: The following floating-point exceptions are signalling: IEEE_OVERFLOW_FLAG
Note: The following floating-point exceptions are signalling: IEEE_OVERFLOW_FLAG
Note: The following floating-point exceptions are signalling: IEEE_OVERFLOW_FLAG
Note: The following floating-point exceptions are signalling: IEEE_OVERFLOW_FLAG
Note: The following floating-point exceptions are signalling: IEEE_OVERFLOW_FLAG
Note: The following floating-point exceptions are signalling: IEEE_OVERFLOW_FLAG
Note: The following floating-point exceptions are signalling: IEEE_OVERFLOW_FLAG
Note: The following floating-point exceptions are signalling: IEEE_OVERFLOW_FLAG
Note: The following floating-point exceptions are signalling: IEEE_OVERFLOW_FLAG
Note: The following floating-point exceptions are signalling: IEEE_OVERFLOW_FLAG
Note: The following floating-point exceptions are signalling: IEEE_OVERFLOW_FLAG
Note: The following floating-point exceptions are signalling: IEEE_OVERFLOW_FLAG
Note: The following floating-point exceptions are signalling: IEEE_OVERFLOW_FLAG
Note: The following floating-point exceptions are signalling: IEEE_OVERFLOW_FLAG
Note: The following floating-point exceptions are signalling: IEEE_OVERFLOW_FLAG
Note: The following floating-point exceptions are signalling: IEEE_OVERFLOW_FLAG
Note: The following floating-point exceptions are signalling: IEEE_OVERFLOW_FLAG
Note: The following floating-point exceptions are signalling: IEEE_OVERFLOW_FLAG
Note: The following floating-point exceptions are signalling: IEEE_OVERFLOW_FLAG
Note: The following floating-point exceptions are signalling: IEEE_OVERFLOW_FLAG
Note: The following floating-point exceptions are signalling: IEEE_OVERFLOW_FLAG
Note: The following floating-point exceptions are signalling: IEEE_OVERFLOW_FLAG
Note: The following floating-point exceptions are signalling: IEEE_OVERFLOW_FLAG
Note: The following floating-point exceptions are signalling: IEEE_OVERFLOW_FLAG
Note: The following floating-point exceptions are signalling: IEEE_OVERFLOW_FLAG
Note: The following floating-point exceptions are signalling: IEEE_OVERFLOW_FLAG
Note: The following floating-point exceptions are signalling: IEEE_OVERFLOW_FLAG
Note: The following floating-point exceptions are signalling: IEEE_OVERFLOW_FLAG
Note: The following floating-point exceptions are signalling: IEEE_OVERFLOW_FLAG
Note: The following floating-point exceptions are signalling: IEEE_OVERFLOW_FLAG
Note: The following floating-point exceptions are signalling: IEEE_OVERFLOW_FLAG
Note: The following floating-point exceptions are signalling: IEEE_OVERFLOW_FLAG
Note: The following floating-point exceptions are signalling: IEEE_OVERFLOW_FLAG
Note: The following floating-point exceptions are signalling: IEEE_OVERFLOW_FLAG
Note: The following floating-point exceptions are signalling: IEEE_OVERFLOW_FLAG
Note: The following floating-point exceptions are signalling: IEEE_OVERFLOW_FLAG
Note: The following floating-point exceptions are signalling: IEEE_OVERFLOW_FLAG
Note: The following floating-point exceptions are signalling: IEEE_OVERFLOW_FLAG
Note: The following floating-point exceptions are signalling: IEEE_OVERFLOW_FLAG
Note: The following floating-point exceptions are signalling: IEEE_OVERFLOW_FLAG
Note: The following floating-point exceptions are signalling: IEEE_OVERFLOW_FLAG
Note: The following floating-point exceptions are signalling: IEEE_OVERFLOW_FLAG
Note: The following floating-point exceptions are signalling: IEEE_OVERFLOW_FLAG
Note: The following floating-point exceptions are signalling: IEEE_OVERFLOW_FLAG
Note: The following floating-point exceptions are signalling: IEEE_OVERFLOW_FLAG
Note: The following floating-point exceptions are signalling: IEEE_OVERFLOW_FLAG
Note: The following floating-point exceptions are signalling: IEEE_OVERFLOW_FLAG
Note: The following floating-point exceptions are signalling: IEEE_OVERFLOW_FLAG
Note: The following floating-point exceptions are signalling: IEEE_OVERFLOW_FLAG
Note: The following floating-point exceptions are signalling: IEEE_OVERFLOW_FLAG
Note: The following floating-point exceptions are signalling: IEEE_OVERFLOW_FLAG
Note: The following floating-point exceptions are signalling: IEEE_OVERFLOW_FLAG
Note: The following floating-point exceptions are signalling: IEEE_OVERFLOW_FLAG
Note: The following floating-point exceptions are signalling: IEEE_OVERFLOW_FLAG
Note: The following floating-point exceptions are signalling: IEEE_OVERFLOW_FLAG
Note: The following floating-point exceptions are signalling: IEEE_OVERFLOW_FLAG
Note: The following floating-point exceptions are signalling: IEEE_OVERFLOW_FLAG
