   54   54   85    1
  0.1316444E+02  0.6078000E-09  0.6078000E-09  0.2222000E-08  0.5000000E-15
   1.0000000000000000E-004
  CAR 
 Name                                    
    198     41    132

  0.3742002E-15  0.3742002E-15  0.1262379E-14  0.1234568E-01
    1      -11.426925   1.000000
    2      -10.828089   1.000000
    3       -9.996059   1.000000
    4       -8.557263   1.000000
    5       -8.440215   1.000000
    6       -8.267330   1.000000
    7       -8.050218   1.000000
    8       -7.937443   1.000000
    9       -7.664592   1.000000
   10       -7.650728   1.000000
   11       -7.622925   1.000000
   12       -7.553633   1.000000
   13       -7.535405   1.000000
   14       -7.495479   1.000000
   15       -7.288291   1.000000
   16       -7.285207   1.000000
   17       -7.195783   1.000000
   18       -6.976144   1.000000
   19       -6.848591   1.000000
   20       -6.678823   1.000000
   21       -6.130834   1.000000
   22       -5.931221   1.000000
   23       -5.826801   1.000000
   24       -5.784347   1.000000
   25       -5.737701   1.000000
   26       -5.694915   1.000000
   27       -5.619656   1.000000
   28       -5.188689   1.000000
   29       -5.150048   1.000000
   30       -5.148360   1.000000
   31       -4.556105   1.000000
   32       -4.446366   1.000000
   33       -4.335299   1.000000
   34       -4.287225   1.000000
   35       -4.139885   1.000000
   36       -4.045953   1.000000
   37       -3.849316   1.000000
   38       -3.380045   1.000000
   39       -3.098471   1.000000
   40       -2.879874   1.000000
   41       -2.653745   1.000000
   42       -2.637070   1.000000
   43       -2.618581   1.000000
   44       -2.382969   1.000000
   45       -2.298842   1.000000
   46       -2.276512   1.000000
   47       -2.150157   1.000000
   48       -2.058120   1.000000
   49       -1.886617   1.000000
   50       -1.842825   1.000000
   51       -1.784090   1.000000
   52       -1.718651   1.000000
   53       -1.619942   1.000000
   54       -1.530521   1.000000
   55       -1.526288   1.000000
   56       -1.430328   1.000000
   57       -1.358353   1.000000
   58       -1.302617   1.000000
   59       -1.297603   1.000000
   60       -1.260708   1.000000
   61       -1.241612   1.000000
   62       -1.060373   1.000000
   63       -1.005615   1.000000
   64       -0.946405   1.000000
   65       -0.944739   1.000000
   66       -0.714933   1.000000
   67       -0.664305   1.000000
   68       -0.655430   1.000000
   69       -0.639446   1.000000
   70       -0.548526   1.000000
   71       -0.420369   1.000000
   72       -0.211636   1.000000
   73       -0.140024   1.000000
   74       -0.003784   1.000000
   75        0.020852   1.000000
   76        0.038105   1.000000
   77        0.130586   1.000000
   78        0.250789   1.000000
   79        0.265027   1.000000
   80        0.395200   1.000000
   81        0.728249   1.000000
   82        0.886836   1.000000
   83        1.182811   1.000000
   84        1.314931   1.000000
   85        1.363281   1.000000
   86        1.368760   1.000000
   87        1.506601   1.000000
   88        1.635759   1.000000
   89        1.669234   1.000000
   90        1.718738   1.000000
   91        1.749298   1.000000
   92        1.837442   1.000000
   93        1.879858   1.000000
   94        1.927824   1.000002
   95        2.082695   1.000190
   96        2.209631   1.003487
   97        2.243755   1.006466
   98        2.266396   1.009342
   99        2.769170   0.097241
  100        2.872657  -0.031592
  101        2.881159  -0.033634
  102        3.160742  -0.001054
  103        3.308716  -0.000020
  104        3.315510  -0.000016
  105        3.361757  -0.000004
  106        3.451780  -0.000000
  107        3.525396  -0.000000
  108        3.641288  -0.000000
  109        3.667863  -0.000000
  110        3.679759  -0.000000
  111        3.684135  -0.000000
  112        3.752026  -0.000000
  113        3.802201  -0.000000
  114        3.869452  -0.000000
  115        3.885309  -0.000000
  116        3.901483  -0.000000
  117        3.966658  -0.000000
  118        3.997043  -0.000000
  119        4.063379  -0.000000
  120        4.115160  -0.000000
  121        4.172662  -0.000000
  122        4.214163  -0.000000
  123        4.214190  -0.000000
  124        4.350155  -0.000000
  125        4.375050  -0.000000
  126        4.450662  -0.000000
  127        4.487977  -0.000000
  128        4.512560  -0.000000
  129        4.724415  -0.000000
  130        4.744912  -0.000000
  131        5.106119  -0.000000
  132        5.209642  -0.000000

  0.1111111E+00  0.3768735E-15  0.1262379E-14  0.2469136E-01
    1      -11.369663   1.000000
    2      -10.775897   1.000000
    3       -9.956193   1.000000
    4       -8.521614   1.000000
    5       -8.464400   1.000000
    6       -8.234878   1.000000
    7       -8.212889   1.000000
    8       -8.187174   1.000000
    9       -7.943063   1.000000
   10       -7.798287   1.000000
   11       -7.767574   1.000000
   12       -7.752302   1.000000
   13       -7.699431   1.000000
   14       -7.681676   1.000000
   15       -7.052714   1.000000
   16       -7.001302   1.000000
   17       -6.794824   1.000000
   18       -6.741722   1.000000
   19       -6.655087   1.000000
   20       -6.475361   1.000000
   21       -6.112061   1.000000
   22       -6.056427   1.000000
   23       -5.857318   1.000000
   24       -5.782146   1.000000
   25       -5.685848   1.000000
   26       -5.625274   1.000000
   27       -5.575513   1.000000
   28       -5.283720   1.000000
   29       -5.218163   1.000000
   30       -5.070012   1.000000
   31       -4.390478   1.000000
   32       -4.360645   1.000000
   33       -4.195226   1.000000
   34       -4.161842   1.000000
   35       -4.058562   1.000000
   36       -3.895332   1.000000
   37       -3.725542   1.000000
   38       -3.361118   1.000000
   39       -3.111351   1.000000
   40       -2.930637   1.000000
   41       -2.768934   1.000000
   42       -2.616353   1.000000
   43       -2.593818   1.000000
   44       -2.518752   1.000000
   45       -2.365918   1.000000
   46       -2.347319   1.000000
   47       -2.255296   1.000000
   48       -2.132238   1.000000
   49       -1.902154   1.000000
   50       -1.859193   1.000000
   51       -1.813662   1.000000
   52       -1.749400   1.000000
   53       -1.619379   1.000000
   54       -1.540054   1.000000
   55       -1.500990   1.000000
   56       -1.450710   1.000000
   57       -1.343362   1.000000
   58       -1.330272   1.000000
   59       -1.287151   1.000000
   60       -1.254881   1.000000
   61       -1.235386   1.000000
   62       -1.142554   1.000000
   63       -1.037659   1.000000
   64       -0.984036   1.000000
   65       -0.969983   1.000000
   66       -0.870825   1.000000
   67       -0.702196   1.000000
   68       -0.639795   1.000000
   69       -0.594622   1.000000
   70       -0.521275   1.000000
   71       -0.453669   1.000000
   72       -0.352605   1.000000
   73       -0.130991   1.000000
   74       -0.090917   1.000000
   75       -0.054759   1.000000
   76        0.023320   1.000000
   77        0.084697   1.000000
   78        0.251907   1.000000
   79        0.299214   1.000000
   80        0.403000   1.000000
   81        0.617674   1.000000
   82        0.683720   1.000000
   83        1.056350   1.000000
   84        1.171951   1.000000
   85        1.244596   1.000000
   86        1.325872   1.000000
   87        1.447040   1.000000
   88        1.537599   1.000000
   89        1.645745   1.000000
   90        1.701493   1.000000
   91        1.711476   1.000000
   92        1.806957   1.000000
   93        1.848077   1.000000
   94        2.008549   1.000023
   95        2.050268   1.000078
   96        2.212569   1.003688
   97        2.488732   0.999386
   98        2.567228   0.839389
   99        2.759459   0.122026
  100        2.897057  -0.035379
  101        2.906264  -0.035373
  102        3.044788  -0.009623
  103        3.191780  -0.000509
  104        3.277603  -0.000051
  105        3.341971  -0.000007
  106        3.522072  -0.000000
  107        3.597094  -0.000000
  108        3.634732  -0.000000
  109        3.661722  -0.000000
  110        3.698164  -0.000000
  111        3.706439  -0.000000
  112        3.774482  -0.000000
  113        3.812048  -0.000000
  114        3.863527  -0.000000
  115        3.879119  -0.000000
  116        3.891628  -0.000000
  117        3.951254  -0.000000
  118        3.980265  -0.000000
  119        4.072610  -0.000000
  120        4.088027  -0.000000
  121        4.113263  -0.000000
  122        4.157193  -0.000000
  123        4.194498  -0.000000
  124        4.291807  -0.000000
  125        4.337080  -0.000000
  126        4.384792  -0.000000
  127        4.480404  -0.000000
  128        4.508136  -0.000000
  129        4.638217  -0.000000
  130        4.857542  -0.000000
  131        5.019490  -0.000000
  132        5.157716  -0.000000

  0.2222222E+00  0.3666194E-15  0.1262379E-14  0.2469136E-01
    1      -11.199853   1.000000
    2      -10.621696   1.000000
    3       -9.839736   1.000000
    4       -8.872782   1.000000
    5       -8.633195   1.000000
    6       -8.561425   1.000000
    7       -8.393434   1.000000
    8       -8.152594   1.000000
    9       -8.035977   1.000000
   10       -8.023497   1.000000
   11       -7.958238   1.000000
   12       -7.927683   1.000000
   13       -7.875701   1.000000
   14       -7.843756   1.000000
   15       -6.846660   1.000000
   16       -6.695766   1.000000
   17       -6.583091   1.000000
   18       -6.511065   1.000000
   19       -6.454581   1.000000
   20       -6.249327   1.000000
   21       -6.009154   1.000000
   22       -5.874240   1.000000
   23       -5.748756   1.000000
   24       -5.685563   1.000000
   25       -5.642508   1.000000
   26       -5.482110   1.000000
   27       -5.438779   1.000000
   28       -5.300242   1.000000
   29       -5.008118   1.000000
   30       -4.866424   1.000000
   31       -4.194142   1.000000
   32       -4.147893   1.000000
   33       -3.995693   1.000000
   34       -3.881555   1.000000
   35       -3.712232   1.000000
   36       -3.657685   1.000000
   37       -3.378442   1.000000
   38       -3.274584   1.000000
   39       -3.168856   1.000000
   40       -3.148386   1.000000
   41       -3.026917   1.000000
   42       -2.971819   1.000000
   43       -2.808175   1.000000
   44       -2.555484   1.000000
   45       -2.484363   1.000000
   46       -2.354384   1.000000
   47       -2.341911   1.000000
   48       -2.125459   1.000000
   49       -1.980322   1.000000
   50       -1.903792   1.000000
   51       -1.843229   1.000000
   52       -1.815981   1.000000
   53       -1.772651   1.000000
   54       -1.665004   1.000000
   55       -1.649172   1.000000
   56       -1.500871   1.000000
   57       -1.383926   1.000000
   58       -1.364003   1.000000
   59       -1.324000   1.000000
   60       -1.278427   1.000000
   61       -1.265370   1.000000
   62       -1.175485   1.000000
   63       -1.159586   1.000000
   64       -1.066295   1.000000
   65       -1.040566   1.000000
   66       -0.897748   1.000000
   67       -0.861816   1.000000
   68       -0.739855   1.000000
   69       -0.686212   1.000000
   70       -0.655361   1.000000
   71       -0.532679   1.000000
   72       -0.443928   1.000000
   73       -0.375377   1.000000
   74       -0.302000   1.000000
   75       -0.197930   1.000000
   76        0.015367   1.000000
   77        0.145977   1.000000
   78        0.160798   1.000000
   79        0.295446   1.000000
   80        0.423807   1.000000
   81        0.540606   1.000000
   82        0.675208   1.000000
   83        0.805153   1.000000
   84        0.885918   1.000000
   85        1.063218   1.000000
   86        1.179920   1.000000
   87        1.302045   1.000000
   88        1.463279   1.000000
   89        1.521084   1.000000
   90        1.623601   1.000000
   91        1.651036   1.000000
   92        1.720949   1.000000
   93        1.855221   1.000000
   94        1.966536   1.000006
   95        2.114686   1.000432
   96        2.201621   1.002985
   97        2.515540   0.961630
   98        2.586807   0.776168
   99        2.818875   0.007042
  100        2.960163  -0.026840
  101        3.026681  -0.012562
  102        3.140159  -0.001657
  103        3.233790  -0.000174
  104        3.324838  -0.000012
  105        3.395987  -0.000001
  106        3.433288  -0.000000
  107        3.463707  -0.000000
  108        3.491852  -0.000000
  109        3.576716  -0.000000
  110        3.616160  -0.000000
  111        3.672789  -0.000000
  112        3.751156  -0.000000
  113        3.788184  -0.000000
  114        3.825673  -0.000000
  115        3.848219  -0.000000
  116        3.925725  -0.000000
  117        3.945187  -0.000000
  118        3.971986  -0.000000
  119        3.998545  -0.000000
  120        4.048630  -0.000000
  121        4.124600  -0.000000
  122        4.172557  -0.000000
  123        4.218647  -0.000000
  124        4.246960  -0.000000
  125        4.282257  -0.000000
  126        4.320189  -0.000000
  127        4.446546  -0.000000
  128        4.552948  -0.000000
  129        4.586568  -0.000000
  130        4.743971  -0.000000
  131        4.858276  -0.000000
  132        5.036855  -0.000000

  0.3333333E+00  0.3733065E-15  0.1262379E-14  0.2469136E-01
    1      -10.924119   1.000000
    2      -10.373192   1.000000
    3       -9.657063   1.000000
    4       -9.486722   1.000000
    5       -9.117767   1.000000
    6       -8.800351   1.000000
    7       -8.226502   1.000000
    8       -8.187785   1.000000
    9       -8.143686   1.000000
   10       -8.140675   1.000000
   11       -8.074599   1.000000
   12       -7.986102   1.000000
   13       -7.906691   1.000000
   14       -7.846125   1.000000
   15       -7.210270   1.000000
   16       -6.926522   1.000000
   17       -6.332217   1.000000
   18       -6.313573   1.000000
   19       -6.062668   1.000000
   20       -6.014099   1.000000
   21       -5.842682   1.000000
   22       -5.804045   1.000000
   23       -5.668678   1.000000
   24       -5.607216   1.000000
   25       -5.424369   1.000000
   26       -5.408738   1.000000
   27       -4.960558   1.000000
   28       -4.816743   1.000000
   29       -4.541516   1.000000
   30       -4.407741   1.000000
   31       -3.948610   1.000000
   32       -3.878396   1.000000
   33       -3.763746   1.000000
   34       -3.671788   1.000000
   35       -3.629232   1.000000
   36       -3.522392   1.000000
   37       -3.468802   1.000000
   38       -3.447487   1.000000
   39       -3.430350   1.000000
   40       -3.288703   1.000000
   41       -3.212240   1.000000
   42       -3.191426   1.000000
   43       -2.727768   1.000000
   44       -2.560639   1.000000
   45       -2.469009   1.000000
   46       -2.423417   1.000000
   47       -2.320951   1.000000
   48       -2.253256   1.000000
   49       -2.233681   1.000000
   50       -2.042284   1.000000
   51       -1.968791   1.000000
   52       -1.914009   1.000000
   53       -1.861290   1.000000
   54       -1.818083   1.000000
   55       -1.738098   1.000000
   56       -1.632457   1.000000
   57       -1.544001   1.000000
   58       -1.492216   1.000000
   59       -1.431008   1.000000
   60       -1.369140   1.000000
   61       -1.352117   1.000000
   62       -1.263673   1.000000
   63       -1.248598   1.000000
   64       -1.194392   1.000000
   65       -1.061310   1.000000
   66       -1.032900   1.000000
   67       -0.991703   1.000000
   68       -0.875254   1.000000
   69       -0.775405   1.000000
   70       -0.689743   1.000000
   71       -0.546738   1.000000
   72       -0.535931   1.000000
   73       -0.451802   1.000000
   74       -0.366272   1.000000
   75       -0.289581   1.000000
   76       -0.238776   1.000000
   77       -0.032774   1.000000
   78        0.121892   1.000000
   79        0.226962   1.000000
   80        0.492224   1.000000
   81        0.555902   1.000000
   82        0.619407   1.000000
   83        0.766170   1.000000
   84        0.845734   1.000000
   85        1.017555   1.000000
   86        1.078803   1.000000
   87        1.233771   1.000000
   88        1.347327   1.000000
   89        1.361545   1.000000
   90        1.546465   1.000000
   91        1.628977   1.000000
   92        1.664918   1.000000
   93        1.825884   1.000000
   94        1.883728   1.000000
   95        2.107092   1.000358
   96        2.273814   1.010459
   97        2.370757   1.030666
   98        2.422407   1.034974
   99        2.619238   0.654886
  100        2.907525  -0.035324
  101        2.960602  -0.026740
  102        3.069808  -0.006416
  103        3.137045  -0.001771
  104        3.190635  -0.000523
  105        3.295308  -0.000030
  106        3.337010  -0.000008
  107        3.408017  -0.000001
  108        3.489409  -0.000000
  109        3.504094  -0.000000
  110        3.555864  -0.000000
  111        3.620554  -0.000000
  112        3.670520  -0.000000
  113        3.692179  -0.000000
  114        3.814598  -0.000000
  115        3.854698  -0.000000
  116        3.871458  -0.000000
  117        3.996220  -0.000000
  118        4.019905  -0.000000
  119        4.034165  -0.000000
  120        4.075049  -0.000000
  121        4.114287  -0.000000
  122        4.168989  -0.000000
  123        4.220903  -0.000000
  124        4.283271  -0.000000
  125        4.363000  -0.000000
  126        4.446961  -0.000000
  127        4.483074  -0.000000
  128        4.523054  -0.000000
  129        4.629001  -0.000000
  130        4.710826  -0.000000
  131        4.754801  -0.000000
  132        4.986148  -0.000000

  0.4444444E+00  0.3745812E-15  0.1262379E-14  0.2469136E-01
    1      -10.565502   1.000000
    2      -10.057875   1.000000
    3      -10.012439   1.000000
    4       -9.583866   1.000000
    5       -9.416893   1.000000
    6       -9.076486   1.000000
    7       -8.282032   1.000000
    8       -8.234108   1.000000
    9       -8.187125   1.000000
   10       -8.105004   1.000000
   11       -8.048588   1.000000
   12       -7.940151   1.000000
   13       -7.883232   1.000000
   14       -7.649248   1.000000
   15       -7.593500   1.000000
   16       -7.260836   1.000000
   17       -6.258375   1.000000
   18       -6.245146   1.000000
   19       -5.932848   1.000000
   20       -5.813809   1.000000
   21       -5.660798   1.000000
   22       -5.508871   1.000000
   23       -5.507277   1.000000
   24       -5.494611   1.000000
   25       -5.472387   1.000000
   26       -5.393888   1.000000
   27       -4.307981   1.000000
   28       -4.165503   1.000000
   29       -4.091638   1.000000
   30       -4.071004   1.000000
   31       -3.999601   1.000000
   32       -3.857977   1.000000
   33       -3.800897   1.000000
   34       -3.757091   1.000000
   35       -3.650086   1.000000
   36       -3.551045   1.000000
   37       -3.510434   1.000000
   38       -3.497335   1.000000
   39       -3.388919   1.000000
   40       -3.358067   1.000000
   41       -3.272153   1.000000
   42       -3.204813   1.000000
   43       -3.101547   1.000000
   44       -3.041308   1.000000
   45       -2.562506   1.000000
   46       -2.532428   1.000000
   47       -2.378041   1.000000
   48       -2.205379   1.000000
   49       -2.173712   1.000000
   50       -2.054886   1.000000
   51       -2.009696   1.000000
   52       -1.895082   1.000000
   53       -1.841285   1.000000
   54       -1.815918   1.000000
   55       -1.756735   1.000000
   56       -1.732207   1.000000
   57       -1.631987   1.000000
   58       -1.628870   1.000000
   59       -1.607194   1.000000
   60       -1.449034   1.000000
   61       -1.423378   1.000000
   62       -1.360679   1.000000
   63       -1.297145   1.000000
   64       -1.232906   1.000000
   65       -1.119064   1.000000
   66       -1.082680   1.000000
   67       -1.009586   1.000000
   68       -0.960698   1.000000
   69       -0.935011   1.000000
   70       -0.722977   1.000000
   71       -0.648023   1.000000
   72       -0.576592   1.000000
   73       -0.452402   1.000000
   74       -0.424463   1.000000
   75       -0.361826   1.000000
   76       -0.246315   1.000000
   77       -0.168405   1.000000
   78        0.126996   1.000000
   79        0.295039   1.000000
   80        0.380321   1.000000
   81        0.453974   1.000000
   82        0.693393   1.000000
   83        0.741687   1.000000
   84        0.872716   1.000000
   85        0.890044   1.000000
   86        1.104377   1.000000
   87        1.146177   1.000000
   88        1.319404   1.000000
   89        1.412207   1.000000
   90        1.508522   1.000000
   91        1.635636   1.000000
   92        1.665244   1.000000
   93        1.846982   1.000000
   94        2.037426   1.000054
   95        2.051138   1.000080
   96        2.256973   1.008049
   97        2.386908   1.033483
   98        2.388845   1.033757
   99        2.478935   1.009280
  100        2.535213   0.922998
  101        2.622294   0.642632
  102        2.873966  -0.031963
  103        2.962524  -0.026303
  104        3.090503  -0.004448
  105        3.207970  -0.000340
  106        3.327152  -0.000011
  107        3.389974  -0.000001
  108        3.397849  -0.000001
  109        3.453859  -0.000000
  110        3.507549  -0.000000
  111        3.557248  -0.000000
  112        3.584941  -0.000000
  113        3.653270  -0.000000
  114        3.765551  -0.000000
  115        3.824017  -0.000000
  116        3.880672  -0.000000
  117        3.990097  -0.000000
  118        3.999561  -0.000000
  119        4.089890  -0.000000
  120        4.095204  -0.000000
  121        4.135916  -0.000000
  122        4.159582  -0.000000
  123        4.258638  -0.000000
  124        4.315774  -0.000000
  125        4.413637  -0.000000
  126        4.439779  -0.000000
  127        4.484882  -0.000000
  128        4.544280  -0.000000
  129        4.640417  -0.000000
  130        4.659993  -0.000000
  131        4.976506  -0.000000
  132        5.015815  -0.000000

  0.3742002E-15  0.1111111E+00  0.1262379E-14  0.2469136E-01
    1      -11.369663   1.000000
    2      -10.775897   1.000000
    3       -9.956193   1.000000
    4       -8.521611   1.000000
    5       -8.464402   1.000000
    6       -8.234875   1.000000
    7       -8.212923   1.000000
    8       -8.187175   1.000000
    9       -7.943040   1.000000
   10       -7.798272   1.000000
   11       -7.767540   1.000000
   12       -7.752309   1.000000
   13       -7.699443   1.000000
   14       -7.681704   1.000000
   15       -7.052699   1.000000
   16       -7.001332   1.000000
   17       -6.794770   1.000000
   18       -6.741752   1.000000
   19       -6.655083   1.000000
   20       -6.475364   1.000000
   21       -6.112103   1.000000
   22       -6.056377   1.000000
   23       -5.857327   1.000000
   24       -5.782161   1.000000
   25       -5.685810   1.000000
   26       -5.625268   1.000000
   27       -5.575525   1.000000
   28       -5.283718   1.000000
   29       -5.218156   1.000000
   30       -5.070009   1.000000
   31       -4.390456   1.000000
   32       -4.360652   1.000000
   33       -4.195208   1.000000
   34       -4.161853   1.000000
   35       -4.058696   1.000000
   36       -3.895330   1.000000
   37       -3.725473   1.000000
   38       -3.361125   1.000000
   39       -3.111348   1.000000
   40       -2.930654   1.000000
   41       -2.768937   1.000000
   42       -2.616336   1.000000
   43       -2.593834   1.000000
   44       -2.518758   1.000000
   45       -2.365936   1.000000
   46       -2.347311   1.000000
   47       -2.255303   1.000000
   48       -2.132241   1.000000
   49       -1.902101   1.000000
   50       -1.859202   1.000000
   51       -1.813737   1.000000
   52       -1.749332   1.000000
   53       -1.619426   1.000000
   54       -1.540097   1.000000
   55       -1.500970   1.000000
   56       -1.450663   1.000000
   57       -1.343363   1.000000
   58       -1.330319   1.000000
   59       -1.287124   1.000000
   60       -1.254860   1.000000
   61       -1.235349   1.000000
   62       -1.142562   1.000000
   63       -1.037705   1.000000
   64       -0.983972   1.000000
   65       -0.970098   1.000000
   66       -0.870773   1.000000
   67       -0.702151   1.000000
   68       -0.639780   1.000000
   69       -0.594662   1.000000
   70       -0.521254   1.000000
   71       -0.453596   1.000000
   72       -0.352578   1.000000
   73       -0.130972   1.000000
   74       -0.090909   1.000000
   75       -0.054792   1.000000
   76        0.023340   1.000000
   77        0.084598   1.000000
   78        0.251864   1.000000
   79        0.299224   1.000000
   80        0.403041   1.000000
   81        0.617730   1.000000
   82        0.683688   1.000000
   83        1.056396   1.000000
   84        1.171930   1.000000
   85        1.244565   1.000000
   86        1.325942   1.000000
   87        1.446933   1.000000
   88        1.537659   1.000000
   89        1.645756   1.000000
   90        1.701477   1.000000
   91        1.711476   1.000000
   92        1.806893   1.000000
   93        1.848041   1.000000
   94        2.008558   1.000023
   95        2.050243   1.000078
   96        2.212672   1.003695
   97        2.488779   0.999335
   98        2.567215   0.839430
   99        2.759431   0.122103
  100        2.897053  -0.035379
  101        2.906282  -0.035373
  102        3.044805  -0.009621
  103        3.191833  -0.000508
  104        3.277536  -0.000051
  105        3.341970  -0.000007
  106        3.521995  -0.000000
  107        3.596985  -0.000000
  108        3.634799  -0.000000
  109        3.661809  -0.000000
  110        3.698112  -0.000000
  111        3.706488  -0.000000
  112        3.774474  -0.000000
  113        3.812588  -0.000000
  114        3.863519  -0.000000
  115        3.878987  -0.000000
  116        3.890657  -0.000000
  117        3.949313  -0.000000
  118        3.980353  -0.000000
  119        4.064547  -0.000000
  120        4.085850  -0.000000
  121        4.112749  -0.000000
  122        4.150206  -0.000000
  123        4.188193  -0.000000
  124        4.277872  -0.000000
  125        4.330027  -0.000000
  126        4.381300  -0.000000
  127        4.467307  -0.000000
  128        4.497025  -0.000000
  129        4.638378  -0.000000
  130        4.800041  -0.000000
  131        4.945993  -0.000000
  132        5.181493  -0.000000

  0.1111111E+00  0.1111111E+00  0.1262379E-14  0.2469136E-01
    1      -11.255435   1.000000
    2      -10.672579   1.000000
    3       -9.877571   1.000000
    4       -8.593887   1.000000
    5       -8.507324   1.000000
    6       -8.462632   1.000000
    7       -8.408597   1.000000
    8       -8.338007   1.000000
    9       -8.183604   1.000000
   10       -8.128260   1.000000
   11       -8.038373   1.000000
   12       -7.837006   1.000000
   13       -7.609378   1.000000
   14       -7.320357   1.000000
   15       -7.212115   1.000000
   16       -6.736783   1.000000
   17       -6.704226   1.000000
   18       -6.577659   1.000000
   19       -6.505103   1.000000
   20       -6.136771   1.000000
   21       -6.055431   1.000000
   22       -6.032439   1.000000
   23       -5.852351   1.000000
   24       -5.702890   1.000000
   25       -5.606895   1.000000
   26       -5.592671   1.000000
   27       -5.396422   1.000000
   28       -5.191856   1.000000
   29       -5.125602   1.000000
   30       -4.932070   1.000000
   31       -4.491456   1.000000
   32       -4.286704   1.000000
   33       -3.909650   1.000000
   34       -3.891949   1.000000
   35       -3.740246   1.000000
   36       -3.731871   1.000000
   37       -3.416200   1.000000
   38       -3.390426   1.000000
   39       -3.191404   1.000000
   40       -3.170472   1.000000
   41       -3.043550   1.000000
   42       -2.875080   1.000000
   43       -2.512941   1.000000
   44       -2.512336   1.000000
   45       -2.351160   1.000000
   46       -2.335295   1.000000
   47       -2.232793   1.000000
   48       -2.201308   1.000000
   49       -2.049764   1.000000
   50       -2.017394   1.000000
   51       -1.846804   1.000000
   52       -1.714832   1.000000
   53       -1.698608   1.000000
   54       -1.660492   1.000000
   55       -1.577834   1.000000
   56       -1.559362   1.000000
   57       -1.458995   1.000000
   58       -1.313299   1.000000
   59       -1.251287   1.000000
   60       -1.182075   1.000000
   61       -1.169133   1.000000
   62       -1.131300   1.000000
   63       -1.127266   1.000000
   64       -1.024108   1.000000
   65       -1.018208   1.000000
   66       -0.982628   1.000000
   67       -0.775979   1.000000
   68       -0.678579   1.000000
   69       -0.663850   1.000000
   70       -0.579018   1.000000
   71       -0.520513   1.000000
   72       -0.488649   1.000000
   73       -0.338360   1.000000
   74       -0.271475   1.000000
   75       -0.195823   1.000000
   76        0.043446   1.000000
   77        0.144263   1.000000
   78        0.255042   1.000000
   79        0.295912   1.000000
   80        0.421941   1.000000
   81        0.521400   1.000000
   82        0.619727   1.000000
   83        0.731907   1.000000
   84        1.001893   1.000000
   85        1.157056   1.000000
   86        1.262528   1.000000
   87        1.448267   1.000000
   88        1.466147   1.000000
   89        1.552085   1.000000
   90        1.553252   1.000000
   91        1.670142   1.000000
   92        1.719913   1.000000
   93        1.762308   1.000000
   94        1.945368   1.000003
   95        2.144348   1.000878
   96        2.220436   1.004274
   97        2.631572   0.604796
   98        2.673726   0.427633