   76   76    1    1
  0.2054817E+02  0.1053953E-08  0.6141200E-09  0.2412750E-08  0.5000000E-15
   1.0000000000000000E-004
  CAR 
 Name                                    
    286     23    184

  0.3742002E-15  0.3742002E-15  0.1262379E-14  0.2222222E-01
    1      -13.717713   1.000000
    2      -12.566749   1.000000
    3      -12.560238   1.000000
    4      -12.553323   1.000000
    5      -11.608818   1.000000
    6      -11.545199   1.000000
    7      -11.381098   1.000000
    8      -11.334928   1.000000
    9      -11.224672   1.000000
   10      -11.131978   1.000000
   11      -11.078541   1.000000
   12      -10.850439   1.000000
   13      -10.783429   1.000000
   14      -10.455718   1.000000
   15      -10.438301   1.000000
   16      -10.415446   1.000000
   17      -10.347372   1.000000
   18       -9.987842   1.000000
   19       -9.920157   1.000000
   20       -9.801712   1.000000
   21       -9.798120   1.000000
   22       -9.504204   1.000000
   23       -9.389789   1.000000
   24       -9.280702   1.000000
   25       -9.235863   1.000000
   26       -8.781069   1.000000
   27       -8.737986   1.000000
   28       -8.646551   1.000000
   29       -8.194097   1.000000
   30       -8.154839   1.000000
   31       -7.887450   1.000000
   32       -7.608312   1.000000
   33       -7.583438   1.000000
   34       -7.582838   1.000000
   35       -7.534422   1.000000
   36       -7.468885   1.000000
   37       -6.988061   1.000000
   38       -6.819981   1.000000
   39       -6.668349   1.000000
   40       -6.577322   1.000000
   41       -6.476541   1.000000
   42       -6.470956   1.000000
   43       -6.380151   1.000000
   44       -6.331917   1.000000
   45       -6.295953   1.000000
   46       -6.230326   1.000000
   47       -6.170675   1.000000
   48       -6.058871   1.000000
   49       -6.012069   1.000000
   50       -5.941660   1.000000
   51       -5.900552   1.000000
   52       -5.759525   1.000000
   53       -5.731806   1.000000
   54       -5.593431   1.000000
   55       -5.546743   1.000000
   56       -5.439225   1.000000
   57       -5.298331   1.000000
   58       -5.289518   1.000000
   59       -5.215644   1.000000
   60       -5.145814   1.000000
   61       -5.066362   1.000000
   62       -5.041342   1.000000
   63       -4.962090   1.000000
   64       -4.852222   1.000000
   65       -4.714288   1.000000
   66       -4.442007   1.000000
   67       -4.428781   1.000000
   68       -4.426956   1.000000
   69       -4.421425   1.000000
   70       -4.355021   1.000000
   71       -4.311576   1.000000
   72       -4.212879   1.000000
   73       -4.163882   1.000000
   74       -4.092469   1.000000
   75       -3.936771   1.000000
   76       -3.856414   1.000000
   77       -3.793469   1.000000
   78       -3.791665   1.000000
   79       -3.711067   1.000000
   80       -3.663436   1.000000
   81       -3.659820   1.000000
   82       -3.643071   1.000000
   83       -3.635928   1.000000
   84       -3.593216   1.000000
   85       -3.543757   1.000000
   86       -3.498017   1.000000
   87       -3.422063   1.000000
   88       -3.371315   1.000000
   89       -3.339814   1.000000
   90       -3.288813   1.000000
   91       -3.276705   1.000000
   92       -2.989211   1.000000
   93       -2.966638   1.000000
   94       -2.934769   1.000000
   95       -2.813601   1.000000
   96       -2.810262   1.000000
   97       -2.767310   1.000000
   98       -2.750232   1.000000
   99       -2.554622   1.000000
  100       -2.485951   1.000000
  101       -2.440278   1.000000
  102       -2.389316   1.000000
  103       -2.373844   1.000000
  104       -2.278993   1.000000
  105       -2.138277   1.000000
  106       -2.095923   1.000000
  107       -2.091673   1.000000
  108       -2.052082   1.000000
  109       -2.011696   1.000000
  110       -1.958878   1.000000
  111       -1.896050   1.000000
  112       -1.851999   1.000000
  113       -1.840365   1.000000
  114       -1.658197   1.000000
  115       -1.645341   1.000000
  116       -1.448968   1.000000
  117       -1.439727   1.000000
  118       -1.362477   1.000000
  119       -1.334056   1.000000
  120       -1.222031   1.000000
  121       -1.197109   1.000000
  122       -1.135983   1.000000
  123       -0.925143   1.000000
  124       -0.784607   1.000000
  125       -0.735339   1.000000
  126       -0.552439   1.000000
  127       -0.496146   1.000000
  128       -0.397029   1.000000
  129       -0.206862   1.000000
  130       -0.175503   1.000000
  131       -0.099626   1.000000
  132        0.074617   1.000000
  133        0.098352   1.000000
  134        0.110022   1.000000
  135        0.331914   1.000000
  136        0.464857   1.000026
  137        0.481038   1.000067
  138        0.507606   1.000285
  139        0.575391   1.005436
  140        0.582202   1.006873
  141        0.604663   1.013625
  142        0.698911   1.007560
  143        0.769753   0.641921
  144        0.828541   0.178536
  145        0.887472  -0.025816
  146        0.893181  -0.030548
  147        0.924259  -0.032658
  148        0.946525  -0.023191
  149        1.055490  -0.000482
  150        1.107488  -0.000028
  151        1.168000  -0.000000
  152        1.307134  -0.000000
  153        1.385110  -0.000000
  154        1.453537  -0.000000
  155        1.482003  -0.000000
  156        1.541066  -0.000000
  157        1.562495  -0.000000
  158        1.573880  -0.000000
  159        1.623163  -0.000000
  160        1.638134  -0.000000
  161        1.649138  -0.000000
  162        1.715164  -0.000000
  163        1.717819  -0.000000
  164        1.787943  -0.000000
  165        1.859747  -0.000000
  166        1.929125  -0.000000
  167        1.961481  -0.000000
  168        2.008797  -0.000000
  169        2.018861  -0.000000
  170        2.044984  -0.000000
  171        2.052964  -0.000000
  172        2.063192  -0.000000
  173        2.125011  -0.000000
  174        2.231669  -0.000000
  175        2.337122  -0.000000
  176        2.344799  -0.000000
  177        2.350552  -0.000000
  178        2.428139  -0.000000
  179        2.637593  -0.000000
  180        2.677350  -0.000000
  181        2.829609  -0.000000
  182        3.029947  -0.000000
  183        3.112790  -0.000000
  184        4.042019   0.000000

  0.2000000E+00  0.3742002E-15  0.1262379E-14  0.4444444E-01
    1      -13.669201   1.000000
    2      -12.963600   1.000000
    3      -12.516150   1.000000
    4      -12.096061   1.000000
    5      -11.863697   1.000000
    6      -11.534795   1.000000
    7      -11.381556   1.000000
    8      -11.192653   1.000000
    9      -11.093433   1.000000
   10      -11.072300   1.000000
   11      -11.071153   1.000000
   12      -10.893010   1.000000
   13      -10.698877   1.000000
   14      -10.530687   1.000000
   15      -10.522545   1.000000
   16      -10.386448   1.000000
   17      -10.376188   1.000000
   18      -10.343293   1.000000
   19       -9.934460   1.000000
   20       -9.894506   1.000000
   21       -9.787807   1.000000
   22       -9.409080   1.000000
   23       -9.244074   1.000000
   24       -9.238767   1.000000
   25       -9.193337   1.000000
   26       -8.978639   1.000000
   27       -8.650257   1.000000
   28       -8.315194   1.000000
   29       -8.192235   1.000000
   30       -8.097383   1.000000
   31       -7.978061   1.000000
   32       -7.821645   1.000000
   33       -7.654407   1.000000
   34       -7.494382   1.000000
   35       -7.426321   1.000000
   36       -7.255162   1.000000
   37       -7.232841   1.000000
   38       -6.913632   1.000000
   39       -6.854443   1.000000
   40       -6.618509   1.000000
   41       -6.603674   1.000000
   42       -6.450429   1.000000
   43       -6.440494   1.000000
   44       -6.391526   1.000000
   45       -6.365244   1.000000
   46       -6.242438   1.000000
   47       -5.985859   1.000000
   48       -5.918491   1.000000
   49       -5.903879   1.000000
   50       -5.889745   1.000000
   51       -5.791968   1.000000
   52       -5.750541   1.000000
   53       -5.735495   1.000000
   54       -5.638959   1.000000
   55       -5.469831   1.000000
   56       -5.328789   1.000000
   57       -5.320030   1.000000
   58       -5.214413   1.000000
   59       -5.198819   1.000000
   60       -5.134547   1.000000
   61       -5.098635   1.000000
   62       -5.048699   1.000000
   63       -5.024175   1.000000
   64       -4.897270   1.000000
   65       -4.770138   1.000000
   66       -4.481533   1.000000
   67       -4.426973   1.000000
   68       -4.416551   1.000000
   69       -4.416224   1.000000
   70       -4.371320   1.000000
   71       -4.311173   1.000000
   72       -4.275972   1.000000
   73       -4.040486   1.000000
   74       -4.034946   1.000000
   75       -3.925448   1.000000
   76       -3.923514   1.000000
   77       -3.851537   1.000000
   78       -3.837233   1.000000
   79       -3.702988   1.000000
   80       -3.699631   1.000000
   81       -3.662259   1.000000
   82       -3.660411   1.000000
   83       -3.654754   1.000000
   84       -3.637315   1.000000
   85       -3.542811   1.000000
   86       -3.381321   1.000000
   87       -3.373257   1.000000
   88       -3.321338   1.000000
   89       -3.320435   1.000000
   90       -3.302241   1.000000
   91       -3.184716   1.000000
   92       -3.110114   1.000000
   93       -3.009830   1.000000
   94       -2.899978   1.000000
   95       -2.875383   1.000000
   96       -2.875207   1.000000
   97       -2.847192   1.000000
   98       -2.730098   1.000000
   99       -2.552625   1.000000
  100       -2.494218   1.000000
  101       -2.472172   1.000000
  102       -2.390508   1.000000
  103       -2.365437   1.000000
  104       -2.259619   1.000000
  105       -2.220064   1.000000
  106       -2.118732   1.000000
  107       -1.982314   1.000000
  108       -1.981032   1.000000
  109       -1.940236   1.000000
  110       -1.922114   1.000000
  111       -1.883297   1.000000
  112       -1.846774   1.000000
  113       -1.772590   1.000000
  114       -1.634816   1.000000
  115       -1.526562   1.000000
  116       -1.497724   1.000000
  117       -1.481021   1.000000
  118       -1.359732   1.000000
  119       -1.219943   1.000000
  120       -1.212150   1.000000
  121       -1.173178   1.000000
  122       -1.070354   1.000000
  123       -1.009934   1.000000
  124       -0.836040   1.000000
  125       -0.815181   1.000000
  126       -0.589729   1.000000
  127       -0.563443   1.000000
  128       -0.272732   1.000000
  129       -0.266011   1.000000
  130       -0.235982   1.000000
  131       -0.199273   1.000000
  132       -0.177977   1.000000
  133        0.022599   1.000000
  134        0.094150   1.000000
  135        0.205106   1.000000
  136        0.321398   1.000000
  137        0.424026   1.000002
  138        0.537468   1.001193
  139        0.550176   1.002062
  140        0.642269   1.030008
  141        0.656282   1.034567
  142        0.800491   0.385288
  143        0.885156  -0.023342
  144        0.926828  -0.031760
  145        0.932655  -0.029452
  146        0.945333  -0.023742
  147        0.956434  -0.018705
  148        0.967184  -0.014282
  149        0.972797  -0.012233
  150        1.055806  -0.000475
  151        1.130680  -0.000007
  152        1.392944  -0.000000
  153        1.453418  -0.000000
  154        1.494712  -0.000000
  155        1.512992  -0.000000
  156        1.563906  -0.000000
  157        1.578014  -0.000000
  158        1.598091  -0.000000
  159        1.634633  -0.000000
  160        1.672086  -0.000000
  161        1.692944  -0.000000
  162        1.774049  -0.000000
  163        1.774296  -0.000000
  164        1.791747  -0.000000
  165        1.876328  -0.000000
  166        1.929217  -0.000000
  167        1.958617  -0.000000
  168        1.981814  -0.000000
  169        2.031723  -0.000000
  170        2.036608  -0.000000
  171        2.114114  -0.000000
  172        2.130655  -0.000000
  173        2.146947  -0.000000
  174        2.191442  -0.000000
  175        2.267404  -0.000000
  176        2.323765  -0.000000
  177        2.455387  -0.000000
  178        2.481013  -0.000000
  179        2.510861  -0.000000
  180        2.820350  -0.000000
  181        2.994154  -0.000000
  182        3.074619  -0.000000
  183        3.127312  -0.000000
  184        3.909293   0.000000

  0.4000000E+00  0.3742002E-15  0.1262379E-14  0.4444444E-01
    1      -13.524784   1.000000
    2      -13.287768   1.000000
    3      -12.385180   1.000000
    4      -12.172742   1.000000
    5      -11.544591   1.000000
    6      -11.503299   1.000000
    7      -11.450628   1.000000
    8      -11.128438   1.000000
    9      -11.053891   1.000000
   10      -11.031414   1.000000
   11      -10.954366   1.000000
   12      -10.907283   1.000000
   13      -10.837446   1.000000
   14      -10.676337   1.000000
   15      -10.572462   1.000000
   16      -10.456249   1.000000
   17      -10.407917   1.000000
   18      -10.295797   1.000000
   19      -10.138131   1.000000
   20      -10.037920   1.000000
   21       -9.662358   1.000000
   22       -9.562519   1.000000
   23       -9.304785   1.000000
   24       -9.254727   1.000000
   25       -9.034528   1.000000
   26       -8.746647   1.000000
   27       -8.333229   1.000000
   28       -8.259852   1.000000
   29       -8.218856   1.000000
   30       -7.958928   1.000000
   31       -7.957895   1.000000
   32       -7.913431   1.000000
   33       -7.627887   1.000000
   34       -7.608769   1.000000
   35       -7.474985   1.000000
   36       -7.316244   1.000000
   37       -7.254617   1.000000
   38       -7.153695   1.000000
   39       -6.969265   1.000000
   40       -6.923058   1.000000
   41       -6.669800   1.000000
   42       -6.441772   1.000000
   43       -6.327336   1.000000
   44       -6.284076   1.000000
   45       -6.283059   1.000000
   46       -6.202438   1.000000
   47       -6.063079   1.000000
   48       -5.925926   1.000000
   49       -5.903745   1.000000
   50       -5.824260   1.000000
   51       -5.732143   1.000000
   52       -5.679174   1.000000
   53       -5.593374   1.000000
   54       -5.593089   1.000000
   55       -5.422420   1.000000
   56       -5.396280   1.000000
   57       -5.392115   1.000000
   58       -5.248785   1.000000
   59       -5.152872   1.000000
   60       -5.093406   1.000000
   61       -5.060997   1.000000
   62       -5.031994   1.000000
   63       -4.853229   1.000000
   64       -4.731675   1.000000
   65       -4.673520   1.000000
   66       -4.606013   1.000000
   67       -4.599509   1.000000
   68       -4.499328   1.000000
   69       -4.438565   1.000000
   70       -4.419566   1.000000
   71       -4.356145   1.000000
   72       -4.206431   1.000000
   73       -4.131860   1.000000
   74       -4.017907   1.000000
   75       -3.942843   1.000000
   76       -3.874737   1.000000
   77       -3.832095   1.000000
   78       -3.803990   1.000000
   79       -3.800122   1.000000
   80       -3.753340   1.000000
   81       -3.669751   1.000000
   82       -3.661227   1.000000
   83       -3.660017   1.000000
   84       -3.634106   1.000000
   85       -3.485773   1.000000
   86       -3.441419   1.000000
   87       -3.397939   1.000000
   88       -3.304863   1.000000
   89       -3.184916   1.000000
   90       -3.158680   1.000000
   91       -3.113771   1.000000
   92       -3.086258   1.000000
   93       -3.056317   1.000000
   94       -3.042976   1.000000
   95       -2.939025   1.000000
   96       -2.925521   1.000000
   97       -2.922839   1.000000
   98       -2.703113   1.000000
   99       -2.692851   1.000000
  100       -2.641713   1.000000
  101       -2.540236   1.000000
  102       -2.403229   1.000000
  103       -2.297965   1.000000
  104       -2.247644   1.000000
  105       -2.131425   1.000000
  106       -2.019661   1.000000
  107       -2.014627   1.000000
  108       -1.973617   1.000000
  109       -1.887484   1.000000
  110       -1.862425   1.000000
  111       -1.793476   1.000000
  112       -1.626236   1.000000
  113       -1.580236   1.000000
  114       -1.572607   1.000000
  115       -1.533708   1.000000
  116       -1.524648   1.000000
  117       -1.523512   1.000000
  118       -1.366457   1.000000
  119       -1.216902   1.000000
  120       -1.113378   1.000000
  121       -1.099885   1.000000
  122       -0.954797   1.000000
  123       -0.936968   1.000000
  124       -0.936663   1.000000
  125       -0.884505   1.000000
  126       -0.701484   1.000000
  127       -0.688533   1.000000
  128       -0.617256   1.000000
  129       -0.581964   1.000000
  130       -0.371766   1.000000
  131       -0.184551   1.000000
  132       -0.181490   1.000000
  133       -0.026890   1.000000
  134        0.095008   1.000000
  135        0.129274   1.000000
  136        0.293557   1.000000
  137        0.366965   1.000000
  138        0.509018   1.000306
  139        0.511542   1.000348
  140        0.576867   1.005725
  141        0.634522   1.026628
  142        0.772287   0.621351
  143        0.870396   0.001305
  144        0.904794  -0.035130
  145        0.973045  -0.012147
  146        0.979472  -0.010055
  147        1.002480  -0.004663
  148        1.037412  -0.001126
  149        1.073057  -0.000197
  150        1.237951  -0.000000
  151        1.244138  -0.000000
  152        1.326450  -0.000000
  153        1.408491  -0.000000
  154        1.524208  -0.000000
  155        1.612913  -0.000000
  156        1.644239  -0.000000
  157        1.688544  -0.000000
  158        1.758343  -0.000000
  159        1.772051  -0.000000
  160        1.776316  -0.000000
  161        1.778211  -0.000000
  162        1.792864  -0.000000
  163        1.826193  -0.000000
  164        1.841194  -0.000000
  165        1.907286  -0.000000
  166        1.940339  -0.000000
  167        1.942298  -0.000000
  168        1.955056  -0.000000
  169        2.028530  -0.000000
  170        2.037875  -0.000000
  171        2.081648  -0.000000
  172        2.088238  -0.000000
  173        2.199797  -0.000000
  174        2.274903  -0.000000
  175        2.291618  -0.000000
  176        2.312955  -0.000000
  177        2.434886  -0.000000
  178        2.589789  -0.000000
  179        2.807523  -0.000000
  180        2.835486  -0.000000
  181        3.032068  -0.000000
  182        3.295881  -0.000000
  183        3.374648  -0.000000
  184        3.554102   0.000000

  0.3742002E-15  0.1111111E+00  0.1262379E-14  0.4444444E-01
    1      -13.670921   1.000000
    2      -12.527224   1.000000
    3      -12.521156   1.000000
    4      -12.519996   1.000000
    5      -11.653815   1.000000
    6      -11.577216   1.000000
    7      -11.373042   1.000000
    8      -11.350823   1.000000
    9      -11.198166   1.000000
   10      -11.173108   1.000000
   11      -11.127398   1.000000
   12      -10.856943   1.000000
   13      -10.794328   1.000000
   14      -10.438762   1.000000
   15      -10.428142   1.000000
   16      -10.427709   1.000000
   17      -10.373529   1.000000
   18       -9.960300   1.000000
   19       -9.895234   1.000000
   20       -9.806371   1.000000
   21       -9.780491   1.000000
   22       -9.478071   1.000000
   23       -9.424532   1.000000
   24       -9.265173   1.000000
   25       -9.243189   1.000000
   26       -8.801325   1.000000
   27       -8.715198   1.000000
   28       -8.668206   1.000000
   29       -8.198786   1.000000
   30       -8.134557   1.000000
   31       -7.759350   1.000000
   32       -7.639100   1.000000
   33       -7.620640   1.000000
   34       -7.597598   1.000000
   35       -7.560109   1.000000
   36       -7.451374   1.000000
   37       -7.099165   1.000000
   38       -6.795965   1.000000
   39       -6.658058   1.000000
   40       -6.646534   1.000000
   41       -6.413980   1.000000
   42       -6.412131   1.000000
   43       -6.390377   1.000000
   44       -6.334566   1.000000
   45       -6.300464   1.000000
   46       -6.207191   1.000000
   47       -6.187810   1.000000
   48       -6.039826   1.000000
   49       -6.027081   1.000000
   50       -5.941228   1.000000
   51       -5.910498   1.000000
   52       -5.815453   1.000000
   53       -5.687028   1.000000
   54       -5.552327   1.000000
   55       -5.540520   1.000000
   56       -5.399166   1.000000
   57       -5.321145   1.000000
   58       -5.279382   1.000000
   59       -5.201827   1.000000
   60       -5.122788   1.000000
   61       -5.001228   1.000000
   62       -4.975364   1.000000
   63       -4.924349   1.000000
   64       -4.871724   1.000000
   65       -4.725111   1.000000
   66       -4.512173   1.000000
   67       -4.410186   1.000000
   68       -4.408021   1.000000
   69       -4.353742   1.000000
   70       -4.346028   1.000000
   71       -4.299640   1.000000
   72       -4.175068   1.000000
   73       -4.135064   1.000000
   74       -4.096029   1.000000
   75       -3.962780   1.000000
   76       -3.882484   1.000000
   77       -3.812509   1.000000
   78       -3.791188   1.000000
   79       -3.782401   1.000000
   80       -3.735682   1.000000
   81       -3.728466   1.000000
   82       -3.724393   1.000000
   83       -3.704718   1.000000
   84       -3.598590   1.000000
   85       -3.501681   1.000000
   86       -3.500902   1.000000
   87       -3.422650   1.000000
   88       -3.401708   1.000000
   89       -3.327147   1.000000
   90       -3.280815   1.000000
   91       -3.250819   1.000000
   92       -3.156643   1.000000
   93       -2.988312   1.000000
   94       -2.935374   1.000000
   95       -2.846393   1.000000
   96       -2.740078   1.000000
   97       -2.723459   1.000000
   98       -2.612725   1.000000
   99       -2.548310   1.000000
  100       -2.504574   1.000000
  101       -2.435785   1.000000
  102       -2.402703   1.000000
  103       -2.359073   1.000000
  104       -2.348270   1.000000
  105       -2.227738   1.000000
  106       -2.087991   1.000000
  107       -2.078187   1.000000
  108       -2.065586   1.000000
  109       -2.019378   1.000000
  110       -1.958041   1.000000
  111       -1.929171   1.000000
  112       -1.912719   1.000000
  113       -1.754826   1.000000
  114       -1.695219   1.000000
  115       -1.653060   1.000000
  116       -1.471469   1.000000
  117       -1.470856   1.000000
  118       -1.318406   1.000000
  119       -1.301603   1.000000
  120       -1.239627   1.000000
  121       -1.133317   1.000000
  122       -1.042978   1.000000
  123       -0.948905   1.000000
  124       -0.919276   1.000000
  125       -0.701693   1.000000
  126       -0.619928   1.000000
  127       -0.436881   1.000000
  128       -0.407440   1.000000
  129       -0.405259   1.000000
  130       -0.192621   1.000000
  131       -0.048510   1.000000
  132        0.015957   1.000000
  133        0.053751   1.000000
  134        0.183761   1.000000
  135        0.321498   1.000000
  136        0.327902   1.000000
  137        0.444447   1.000007
  138        0.463612   1.000024
  139        0.534555   1.001047
  140        0.579312   1.006231
  141        0.621250   1.020527
  142        0.684630   1.027230
  143        0.712949   0.972588
  144        0.868776   0.005057
  145        0.872632  -0.003511
  146        0.891864  -0.029619
  147        0.985165  -0.008424
  148        1.058802  -0.000410
  149        1.065766  -0.000288
  150        1.187586  -0.000000
  151        1.276633  -0.000000
  152        1.330721  -0.000000
  153        1.370610  -0.000000
  154        1.413896  -0.000000
  155        1.487404  -0.000000
  156        1.552330  -0.000000
  157        1.577899  -0.000000
  158        1.591294  -0.000000
  159        1.591607  -0.000000
  160        1.727265  -0.000000
  161        1.729627  -0.000000
  162        1.758042  -0.000000
  163        1.765506  -0.000000
  164        1.766281  -0.000000
  165        1.865114  -0.000000
  166        1.887950  -0.000000
  167        1.917025  -0.000000
  168        1.944410  -0.000000
  169        2.037504  -0.000000
  170        2.058533  -0.000000
  171        2.064664  -0.000000
  172        2.100001  -0.000000
  173        2.111412  -0.000000
  174        2.170293  -0.000000
  175        2.180726  -0.000000
  176        2.232149  -0.000000
  177        2.276729  -0.000000
  178        2.301333  -0.000000
  179        2.342488  -0.000000
  180        2.431570  -0.000000
  181        2.485514  -0.000000
  182        2.657113  -0.000000
  183        3.036324  -0.000000
  184        3.978240   0.000000

  0.2000000E+00  0.1111111E+00  0.1262379E-14  0.4444444E-01
    1      -13.622812   1.000000
    2      -12.923383   1.000000
    3      -12.477494   1.000000
    4      -12.063897   1.000000
    5      -11.832535   1.000000
    6      -11.635671   1.000000
    7      -11.436156   1.000000
    8      -11.166662   1.000000
    9      -11.118822   1.000000
   10      -11.094287   1.000000
   11      -11.065476   1.000000
   12      -10.915610   1.000000
   13      -10.698639   1.000000
   14      -10.530937   1.000000
   15      -10.496232   1.000000
   16      -10.401463   1.000000
   17      -10.397744   1.000000
   18      -10.317942   1.000000
   19       -9.935966   1.000000
   20       -9.889838   1.000000
   21       -9.769871   1.000000
   22       -9.401665   1.000000
   23       -9.267627   1.000000
   24       -9.205148   1.000000
   25       -9.184199   1.000000
   26       -8.988234   1.000000
   27       -8.663722   1.000000
   28       -8.311972   1.000000
   29       -8.195270   1.000000
   30       -8.091513   1.000000
   31       -7.970820   1.000000
   32       -7.712065   1.000000
   33       -7.690793   1.000000
   34       -7.549898   1.000000
   35       -7.408692   1.000000
   36       -7.310885   1.000000
   37       -7.238564   1.000000
   38       -6.847887   1.000000
   39       -6.845919   1.000000
   40       -6.662470   1.000000
   41       -6.575642   1.000000
   42       -6.446829   1.000000
   43       -6.445387   1.000000
   44       -6.362179   1.000000
   45       -6.349297   1.000000
   46       -6.341778   1.000000
   47       -6.073521   1.000000
   48       -6.017185   1.000000
   49       -5.936373   1.000000
   50       -5.811883   1.000000
   51       -5.799855   1.000000
   52       -5.679563   1.000000
   53       -5.626683   1.000000
   54       -5.618664   1.000000
   55       -5.491307   1.000000
   56       -5.342392   1.000000
   57       -5.264459   1.000000
   58       -5.217405   1.000000
   59       -5.211010   1.000000
   60       -5.109561   1.000000
   61       -5.050842   1.000000
   62       -4.986248   1.000000
   63       -4.981617   1.000000
   64       -4.893143   1.000000
   65       -4.744813   1.000000
   66       -4.478948   1.000000
   67       -4.438977   1.000000
   68       -4.436187   1.000000
   69       -4.377995   1.000000
   70       -4.294387   1.000000
   71       -4.280843   1.000000
   72       -4.253871   1.000000
   73       -4.069367   1.000000
   74       -4.051908   1.000000
   75       -3.948095   1.000000
   76       -3.891166   1.000000
   77       -3.866691   1.000000
   78       -3.843606   1.000000
   79       -3.841377   1.000000
   80       -3.757986   1.000000
   81       -3.738926   1.000000
   82       -3.725576   1.000000
   83       -3.674762   1.000000
   84       -3.573474   1.000000
   85       -3.569187   1.000000
   86       -3.437185   1.000000
   87       -3.377096   1.000000
   88       -3.350327   1.000000
   89       -3.325089   1.000000
   90       -3.265670   1.000000
   91       -3.172093   1.000000
   92       -3.166800   1.000000
   93       -2.987581   1.000000
   94       -2.957181   1.000000
   95       -2.933241   1.000000
   96       -2.791829   1.000000
   97       -2.728939   1.000000
   98       -2.713178   1.000000
   99       -2.608209   1.000000
  100       -2.560274   1.000000
  101       -2.485811   1.000000
  102       -2.373688   1.000000
  103       -2.337484   1.000000
  104       -2.276819   1.000000
  105       -2.253734   1.000000
  106       -2.213759   1.000000
  107       -1.982762   1.000000
  108       -1.955975   1.000000
  109       -1.921835   1.000000
  110       -1.921100   1.000000
  111       -1.879834   1.000000
  112       -1.803921   1.000000
  113       -1.776898   1.000000
  114       -1.651969   1.000000
  115       -1.626650   1.000000
  116       -1.497655   1.000000
  117       -1.487180   1.000000
  118       -1.403202   1.000000
  119       -1.231086   1.000000
  120       -1.208711   1.000000
  121       -1.091661   1.000000
  122       -1.060390   1.000000
  123       -1.049959   1.000000
  124       -0.974032   1.000000
  125       -0.782266   1.000000
  126       -0.651392   1.000000
  127       -0.519699   1.000000
  128       -0.499643   1.000000
  129       -0.238156   1.000000
  130       -0.172209   1.000000
  131       -0.157729   1.000000
  132       -0.005045   1.000000
  133        0.033845   1.000000
  134        0.171585   1.000000
  135        0.270166   1.000000
  136        0.313169   1.000000
  137        0.354712   1.000000
  138        0.398460   1.000000
  139        0.461712   1.000021
  140        0.597578   1.011149
  141        0.724640   0.929450
  142        0.759592   0.721039
  143        0.764055   0.687030
  144        0.799815   0.390846
  145        0.869228   0.003986
  146        0.920607  -0.033768
  147        0.931048  -0.030120
  148        1.115644  -0.000017
  149        1.144096  -0.000003
  150        1.189184  -0.000000
  151        1.226847  -0.000000
  152        1.341561  -0.000000
  153        1.383844  -0.000000
  154        1.497563  -0.000000
  155        1.579513  -0.000000
  156        1.608784  -0.000000
  157        1.615556  -0.000000