 running on   72 total cores
 distrk:  each k-point on   72 cores,    1 groups
 distr:  one band on    9 cores,    8 groups
 using from now: INCAR     
 vasp.5.4.4.18Apr17-6-g9f103f2a35 (build Dec  7 2020 12:43:57) complex           
 POSCAR found type information on POSCAR  Mo V  B  H 
 POSCAR found :  4 types and      76 ions
 scaLAPACK will be used

 ----------------------------------------------------------------------------- 
|                                                                             |
|  ADVICE TO THIS USER RUNNING 'VASP/VAMP'   (HEAR YOUR MASTER'S VOICE ...):  |
|                                                                             |
|      You enforced a specific xc-type in the INCAR file,                     |
|      a different type was found on the POTCAR file                          |
|          I HOPE YOU KNOW, WHAT YOU ARE  DOING                               |
|                                                                             |
 ----------------------------------------------------------------------------- 

 LDA part: xc-table for Pade appr. of Perdew
 POSCAR, INCAR and KPOINTS ok, starting setup
 resort distribution
 resort distribution
 resort distribution
 resort distribution
 resort distribution
 resort distribution
 resort distribution
 resort distribution
 resort distribution
 resort distribution
 resort distribution
 resort distribution
 resort distribution
 resort distribution
 resort distribution
 resort distribution
 resort distribution
 resort distribution
 resort distribution
 resort distribution
 resort distribution
 resort distribution
 resort distribution
 resort distribution
 resort distribution
 resort distribution
 resort distribution
 resort distribution
 resort distribution
 resort distribution
 resort distribution
 resort distribution
 resort distribution
 resort distribution
 resort distribution
 resort distribution
 resort distribution
 resort distribution
 resort distribution
 resort distribution
 resort distribution
 resort distribution
 resort distribution
 resort distribution
 resort distribution
 resort distribution
 resort distribution
 resort distribution
 resort distribution
 resort distribution
 resort distribution
 resort distribution
 resort distribution
 resort distribution
 resort distribution
 resort distribution
 resort distribution
 resort distribution
 resort distribution
 resort distribution
 resort distribution
 resort distribution
 resort distribution
 resort distribution
 resort distribution
 resort distribution
 resort distribution
 resort distribution
 resort distribution
 resort distribution
 resort distribution
 resort distribution
 FFT: planning ...
 WAVECAR not read
 augmentation electrons   286.03527046109468     
 soft         electrons   0.0000000000000000     
 augmentation electrons   286.03527046109468     
 soft         electrons   0.0000000000000000     
 augmentation electrons   286.03527046109468     
 soft         electrons   0.0000000000000000     
 augmentation electrons   286.03527046109468     
 soft         electrons   0.0000000000000000     
 augmentation electrons   286.03527046109468     
 soft         electrons   0.0000000000000000     
 augmentation electrons   286.03527046109468     
 soft         electrons   0.0000000000000000     
 augmentation electrons   286.03527046109468     
 soft         electrons   0.0000000000000000     
 augmentation electrons   286.03527046109468     
 soft         electrons   0.0000000000000000     
 augmentation electrons   286.03527046109468     
 soft         electrons   0.0000000000000000     
 augmentation electrons   286.03527046109468     
 soft         electrons   0.0000000000000000     
 augmentation electrons   286.03527046109468     
 soft         electrons   0.0000000000000000     
 augmentation electrons   286.03527046109468     
 soft         electrons   0.0000000000000000     
 augmentation electrons   286.03527046109468     
 soft         electrons   0.0000000000000000     
 augmentation electrons   286.03527046109468     
 soft         electrons   0.0000000000000000     
 augmentation electrons   286.03527046109468     
 soft         electrons   0.0000000000000000     
 augmentation electrons   286.03527046109468     
 soft         electrons   0.0000000000000000     
 augmentation electrons   286.03527046109468     
 soft         electrons   0.0000000000000000     
 augmentation electrons   286.03527046109468     
 soft         electrons   0.0000000000000000     
 augmentation electrons   286.03527046109468     
 soft         electrons   0.0000000000000000     
 augmentation electrons   286.03527046109468     
 soft         electrons   0.0000000000000000     
 augmentation electrons   286.03527046109468     
 soft         electrons   0.0000000000000000     
 augmentation electrons   286.03527046109468     
 soft         electrons   0.0000000000000000     
 augmentation electrons   286.03527046109468     
 soft         electrons   0.0000000000000000     
 augmentation electrons   286.03527046109468     
 soft         electrons   0.0000000000000000     
 augmentation electrons   286.03527046109468     
 soft         electrons   0.0000000000000000     
 augmentation electrons   286.03527046109468     
 soft         electrons   0.0000000000000000     
 augmentation electrons   286.03527046109468     
 soft         electrons   0.0000000000000000     
 augmentation electrons   286.03527046109468     
 soft         electrons   0.0000000000000000     
 augmentation electrons   286.03527046109468     
 soft         electrons   0.0000000000000000     
 augmentation electrons   286.03527046109468     
 soft         electrons   0.0000000000000000     
 augmentation electrons   286.03527046109468     
 soft         electrons   0.0000000000000000     
 augmentation electrons   286.03527046109468     
 soft         electrons   0.0000000000000000     
 augmentation electrons   286.03527046109468     
 soft         electrons   0.0000000000000000     
 augmentation electrons   286.03527046109468     
 soft         electrons   0.0000000000000000     
 augmentation electrons   286.03527046109468     
 soft         electrons   0.0000000000000000     
 augmentation electrons   286.03527046109468     
 soft         electrons   0.0000000000000000     
 augmentation electrons   286.03527046109468     
 soft         electrons   0.0000000000000000     
 augmentation electrons   286.03527046109468     
 soft         electrons   0.0000000000000000     
 augmentation electrons   286.03527046109468     
 soft         electrons   0.0000000000000000     
 augmentation electrons   286.03527046109468     
 soft         electrons   0.0000000000000000     
 augmentation electrons   286.03527046109468     
 soft         electrons   0.0000000000000000     
 augmentation electrons   286.03527046109468     
 soft         electrons   0.0000000000000000     
 augmentation electrons   286.03527046109468     
 soft         electrons   0.0000000000000000     
 augmentation electrons   286.03527046109468     
 soft         electrons   0.0000000000000000     
 augmentation electrons   286.03527046109468     
 soft         electrons   0.0000000000000000     
 augmentation electrons   286.03527046109468     
 soft         electrons   0.0000000000000000     
 augmentation electrons   286.03527046109468     
 soft         electrons   0.0000000000000000     
 augmentation electrons   286.03527046109468     
 soft         electrons   0.0000000000000000     
 augmentation electrons   286.03527046109468     
 soft         electrons   0.0000000000000000     
 augmentation electrons   286.03527046109468     
 soft         electrons   0.0000000000000000     
 augmentation electrons   286.03527046109468     
 soft         electrons   0.0000000000000000     
 augmentation electrons   286.03527046109468     
 soft         electrons   0.0000000000000000     
 augmentation electrons   286.03527046109468     
 augmentation electrons   286.03527046109468     
 soft         electrons   0.0000000000000000     
 augmentation electrons   286.03527046109468     
 soft         electrons   0.0000000000000000     
 augmentation electrons   286.03527046109468     
 soft         electrons   0.0000000000000000     
 augmentation electrons   286.03527046109468     
 soft         electrons   0.0000000000000000     
 augmentation electrons   286.03527046109468     
 soft         electrons   0.0000000000000000     
 augmentation electrons   286.03527046109468     
 soft         electrons   0.0000000000000000     
 augmentation electrons   286.03527046109468     
 soft         electrons   0.0000000000000000     
 soft         electrons   0.0000000000000000     
 augmentation electrons   286.03527046109468     
 soft         electrons   0.0000000000000000     
 augmentation electrons   286.03527046109468     
 soft         electrons   0.0000000000000000     
 augmentation electrons   286.03527046109468     
 soft         electrons   0.0000000000000000     
 augmentation electrons   286.03527046109468     
 soft         electrons   0.0000000000000000     
 augmentation electrons   286.03527046109468     
 soft         electrons   0.0000000000000000     
 augmentation electrons   286.03527046109468     
 soft         electrons   0.0000000000000000     
 augmentation electrons   286.03527046109468     
 soft         electrons   0.0000000000000000     
 augmentation electrons   286.03527046109468     
 soft         electrons   0.0000000000000000     
 augmentation electrons   286.03527046109468     
 soft         electrons   0.0000000000000000     
 augmentation electrons   286.03527046109468     
 soft         electrons   0.0000000000000000     
 augmentation electrons   286.03527046109468     
 soft         electrons   0.0000000000000000     
 augmentation electrons   286.03527046109468     
 soft         electrons   0.0000000000000000     
 total        electrons   286.03527046109468     
 total        electrons   286.03527046109468     
 total        electrons   286.03527046109468     
 total        electrons   286.03527046109468     
 total        electrons   286.03527046109468     
 total        electrons   286.03527046109468     
 total        electrons   286.03527046109468     
 total        electrons   286.03527046109468     
 total        electrons   286.03527046109468     
 total        electrons   286.03527046109468     
 total        electrons   286.03527046109468     
 total        electrons   286.03527046109468     
 total        electrons   286.03527046109468     
 total        electrons   286.03527046109468     
 total        electrons   286.03527046109468     
 total        electrons   286.03527046109468     
 total        electrons   286.03527046109468     
 total        electrons   286.03527046109468     
 total        electrons   286.03527046109468     
 total        electrons   286.03527046109468     
 total        electrons   286.03527046109468     
 total        electrons   286.03527046109468     
 total        electrons   286.03527046109468     
 total        electrons   286.03527046109468     
 total        electrons   286.03527046109468     
 total        electrons   286.03527046109468     
 total        electrons   286.03527046109468     
 total        electrons   286.03527046109468     
 total        electrons   286.03527046109468     
 total        electrons   286.03527046109468     
 total        electrons   286.03527046109468     
 total        electrons   286.03527046109468     
 total        electrons   286.03527046109468     
 total        electrons   286.03527046109468     
 total        electrons   286.03527046109468     
 total        electrons   286.03527046109468     
 total        electrons   286.03527046109468     
 total        electrons   286.03527046109468     
 total        electrons   286.03527046109468     
 total        electrons   286.03527046109468     
 total        electrons   286.03527046109468     
 total        electrons   286.03527046109468     
 total        electrons   286.03527046109468     
 total        electrons   286.03527046109468     
 total        electrons   286.03527046109468     
 total        electrons   286.03527046109468     
 total        electrons   286.03527046109468     
 total        electrons   286.03527046109468     
 total        electrons   286.03527046109468     
 total        electrons   286.03527046109468     
 total        electrons   286.03527046109468     
 total        electrons   286.03527046109468     
 total        electrons   286.03527046109468     
 total        electrons   286.03527046109468     
 total        electrons   286.03527046109468     
 total        electrons   286.03527046109468     
 total        electrons   286.03527046109468     
 total        electrons   286.03527046109468     
 total        electrons   286.03527046109468     
 total        electrons   286.03527046109468     
 total        electrons   286.03527046109468     
 total        electrons   286.03527046109468     
 total        electrons   286.03527046109468     
 total        electrons   286.03527046109468     
 total        electrons   286.03527046109468     
 total        electrons   286.03527046109468     
 total        electrons   286.03527046109468     
 total        electrons   286.03527046109468     
 total        electrons   286.03527046109468     
 total        electrons   286.03527046109468     
 total        electrons   286.03527046109468     
 total        electrons   286.03527046109468     
 augmentation electrons   1046.9897952800966     
 soft         electrons   0.0000000000000000     
 total        electrons   1046.9897952800966     
 augmentation electrons   1046.9897952800966     
 soft         electrons   0.0000000000000000     
 total        electrons   1046.9897952800966     
 augmentation electrons   1046.9897952800966     
 soft         electrons   0.0000000000000000     
 total        electrons   1046.9897952800966     
 augmentation electrons   1046.9897952800966     
 soft         electrons   0.0000000000000000     
 augmentation electrons   1046.9897952800966     
 soft         electrons   0.0000000000000000     
 total        electrons   1046.9897952800966     
 augmentation electrons   1046.9897952800966     
 soft         electrons   0.0000000000000000     
 total        electrons   1046.9897952800966     
 augmentation electrons   1046.9897952800966     
 soft         electrons   0.0000000000000000     
 augmentation electrons   1046.9897952800966     
 soft         electrons   0.0000000000000000     
 total        electrons   1046.9897952800966     
 augmentation electrons   1046.9897952800966     
 soft         electrons   0.0000000000000000     
 total        electrons   1046.9897952800966     
 augmentation electrons   1046.9897952800966     
 soft         electrons   0.0000000000000000     
 total        electrons   1046.9897952800966     
 augmentation electrons   1046.9897952800966     
 soft         electrons   0.0000000000000000     
 total        electrons   1046.9897952800966     
 augmentation electrons   1046.9897952800966     
 soft         electrons   0.0000000000000000     
 total        electrons   1046.9897952800966     
 augmentation electrons   1046.9897952800966     
 soft         electrons   0.0000000000000000     
 total        electrons   1046.9897952800966     
 augmentation electrons   1046.9897952800966     
 soft         electrons   0.0000000000000000     
 total        electrons   1046.9897952800966     
 augmentation electrons   1046.9897952800966     
 soft         electrons   0.0000000000000000     
 total        electrons   1046.9897952800966     
 augmentation electrons   1046.9897952800966     
 soft         electrons   0.0000000000000000     
 augmentation electrons   1046.9897952800966     
 soft         electrons   0.0000000000000000     
 total        electrons   1046.9897952800966     
 augmentation electrons   1046.9897952800966     
 soft         electrons   0.0000000000000000     
 total        electrons   1046.9897952800966     
 augmentation electrons   1046.9897952800966     
 soft         electrons   0.0000000000000000     
 total        electrons   1046.9897952800966     
 augmentation electrons   1046.9897952800966     
 soft         electrons   0.0000000000000000     
 total        electrons   1046.9897952800966     
 augmentation electrons   1046.9897952800966     
 soft         electrons   0.0000000000000000     
 augmentation electrons   1046.9897952800966     
 soft         electrons   0.0000000000000000     
 total        electrons   1046.9897952800966     
 augmentation electrons   1046.9897952800966     
 soft         electrons   0.0000000000000000     
 total        electrons   1046.9897952800966     
 augmentation electrons   1046.9897952800966     
 soft         electrons   0.0000000000000000     
 total        electrons   1046.9897952800966     
 augmentation electrons   1046.9897952800966     
 soft         electrons   0.0000000000000000     
 total        electrons   1046.9897952800966     
 augmentation electrons   1046.9897952800966     
 soft         electrons   0.0000000000000000     
 total        electrons   1046.9897952800966     
 augmentation electrons   1046.9897952800966     
 soft         electrons   0.0000000000000000     
 total        electrons   1046.9897952800966     
 augmentation electrons   1046.9897952800966     
 soft         electrons   0.0000000000000000     
 augmentation electrons   1046.9897952800966     
 soft         electrons   0.0000000000000000     
 total        electrons   1046.9897952800966     
 augmentation electrons   1046.9897952800966     
 soft         electrons   0.0000000000000000     
 total        electrons   1046.9897952800966     
 augmentation electrons   1046.9897952800966     
 soft         electrons   0.0000000000000000     
 augmentation electrons   1046.9897952800966     
 soft         electrons   0.0000000000000000     
 augmentation electrons   1046.9897952800966     
 soft         electrons   0.0000000000000000     
 total        electrons   1046.9897952800966     
 augmentation electrons   1046.9897952800966     
 soft         electrons   0.0000000000000000     
 augmentation electrons   1046.9897952800966     
 soft         electrons   0.0000000000000000     
 total        electrons   1046.9897952800966     
 augmentation electrons   1046.9897952800966     
 soft         electrons   0.0000000000000000     
 total        electrons   1046.9897952800966     
 augmentation electrons   1046.9897952800966     
 soft         electrons   0.0000000000000000     
 augmentation electrons   1046.9897952800966     
 soft         electrons   0.0000000000000000     
 augmentation electrons   1046.9897952800966     
 soft         electrons   0.0000000000000000     
 augmentation electrons   1046.9897952800966     
 soft         electrons   0.0000000000000000     
 total        electrons   1046.9897952800966     
 augmentation electrons   1046.9897952800966     
 soft         electrons   0.0000000000000000     
 total        electrons   1046.9897952800966     
 augmentation electrons   1046.9897952800966     
 soft         electrons   0.0000000000000000     
 total        electrons   1046.9897952800966     
 augmentation electrons   1046.9897952800966     
 soft         electrons   0.0000000000000000     
 total        electrons   1046.9897952800966     
 augmentation electrons   1046.9897952800966     
 soft         electrons   0.0000000000000000     
 total        electrons   1046.9897952800966     
 augmentation electrons   1046.9897952800966     
 soft         electrons   0.0000000000000000     
 total        electrons   1046.9897952800966     
 augmentation electrons   1046.9897952800966     
 soft         electrons   0.0000000000000000     
 total        electrons   1046.9897952800966     
 augmentation electrons   1046.9897952800966     
 soft         electrons   0.0000000000000000     
 total        electrons   1046.9897952800966     
 augmentation electrons   1046.9897952800966     
 soft         electrons   0.0000000000000000     
 augmentation electrons   1046.9897952800966     
 soft         electrons   0.0000000000000000     
 total        electrons   1046.9897952800966     
 augmentation electrons   1046.9897952800966     
 soft         electrons   0.0000000000000000     
 augmentation electrons   1046.9897952800966     
 soft         electrons   0.0000000000000000     
 total        electrons   1046.9897952800966     
 augmentation electrons   1046.9897952800966     
 soft         electrons   0.0000000000000000     
 augmentation electrons   1046.9897952800966     
 soft         electrons   0.0000000000000000     
 total        electrons   1046.9897952800966     
 augmentation electrons   1046.9897952800966     
 soft         electrons   0.0000000000000000     
 total        electrons   1046.9897952800966     
 augmentation electrons   1046.9897952800966     
 soft         electrons   0.0000000000000000     
 total        electrons   1046.9897952800966     
 augmentation electrons   1046.9897952800966     
 soft         electrons   0.0000000000000000     
 total        electrons   1046.9897952800966     
 augmentation electrons   1046.9897952800966     
 soft         electrons   0.0000000000000000     
 total        electrons   1046.9897952800966     
 augmentation electrons   1046.9897952800966     
 soft         electrons   0.0000000000000000     
 total        electrons   1046.9897952800966     
 augmentation electrons   1046.9897952800966     
 soft         electrons   0.0000000000000000     
 total        electrons   1046.9897952800966     
 augmentation electrons   1046.9897952800966     
 soft         electrons   0.0000000000000000     
 augmentation electrons   1046.9897952800966     
 soft         electrons   0.0000000000000000     
 total        electrons   1046.9897952800966     
 augmentation electrons   1046.9897952800966     
 soft         electrons   0.0000000000000000     
 augmentation electrons   1046.9897952800966     
 soft         electrons   0.0000000000000000     
 total        electrons   1046.9897952800966     
 augmentation electrons   1046.9897952800966     
 soft         electrons   0.0000000000000000     
 total        electrons   1046.9897952800966     
 augmentation electrons   1046.9897952800966     
 soft         electrons   0.0000000000000000     
 augmentation electrons   1046.9897952800966     
 soft         electrons   0.0000000000000000     
 total        electrons   1046.9897952800966     
 augmentation electrons   1046.9897952800966     
 soft         electrons   0.0000000000000000     
 total        electrons   1046.9897952800966     
 augmentation electrons   1046.9897952800966     
 soft         electrons   0.0000000000000000     
 total        electrons   1046.9897952800966     
 augmentation electrons   1046.9897952800966     
 soft         electrons   0.0000000000000000     
 total        electrons   1046.9897952800966     
 augmentation electrons   1046.9897952800966     
 soft         electrons   0.0000000000000000     
 total        electrons   1046.9897952800966     
 augmentation electrons   1046.9897952800966     
 soft         electrons   0.0000000000000000     
 total        electrons   1046.9897952800966     
 augmentation electrons   1046.9897952800966     
 soft         electrons   0.0000000000000000     
 total        electrons   1046.9897952800966     
 total        electrons   1046.9897952800966     
 total        electrons   1046.9897952800966     
 total        electrons   1046.9897952800966     
 total        electrons   1046.9897952800966     
 total        electrons   1046.9897952800966     
 total        electrons   1046.9897952800966     
 total        electrons   1046.9897952800966     
 total        electrons   1046.9897952800966     
 total        electrons   1046.9897952800966     
 total        electrons   1046.9897952800966     
 total        electrons   1046.9897952800966     
 total        electrons   1046.9897952800966     
 total        electrons   1046.9897952800966     
 total        electrons   1046.9897952800966     
 total        electrons   1046.9897952800966     
 total        electrons   1046.9897952800966     
 total        electrons   1046.9897952800966     
 entering main loop
       N       E                     dE             d eps       ncg     rms          rms(c)
DAV:   1     0.250805912404E+04    0.25081E+04   -0.10449E+05  8464   0.128E+03
DAV:   2    -0.187236643444E+03   -0.26953E+04   -0.25072E+04  9688   0.316E+02
DAV:   3    -0.629733212434E+03   -0.44250E+03   -0.42007E+03 11896   0.147E+02
DAV:   4    -0.668229355756E+03   -0.38496E+02   -0.36618E+02 13760   0.472E+01
DAV:   5    -0.670784397366E+03   -0.25550E+01   -0.24505E+01 14400   0.114E+01    0.146E+02
RMM:   6    -0.621565625337E+03    0.49219E+02   -0.11552E+03 13265   0.875E+01    0.693E+01
RMM:   7    -0.674020747281E+03   -0.52455E+02   -0.34814E+02 10774   0.534E+01    0.534E+01
RMM:   8    -0.589380444968E+03    0.84640E+02   -0.97232E+01 10212   0.298E+01    0.311E+01
RMM:   9    -0.589105941548E+03    0.27450E+00   -0.48600E+01 12630   0.148E+01    0.283E+01
RMM:  10    -0.569790464849E+03    0.19315E+02   -0.18932E+01 10657   0.130E+01    0.175E+01
RMM:  11    -0.570085064642E+03   -0.29460E+00   -0.61720E+00 11843   0.516E+00    0.154E+01
RMM:  12    -0.570126021523E+03   -0.40957E-01   -0.12770E+00 12807   0.187E+00    0.146E+01
RMM:  13    -0.569782936166E+03    0.34309E+00   -0.10450E+00 10786   0.296E+00    0.127E+01
RMM:  14    -0.570122410690E+03   -0.33947E+00   -0.78550E+00  9633   0.937E+00    0.945E+00
RMM:  15    -0.569247531188E+03    0.87488E+00   -0.10323E+00 10060   0.358E+00    0.492E+00
RMM:  16    -0.569044091151E+03    0.20344E+00   -0.14364E+00 12965   0.211E+00    0.354E+00
RMM:  17    -0.568972413233E+03    0.71678E-01   -0.63243E-01 12695   0.155E+00    0.282E+00
RMM:  18    -0.568914005949E+03    0.58407E-01   -0.19918E-01 12262   0.108E+00    0.146E+00
RMM:  19    -0.568912180744E+03    0.18252E-02   -0.69539E-02 12465   0.477E-01    0.118E+00
RMM:  20    -0.568905957349E+03    0.62234E-02   -0.29233E-02 10927   0.448E-01    0.952E-01
RMM:  21    -0.568897553947E+03    0.84034E-02   -0.35595E-02 12802   0.328E-01    0.754E-01
RMM:  22    -0.568889839299E+03    0.77146E-02   -0.11797E-02 10370   0.317E-01    0.339E-01
RMM:  23    -0.568889608684E+03    0.23062E-03   -0.90251E-03 12624   0.172E-01    0.233E-01
RMM:  24    -0.568888907572E+03    0.70111E-03   -0.33624E-03 12430   0.119E-01    0.113E-01
RMM:  25    -0.568888798785E+03    0.10879E-03   -0.32212E-03 11068   0.139E-01    0.205E-01
RMM:  26    -0.568888501290E+03    0.29749E-03   -0.12627E-03 10040   0.118E-01    0.620E-02
RMM:  27    -0.568889445017E+03   -0.94373E-03   -0.17209E-03  9751   0.117E-01    0.194E-01
RMM:  28    -0.568889530461E+03   -0.85444E-04   -0.10989E-03  9914   0.106E-01    0.488E-02
RMM:  29    -0.568889635644E+03   -0.10518E-03   -0.41012E-04 12018   0.237E-02    0.229E-02
RMM:  30    -0.568889746129E+03   -0.11048E-03   -0.10488E-04 11883   0.157E-02    0.218E-02
RMM:  31    -0.568889850028E+03   -0.10390E-03   -0.31692E-05  9281   0.811E-03    0.119E-02
RMM:  32    -0.568889977424E+03   -0.12740E-03   -0.64214E-05 10284   0.228E-02    0.316E-02
RMM:  33    -0.568890128151E+03   -0.15073E-03   -0.20635E-05  8401   0.125E-02    0.920E-03
RMM:  34    -0.568890261720E+03   -0.13357E-03   -0.12327E-05  8382   0.513E-03    0.609E-03
RMM:  35    -0.568890381348E+03   -0.11963E-03   -0.94477E-06  7977   0.401E-03    0.390E-03
RMM:  36    -0.568890451508E+03   -0.70160E-04   -0.66285E-06  7669   0.358E-03    0.254E-03
RMM:  37    -0.568890482338E+03   -0.30831E-04   -0.28905E-06  7255   0.263E-03    0.205E-03
RMM:  38    -0.568890507897E+03   -0.25558E-04   -0.29469E-06  7010   0.258E-03    0.232E-03
RMM:  39    -0.568890517062E+03   -0.91653E-05   -0.13550E-06  6549   0.222E-03    0.135E-03
RMM:  40    -0.568890517925E+03   -0.86349E-06   -0.37657E-07  5481   0.161E-03
   1 F= -.56889052E+03 E0= -.56889411E+03  d E =0.107735E-01
 augmentation electrons   31.569534698151884     
 soft         electrons   254.52335476628068     
 augmentation electrons   31.569534698151884     
 soft         electrons   254.52335476628068     
 total        electrons   286.09288946443257     
 augmentation electrons   31.569534698151884     
 soft         electrons   254.52335476628068     
 total        electrons   286.09288946443257     
 augmentation electrons   31.569534698151884     
 soft         electrons   254.52335476628068     
 augmentation electrons   31.569534698151884     
 soft         electrons   254.52335476628068     
 augmentation electrons   31.569534698151884     
 soft         electrons   254.52335476628068     
 total        electrons   286.09288946443257     
 augmentation electrons   31.569534698151884     
 soft         electrons   254.52335476628068     
 total        electrons   286.09288946443257     
 augmentation electrons   31.569534698151884     
 soft         electrons   254.52335476628068     
 augmentation electrons   31.569534698151884     
 soft         electrons   254.52335476628068     
 augmentation electrons   31.569534698151884     
 soft         electrons   254.52335476628068     
 augmentation electrons   31.569534698151884     
 soft         electrons   254.52335476628068     
 total        electrons   286.09288946443257     
 augmentation electrons   31.569534698151884     
 soft         electrons   254.52335476628068     
 augmentation electrons   31.569534698151884     
 soft         electrons   254.52335476628068     
 total        electrons   286.09288946443257     
 augmentation electrons   31.569534698151884     
 soft         electrons   254.52335476628068     
 total        electrons   286.09288946443257     
 augmentation electrons   31.569534698151884     
 soft         electrons   254.52335476628068     
 augmentation electrons   31.569534698151884     
 soft         electrons   254.52335476628068     
 total        electrons   286.09288946443257     
 augmentation electrons   31.569534698151884     
 soft         electrons   254.52335476628068     
 augmentation electrons   31.569534698151884     
 soft         electrons   254.52335476628068     
 augmentation electrons   31.569534698151884     
 soft         electrons   254.52335476628068     
 augmentation electrons   31.569534698151884     
 soft         electrons   254.52335476628068     
 total        electrons   286.09288946443257     
 augmentation electrons   31.569534698151884     
 soft         electrons   254.52335476628068     
 augmentation electrons   31.569534698151884     
 soft         electrons   254.52335476628068     
 augmentation electrons   31.569534698151884     
 soft         electrons   254.52335476628068     
 total        electrons   286.09288946443257     
 augmentation electrons   31.569534698151884     
 soft         electrons   254.52335476628068     
 augmentation electrons   31.569534698151884     
 soft         electrons   254.52335476628068     
 total        electrons   286.09288946443257     
 augmentation electrons   31.569534698151884     
 soft         electrons   254.52335476628068     
 total        electrons   286.09288946443257     
 augmentation electrons   31.569534698151884     
 soft         electrons   254.52335476628068     
 augmentation electrons   31.569534698151884     
 soft         electrons   254.52335476628068     
 augmentation electrons   31.569534698151884     
 soft         electrons   254.52335476628068     
 augmentation electrons   31.569534698151884     
 soft         electrons   254.52335476628068     
 total        electrons   286.09288946443257     
 augmentation electrons   31.569534698151884     
 soft         electrons   254.52335476628068     
 total        electrons   286.09288946443257     
 augmentation electrons   31.569534698151884     
 soft         electrons   254.52335476628068     
 augmentation electrons   31.569534698151884     
 soft         electrons   254.52335476628068     
 augmentation electrons   31.569534698151884     
 soft         electrons   254.52335476628068     
 augmentation electrons   31.569534698151884     
 soft         electrons   254.52335476628068     
 augmentation electrons   31.569534698151884     
 soft         electrons   254.52335476628068     
 total        electrons   286.09288946443257     
 augmentation electrons   31.569534698151884     
 soft         electrons   254.52335476628068     
 total        electrons   286.09288946443257     
 augmentation electrons   31.569534698151884     
 soft         electrons   254.52335476628068     
 augmentation electrons   31.569534698151884     
 soft         electrons   254.52335476628068     
 augmentation electrons   31.569534698151884     
 soft         electrons   254.52335476628068     
 augmentation electrons   31.569534698151884     
 soft         electrons   254.52335476628068     
 total        electrons   286.09288946443257     
 augmentation electrons   31.569534698151884     
 soft         electrons   254.52335476628068     
 augmentation electrons   31.569534698151884     
 soft         electrons   254.52335476628068     
 total        electrons   286.09288946443257     
 augmentation electrons   31.569534698151884     
 soft         electrons   254.52335476628068     
 total        electrons   286.09288946443257     
 augmentation electrons   31.569534698151884     
 soft         electrons   254.52335476628068     
 total        electrons   286.09288946443257     
 augmentation electrons   31.569534698151884     
 soft         electrons   254.52335476628068     
 total        electrons   286.09288946443257     
 augmentation electrons   31.569534698151884     
 soft         electrons   254.52335476628068     
 total        electrons   286.09288946443257     
 augmentation electrons   31.569534698151884     
 soft         electrons   254.52335476628068     
 augmentation electrons   31.569534698151884     
 soft         electrons   254.52335476628068     
 augmentation electrons   31.569534698151884     
 soft         electrons   254.52335476628068     
 total        electrons   286.09288946443257     
 augmentation electrons   31.569534698151884     
 soft         electrons   254.52335476628068     
 augmentation electrons   31.569534698151884     
 soft         electrons   254.52335476628068     
 total        electrons   286.09288946443257     
 augmentation electrons   31.569534698151884     
 soft         electrons   254.52335476628068     
 augmentation electrons   31.569534698151884     
 soft         electrons   254.52335476628068     
 total        electrons   286.09288946443257     
 augmentation electrons   31.569534698151884     
 soft         electrons   254.52335476628068     
 augmentation electrons   31.569534698151884     
 soft         electrons   254.52335476628068     
 total        electrons   286.09288946443257     
 augmentation electrons   31.569534698151884     
 soft         electrons   254.52335476628068     
 augmentation electrons   31.569534698151884     
 soft         electrons   254.52335476628068     
 total        electrons   286.09288946443257     
 augmentation electrons   31.569534698151884     
 soft         electrons   254.52335476628068     
 augmentation electrons   31.569534698151884     
 soft         electrons   254.52335476628068     
 total        electrons   286.09288946443257     
 augmentation electrons   31.569534698151884     
 soft         electrons   254.52335476628068     
 augmentation electrons   31.569534698151884     
 soft         electrons   254.52335476628068     
 total        electrons   286.09288946443257     
 augmentation electrons   31.569534698151884     
 soft         electrons   254.52335476628068     
 augmentation electrons   31.569534698151884     
 soft         electrons   254.52335476628068     
 augmentation electrons   31.569534698151884     
 soft         electrons   254.52335476628068     
 total        electrons   286.09288946443257     
 augmentation electrons   31.569534698151884     
 soft         electrons   254.52335476628068     
 augmentation electrons   31.569534698151884     
 soft         electrons   254.52335476628068     
 total        electrons   286.09288946443257     
 augmentation electrons   31.569534698151884     
 soft         electrons   254.52335476628068     
 total        electrons   286.09288946443257     
 augmentation electrons   31.569534698151884     
 soft         electrons   254.52335476628068     
 total        electrons   286.09288946443257     
 augmentation electrons   31.569534698151884     
 soft         electrons   254.52335476628068     
 total        electrons   286.09288946443257     
 augmentation electrons   31.569534698151884     
 soft         electrons   254.52335476628068     
 total        electrons   286.09288946443257     
 augmentation electrons   31.569534698151884     
 soft         electrons   254.52335476628068     
 total        electrons   286.09288946443257     
 total        electrons   286.09288946443257     
 total        electrons   286.09288946443257     
 total        electrons   286.09288946443257     
 total        electrons   286.09288946443257     
 total        electrons   286.09288946443257     
 total        electrons   286.09288946443257     
 total        electrons   286.09288946443257     
 total        electrons   286.09288946443257     
 total        electrons   286.09288946443257     
 total        electrons   286.09288946443257     
 total        electrons   286.09288946443257     
 total        electrons   286.09288946443257     
 total        electrons   286.09288946443257     
 total        electrons   286.09288946443257     
 total        electrons   286.09288946443257     
 total        electrons   286.09288946443257     
 total        electrons   286.09288946443257     
 total        electrons   286.09288946443257     
 total        electrons   286.09288946443257     
 total        electrons   286.09288946443257     
 total        electrons   286.09288946443257     
 total        electrons   286.09288946443257     
 total        electrons   286.09288946443257     
 total        electrons   286.09288946443257     
 total        electrons   286.09288946443257     
 total        electrons   286.09288946443257     
 total        electrons   286.09288946443257     
 total        electrons   286.09288946443257     
 total        electrons   286.09288946443257     
 total        electrons   286.09288946443257     
 total        electrons   286.09288946443257     
 total        electrons   286.09288946443257     
 total        electrons   286.09288946443257     
 total        electrons   286.09288946443257     
 total        electrons   286.09288946443257     
 total        electrons   286.09288946443257     
Note: The following floating-point exceptions are signalling: IEEE_OVERFLOW_FLAG
Note: The following floating-point exceptions are signalling: IEEE_OVERFLOW_FLAG
Note: The following floating-point exceptions are signalling: IEEE_OVERFLOW_FLAG
Note: The following floating-point exceptions are signalling: IEEE_OVERFLOW_FLAG
Note: The following floating-point exceptions are signalling: IEEE_OVERFLOW_FLAG
Note: The following floating-point exceptions are signalling: IEEE_OVERFLOW_FLAG
Note: The following floating-point exceptions are signalling: IEEE_OVERFLOW_FLAG
Note: The following floating-point exceptions are signalling: IEEE_OVERFLOW_FLAG
Note: The following floating-point exceptions are signalling: IEEE_OVERFLOW_FLAG
Note: The following floating-point exceptions are signalling: IEEE_OVERFLOW_FLAG
Note: The following floating-point exceptions are signalling: IEEE_OVERFLOW_FLAG
Note: The following floating-point exceptions are signalling: IEEE_OVERFLOW_FLAG
Note: The following floating-point exceptions are signalling: IEEE_OVERFLOW_FLAG
Note: The following floating-point exceptions are signalling: IEEE_OVERFLOW_FLAG
Note: The following floating-point exceptions are signalling: IEEE_OVERFLOW_FLAG
Note: The following floating-point exceptions are signalling: IEEE_OVERFLOW_FLAG
Note: The following floating-point exceptions are signalling: IEEE_OVERFLOW_FLAG
Note: The following floating-point exceptions are signalling: IEEE_OVERFLOW_FLAG
Note: The following floating-point exceptions are signalling: IEEE_OVERFLOW_FLAG
Note: The following floating-point exceptions are signalling: IEEE_OVERFLOW_FLAG
Note: The following floating-point exceptions are signalling: IEEE_OVERFLOW_FLAG
Note: The following floating-point exceptions are signalling: IEEE_OVERFLOW_FLAG
Note: The following floating-point exceptions are signalling: IEEE_OVERFLOW_FLAG
Note: The following floating-point exceptions are signalling: IEEE_OVERFLOW_FLAG
Note: The following floating-point exceptions are signalling: IEEE_OVERFLOW_FLAG
Note: The following floating-point exceptions are signalling: IEEE_OVERFLOW_FLAG
Note: The following floating-point exceptions are signalling: IEEE_OVERFLOW_FLAG
Note: The following floating-point exceptions are signalling: IEEE_OVERFLOW_FLAG
Note: The following floating-point exceptions are signalling: IEEE_OVERFLOW_FLAG
Note: The following floating-point exceptions are signalling: IEEE_OVERFLOW_FLAG
Note: The following floating-point exceptions are signalling: IEEE_OVERFLOW_FLAG
Note: The following floating-point exceptions are signalling: IEEE_OVERFLOW_FLAG
Note: The following floating-point exceptions are signalling: IEEE_OVERFLOW_FLAG
Note: The following floating-point exceptions are signalling: IEEE_OVERFLOW_FLAG
Note: The following floating-point exceptions are signalling: IEEE_OVERFLOW_FLAG
Note: The following floating-point exceptions are signalling: IEEE_OVERFLOW_FLAG
Note: The following floating-point exceptions are signalling: IEEE_OVERFLOW_FLAG
Note: The following floating-point exceptions are signalling: IEEE_OVERFLOW_FLAG
Note: The following floating-point exceptions are signalling: IEEE_OVERFLOW_FLAG
Note: The following floating-point exceptions are signalling: IEEE_OVERFLOW_FLAG
Note: The following floating-point exceptions are signalling: IEEE_OVERFLOW_FLAG
Note: The following floating-point exceptions are signalling: IEEE_OVERFLOW_FLAG
Note: The following floating-point exceptions are signalling: IEEE_OVERFLOW_FLAG
Note: The following floating-point exceptions are signalling: IEEE_OVERFLOW_FLAG
Note: The following floating-point exceptions are signalling: IEEE_OVERFLOW_FLAG
Note: The following floating-point exceptions are signalling: IEEE_OVERFLOW_FLAG
Note: The following floating-point exceptions are signalling: IEEE_OVERFLOW_FLAG
Note: The following floating-point exceptions are signalling: IEEE_OVERFLOW_FLAG
Note: The following floating-point exceptions are signalling: IEEE_OVERFLOW_FLAG
Note: The following floating-point exceptions are signalling: IEEE_OVERFLOW_FLAG
Note: The following floating-point exceptions are signalling: IEEE_OVERFLOW_FLAG
Note: The following floating-point exceptions are signalling: IEEE_OVERFLOW_FLAG
Note: The following floating-point exceptions are signalling: IEEE_OVERFLOW_FLAG
Note: The following floating-point exceptions are signalling: IEEE_OVERFLOW_FLAG
Note: The following floating-point exceptions are signalling: IEEE_OVERFLOW_FLAG
Note: The following floating-point exceptions are signalling: IEEE_OVERFLOW_FLAG
Note: The following floating-point exceptions are signalling: IEEE_OVERFLOW_FLAG
Note: The following floating-point exceptions are signalling: IEEE_OVERFLOW_FLAG
Note: The following floating-point exceptions are signalling: IEEE_OVERFLOW_FLAG
Note: The following floating-point exceptions are signalling: IEEE_OVERFLOW_FLAG
Note: The following floating-point exceptions are signalling: IEEE_OVERFLOW_FLAG
Note: The following floating-point exceptions are signalling: IEEE_OVERFLOW_FLAG
Note: The following floating-point exceptions are signalling: IEEE_OVERFLOW_FLAG
Note: The following floating-point exceptions are signalling: IEEE_OVERFLOW_FLAG
Note: The following floating-point exceptions are signalling: IEEE_OVERFLOW_FLAG
Note: The following floating-point exceptions are signalling: IEEE_OVERFLOW_FLAG
Note: The following floating-point exceptions are signalling: IEEE_OVERFLOW_FLAG
Note: The following floating-point exceptions are signalling: IEEE_OVERFLOW_FLAG
Note: The following floating-point exceptions are signalling: IEEE_OVERFLOW_FLAG
Note: The following floating-point exceptions are signalling: IEEE_OVERFLOW_FLAG
Note: The following floating-point exceptions are signalling: IEEE_OVERFLOW_FLAG
Note: The following floating-point exceptions are signalling: IEEE_OVERFLOW_FLAG
