   16   16    1    1
  0.1251121E+02  0.6088057E-09  0.6088057E-09  0.6240821E-09  0.5000000E-15
   1.0000000000000000E-004
  CAR 
 Name                                    
     48    125     36

  0.3742002E-15  0.3742002E-15  0.3742002E-15  0.1371742E-02
    1       -9.512507   1.000000
    2       -8.134921   1.000000
    3       -6.050497   1.000000
    4       -5.959436   1.000000
    5       -5.680000   1.000000
    6       -5.126686   1.000000
    7       -4.904076   1.000000
    8       -4.875642   1.000000
    9       -4.837508   1.000000
   10       -4.778935   1.000000
   11       -4.472064   1.000000
   12       -4.144204   1.000000
   13       -3.923476   1.000000
   14       -3.860327   1.000000
   15       -2.969246   1.000000
   16       -0.096403   1.000000
   17        0.127846   1.000000
   18        0.212896   1.000000
   19        0.344598   1.000000
   20        0.585199   1.000057
   21        0.624145   1.000455
   22        0.676810   1.004407
   23        0.679790   1.004912
   24        0.861620   0.758990
   25        1.856435  -0.000000
   26        2.414340  -0.000000
   27        2.419227  -0.000000
   28        2.769085  -0.000000
   29        2.788513  -0.000000
   30        3.107211  -0.000000
   31        3.442766  -0.000000
   32        3.527689  -0.000000
   33        4.783845   0.000000
   34        4.836813   0.000000
   35        5.051051   0.000000
   36        7.686733   0.000000

  0.1111111E+00  0.3648891E-15  0.3742002E-15  0.5486968E-02
    1       -9.461696   1.000000
    2       -8.087727   1.000000
    3       -6.432216   1.000000
    4       -6.079824   1.000000
    5       -5.911355   1.000000
    6       -5.256795   1.000000
    7       -4.907191   1.000000
    8       -4.831208   1.000000
    9       -4.726952   1.000000
   10       -4.702981   1.000000
   11       -4.351495   1.000000
   12       -3.840868   1.000000
   13       -3.721974   1.000000
   14       -3.370428   1.000000
   15       -2.909849   1.000000
   16       -0.212452   1.000000
   17       -0.049912   1.000000
   18        0.190301   1.000000
   19        0.255305   1.000000
   20        0.373323   1.000000
   21        0.442425   1.000000
   22        0.631487   1.000649
   23        0.661368   1.002425
   24        0.758875   1.033384
   25        1.908856  -0.000000
   26        2.184834  -0.000000
   27        2.310009  -0.000000
   28        2.574194  -0.000000
   29        2.680929  -0.000000
   30        3.295872  -0.000000
   31        3.557176  -0.000000
   32        3.844239   0.000000
   33        4.621780   0.000000
   34        4.814693   0.000000
   35        4.983224   0.000000
   36        7.657752   0.000000

  0.2222222E+00  0.3721884E-15  0.3742002E-15  0.5486968E-02
    1       -9.309644   1.000000
    2       -7.946534   1.000000
    3       -7.086666   1.000000
    4       -6.274780   1.000000
    5       -6.169287   1.000000
    6       -5.873405   1.000000
    7       -5.103859   1.000000
    8       -4.991163   1.000000
    9       -4.329193   1.000000
   10       -4.264032   1.000000
   11       -3.452931   1.000000
   12       -3.351870   1.000000
   13       -3.298881   1.000000
   14       -2.732264   1.000000
   15       -2.527997   1.000000
   16       -0.634092   1.000000
   17       -0.536963   1.000000
   18       -0.239664   1.000000
   19       -0.086827   1.000000
   20        0.035735   1.000000
   21        0.289403   1.000000
   22        0.541421   1.000004
   23        0.634882   1.000762
   24        0.753781   1.031679
   25        1.559736  -0.000000
   26        2.021577  -0.000000
   27        2.029158  -0.000000
   28        2.065232  -0.000000
   29        2.405813  -0.000000
   30        3.620481  -0.000000
   31        3.829883   0.000000
   32        4.168864   0.000000
   33        4.701682   0.000000
   34        4.774776   0.000000
   35        4.908773   0.000000
   36        7.746567   0.000000

  0.3333333E+00  0.4138540E-15  0.3742002E-15  0.5486968E-02
    1       -9.057828   1.000000
    2       -7.712905   1.000000
    3       -7.705496   1.000000
    4       -6.450570   1.000000
    5       -6.432541   1.000000
    6       -6.353084   1.000000
    7       -5.258376   1.000000
    8       -5.172477   1.000000
    9       -3.756587   1.000000
   10       -3.728973   1.000000
   11       -2.808473   1.000000
   12       -2.790897   1.000000
   13       -2.450287   1.000000
   14       -2.438389   1.000000
   15       -1.600280   1.000000
   16       -1.220567   1.000000
   17       -1.167046   1.000000
   18       -0.902199   1.000000
   19       -0.592692   1.000000
   20       -0.513513   1.000000
   21        0.424840   1.000000
   22        0.497118   1.000000
   23        0.563213   1.000015
   24        0.682744   1.005458
   25        0.967747   0.027829
   26        1.248633  -0.000003
   27        1.635564  -0.000000
   28        2.037075  -0.000000
   29        2.322034  -0.000000
   30        3.635446   0.000000
   31        3.963571   0.000000
   32        4.155621   0.000000
   33        4.732977   0.000000
   34        4.851618   0.000000
   35        5.786938   0.000000
   36        7.889594   0.000000

  0.4444444E+00  0.3861792E-15  0.3742002E-15  0.5486968E-02
    1       -8.713677   1.000000
    2       -8.237707   1.000000
    3       -7.395623   1.000000
    4       -6.943484   1.000000
    5       -6.516608   1.000000
    6       -6.447323   1.000000
    7       -5.339804   1.000000
    8       -5.264198   1.000000
    9       -3.252466   1.000000
   10       -3.247776   1.000000
   11       -2.337336   1.000000
   12       -2.317676   1.000000
   13       -2.036758   1.000000
   14       -1.743643   1.000000
   15       -1.726186   1.000000
   16       -1.506387   1.000000
   17       -1.394916   1.000000
   18       -1.067379   1.000000
   19       -1.024097   1.000000
   20       -0.635546   1.000000
   21       -0.330396   1.000000
   22        0.341245   1.000000
   23        0.384317   1.000000
   24        0.457314   1.000000
   25        0.835466   0.913486
   26        1.234904  -0.000008
   27        1.261943  -0.000001
   28        1.652611  -0.000000
   29        2.668203  -0.000000
   30        3.135235  -0.000000
   31        4.197443   0.000000
   32        4.385013   0.000000
   33        4.706851   0.000000
   34        4.818478   0.000000
   35        6.947419   0.000000
   36        7.978334   0.000000

  0.1111111E+00  0.1111111E+00  0.3742002E-15  0.2743484E-02
    1       -9.359884   1.000000
    2       -7.993111   1.000000
    3       -6.828828   1.000000
    4       -6.546539   1.000000
    5       -5.761774   1.000000
    6       -5.640616   1.000000
    7       -5.344805   1.000000
    8       -4.830332   1.000000
    9       -4.587365   1.000000
   10       -4.060606   1.000000
   11       -3.849254   1.000000
   12       -3.789112   1.000000
   13       -3.113908   1.000000
   14       -2.833649   1.000000
   15       -2.791185   1.000000
   16       -0.634930   1.000000
   17       -0.132594   1.000000
   18       -0.080237   1.000000
   19        0.048175   1.000000
   20        0.111347   1.000000
   21        0.273928   1.000000
   22        0.360516   1.000000
   23        0.624467   1.000462
   24        0.894513   0.495947
   25        1.772718  -0.000000
   26        2.013672  -0.000000
   27        2.091367  -0.000000
   28        2.213057  -0.000000
   29        2.480524  -0.000000
   30        3.329178  -0.000000
   31        4.020405   0.000000
   32        4.344930   0.000000
   33        4.369580   0.000000
   34        4.599056   0.000000
   35        5.058967   0.000000
   36        7.588359   0.000000

  0.2222222E+00  0.1111111E+00  0.3742002E-15  0.5486968E-02
    1       -9.157444   1.000000
    2       -7.805129   1.000000
    3       -7.390862   1.000000
    4       -6.876231   1.000000
    5       -6.162120   1.000000
    6       -5.750063   1.000000
    7       -5.662511   1.000000
    8       -4.598385   1.000000
    9       -4.515328   1.000000
   10       -3.532263   1.000000
   11       -3.423856   1.000000
   12       -2.914021   1.000000
   13       -2.555304   1.000000
   14       -2.513548   1.000000
   15       -2.024663   1.000000
   16       -1.306095   1.000000
   17       -0.663425   1.000000
   18       -0.569425   1.000000
   19       -0.424589   1.000000
   20       -0.048604   1.000000
   21        0.109010   1.000000
   22        0.232311   1.000000
   23        0.705624   1.011415
   24        1.021552  -0.035092
   25        1.063662  -0.018710
   26        1.584921  -0.000000
   27        1.710619  -0.000000
   28        2.122673  -0.000000
   29        2.220885  -0.000000
   30        3.387146  -0.000000
   31        3.920074   0.000000
   32        4.373175   0.000000
   33        4.577287   0.000000
   34        5.193914   0.000000
   35        5.239602   0.000000
   36        7.512078   0.000000

  0.3333333E+00  0.1111111E+00  0.3742002E-15  0.5486968E-02
    1       -8.857236   1.000000
    2       -7.955808   1.000000
    3       -7.526991   1.000000
    4       -7.038097   1.000000
    5       -6.684903   1.000000
    6       -5.820292   1.000000
    7       -5.819050   1.000000
    8       -4.679176   1.000000
    9       -4.018673   1.000000
   10       -3.044749   1.000000
   11       -2.854045   1.000000
   12       -2.205947   1.000000
   13       -1.979233   1.000000
   14       -1.977604   1.000000
   15       -1.905308   1.000000
   16       -1.272269   1.000000
   17       -1.189356   1.000000
   18       -1.098911   1.000000
   19       -0.949077   1.000000
   20       -0.333221   1.000000
   21       -0.187523   1.000000
   22        0.146114   1.000000
   23        0.492589   1.000000
   24        0.767159   1.035177
   25        0.958767   0.059876
   26        1.072995  -0.014834
   27        1.283264  -0.000000
   28        1.713153  -0.000000
   29        2.524856  -0.000000
   30        3.405946  -0.000000
   31        3.520518  -0.000000
   32        4.259908   0.000000
   33        4.970631   0.000000
   34        5.280372   0.000000
   35        6.341498   0.000000
   36        7.472084   0.000000

  0.4444444E+00  0.1111111E+00  0.3742002E-15  0.5486968E-02
    1       -8.530840   1.000000
    2       -8.371896   1.000000
    3       -7.234342   1.000000
    4       -7.093182   1.000000
    5       -7.060237   1.000000
    6       -5.872385   1.000000
    7       -5.849351   1.000000
    8       -4.710301   1.000000
    9       -3.719545   1.000000
   10       -2.745726   1.000000
   11       -2.539045   1.000000
   12       -2.336296   1.000000
   13       -1.806490   1.000000
   14       -1.678477   1.000000
   15       -1.673899   1.000000
   16       -1.612871   1.000000
   17       -1.270687   1.000000
   18       -0.936874   1.000000
   19       -0.789826   1.000000
   20       -0.618714   1.000000
   21       -0.235698   1.000000
   22       -0.226537   1.000000
   23       -0.067203   1.000000
   24        0.782686   1.033249
   25        0.916218   0.317292
   26        1.100740  -0.006399
   27        1.237594  -0.000007
   28        1.374666  -0.000000
   29        2.850325  -0.000000
   30        3.005823  -0.000000
   31        3.586099  -0.000000
   32        4.219426   0.000000
   33        5.128916   0.000000
   34        5.313459   0.000000
   35        7.378619   0.000000
   36        7.457101   0.000000

 -0.4444444E+00  0.1111111E+00  0.3742002E-15  0.5486968E-02
    1       -8.860736   1.000000
    2       -7.945383   1.000000
    3       -7.530902   1.000000
    4       -7.048847   1.000000
    5       -6.673012   1.000000
    6       -5.830851   1.000000
    7       -5.812903   1.000000
    8       -4.671938   1.000000
    9       -4.027273   1.000000
   10       -3.056396   1.000000
   11       -2.844536   1.000000
   12       -2.206569   1.000000
   13       -1.984468   1.000000
   14       -1.962186   1.000000
   15       -1.913835   1.000000
   16       -1.270109   1.000000
   17       -1.173823   1.000000
   18       -1.112811   1.000000
   19       -0.954781   1.000000
   20       -0.332705   1.000000
   21       -0.198083   1.000000
   22        0.161841   1.000000
   23        0.484515   1.000000
   24        0.779850   1.034275
   25        0.957313   0.065815
   26        1.092635  -0.008362
   27        1.272370  -0.000001
   28        1.705114  -0.000000
   29        2.521174  -0.000000
   30        3.415688  -0.000000
   31        3.507094  -0.000000
   32        4.247553   0.000000
   33        4.983696   0.000000
   34        5.293834   0.000000
   35        6.328476   0.000000
   36        7.452067   0.000000

 -0.3333333E+00  0.1111111E+00  0.3742002E-15  0.5486968E-02
    1       -9.159625   1.000000
    2       -7.807563   1.000000
    3       -7.366891   1.000000
    4       -6.906500   1.000000
    5       -6.135030   1.000000
    6       -5.733504   1.000000
    7       -5.695679   1.000000
    8       -4.581725   1.000000
    9       -4.531550   1.000000
   10       -3.552202   1.000000
   11       -3.395912   1.000000
   12       -2.940621   1.000000
   13       -2.555895   1.000000
   14       -2.478797   1.000000
   15       -2.053299   1.000000
   16       -1.309406   1.000000
   17       -0.663489   1.000000
   18       -0.535383   1.000000
   19       -0.425466   1.000000
   20       -0.065244   1.000000
   21        0.126133   1.000000
   22        0.207568   1.000000
   23        0.690834   1.007199
   24        1.047389  -0.026134
   25        1.075503  -0.013873
   26        1.599331  -0.000000
   27        1.702529  -0.000000
   28        2.109838  -0.000000
   29        2.218894  -0.000000
   30        3.359921  -0.000000
   31        3.940826   0.000000
   32        4.341348   0.000000
   33        4.614152   0.000000
   34        5.211703   0.000000
   35        5.218362   0.000000
   36        7.472495   0.000000

 -0.2222222E+00  0.1111111E+00  0.3742002E-15  0.5486968E-02
    1       -9.361083   1.000000
    2       -7.994443   1.000000
    3       -6.757979   1.000000
    4       -6.632634   1.000000
    5       -5.737095   1.000000
    6       -5.566726   1.000000
    7       -5.433922   1.000000
    8       -4.851066   1.000000
    9       -4.562726   1.000000
   10       -3.985556   1.000000
   11       -3.873384   1.000000
   12       -3.855498   1.000000
   13       -3.035656   1.000000
   14       -2.899080   1.000000
   15       -2.791627   1.000000
   16       -0.647874   1.000000
   17       -0.092397   1.000000
   18       -0.044259   1.000000
   19        0.064180   1.000000
   20        0.089553   1.000000
   21        0.183415   1.000000
   22        0.442347   1.000000
   23        0.556174   1.000010
   24        0.925517   0.247647
   25        1.786009  -0.000000
   26        2.012184  -0.000000
   27        2.084235  -0.000000
   28        2.229403  -0.000000
   29        2.464676  -0.000000
   30        3.285407  -0.000000
   31        4.123624   0.000000
   32        4.267441   0.000000
   33        4.422191   0.000000
   34        4.523262   0.000000
   35        5.093062   0.000000
   36        7.522435   0.000000

 -0.1111111E+00  0.1111111E+00  0.3742002E-15  0.2743484E-02
    1       -9.462080   1.000000
    2       -8.088156   1.000000
    3       -6.398432   1.000000
    4       -6.144228   1.000000
    5       -5.884934   1.000000
    6       -5.217202   1.000000
    7       -4.973533   1.000000
    8       -4.843047   1.000000
    9       -4.709781   1.000000
   10       -4.661462   1.000000
   11       -4.377839   1.000000
   12       -3.841795   1.000000
   13       -3.686184   1.000000
   14       -3.396352   1.000000
   15       -2.910015   1.000000
   16       -0.239484   1.000000
   17        0.019605   1.000000
   18        0.151569   1.000000
   19        0.231670   1.000000
   20        0.382107   1.000000
   21        0.520708   1.000001
   22        0.586773   1.000062
   23        0.607181   1.000191
   24        0.794878   1.024230
   25        1.908361  -0.000000
   26        2.192611  -0.000000
   27        2.305432  -0.000000
   28        2.587667  -0.000000
   29        2.667361  -0.000000
   30        3.253617  -0.000000
   31        3.631010   0.000000
   32        3.804592   0.000000
   33        4.643067   0.000000
   34        4.769116   0.000000
   35        5.011707   0.000000
   36        7.511035   0.000000

  0.2222222E+00  0.2222222E+00  0.3742002E-15  0.2743484E-02
    1       -8.906140   1.000000
    2       -7.681173   1.000000
    3       -7.572050   1.000000
    4       -7.404339   1.000000
    5       -6.440406   1.000000
    6       -6.149412   1.000000
    7       -5.355603   1.000000
    8       -4.527851   1.000000
    9       -4.224325   1.000000
   10       -3.540280   1.000000
   11       -2.549119   1.000000
   12       -2.263085   1.000000
   13       -2.258424   1.000000
   14       -2.053621   1.000000
   15       -1.710019   1.000000
   16       -1.412775   1.000000
   17       -1.341103   1.000000
   18       -0.846928   1.000000
   19       -0.623427   1.000000
   20       -0.285281   1.000000
   21       -0.031459   1.000000
   22        0.247661   1.000000
   23        0.391390   1.000000
   24        0.513285   1.000001
   25        0.984549  -0.012278
   26        1.202718  -0.000057
   27        1.436516  -0.000000
   28        1.661153  -0.000000
   29        2.475896  -0.000000
   30        3.125509  -0.000000
   31        3.669065   0.000000
   32        3.919745   0.000000
   33        5.481312   0.000000
   34        5.543617   0.000000
   35        5.844663   0.000000
   36        7.179773   0.000000

  0.3333333E+00  0.2222222E+00  0.3742002E-15  0.5486968E-02
    1       -8.564939   1.000000
    2       -8.113492   1.000000
    3       -7.601413   1.000000
    4       -7.258461   1.000000
    5       -6.832543   1.000000
    6       -6.340738   1.000000
    7       -5.215860   1.000000
    8       -4.282417   1.000000
    9       -4.112008   1.000000
   10       -3.268266   1.000000
   11       -2.635768   1.000000
   12       -1.976129   1.000000
   13       -1.894742   1.000000
   14       -1.863494   1.000000
   15       -1.376072   1.000000
   16       -1.353187   1.000000
   17       -1.170726   1.000000
   18       -0.812173   1.000000
   19       -0.609158   1.000000
   20       -0.586885   1.000000
   21       -0.440257   1.000000
   22        0.005534   1.000000
   23        0.213763   1.000000
   24        0.234346   1.000000
   25        0.676692   1.004388
   26        0.738604   1.025180
   27        1.175809  -0.000249
   28        1.709692  -0.000000
   29        2.817661  -0.000000
   30        2.960203  -0.000000
   31        3.260029  -0.000000
   32        3.746042   0.000000
   33        5.806607   0.000000
   34        5.918649   0.000000
   35        6.779790   0.000000
   36        6.929450   0.000000

  0.4444444E+00  0.2222222E+00  0.3742002E-15  0.5486968E-02
    1       -8.576323   1.000000
    2       -8.087578   1.000000
    3       -7.616903   1.000000
    4       -7.271032   1.000000
    5       -6.803458   1.000000
    6       -6.358183   1.000000
    7       -5.208980   1.000000
    8       -4.291930   1.000000
    9       -4.105191   1.000000
   10       -3.280004   1.000000
   11       -2.633192   1.000000
   12       -1.976995   1.000000
   13       -1.889998   1.000000
   14       -1.851947   1.000000
   15       -1.408185   1.000000
   16       -1.334803   1.000000
   17       -1.149206   1.000000
   18       -0.829035   1.000000
   19       -0.646643   1.000000
   20       -0.596444   1.000000
   21       -0.400116   1.000000
   22        0.001085   1.000000
   23        0.208707   1.000000
   24        0.268181   1.000000
   25        0.670356   1.003458
   26        0.735532   1.023759
   27        1.165921  -0.000412
   28        1.720450  -0.000000
   29        2.806240  -0.000000
   30        2.947911  -0.000000
   31        3.284229  -0.000000
   32        3.731471   0.000000
   33        5.819206   0.000000
   34        5.936425   0.000000
   35        6.748682   0.000000
   36        6.913682   0.000000

 -0.4444444E+00  0.2222222E+00  0.3742002E-15  0.5486968E-02
    1       -8.913012   1.000000
    2       -7.603762   1.000000
    3       -7.579804   1.000000
    4       -7.477987   1.000000
    5       -6.358973   1.000000
    6       -6.226107   1.000000
    7       -5.339118   1.000000
    8       -4.547099   1.000000
    9       -4.207708   1.000000
   10       -3.563243   1.000000
   11       -2.485378   1.000000
   12       -2.346514   1.000000
   13       -2.253447   1.000000
   14       -2.049999   1.000000
   15       -1.638684   1.000000
   16       -1.491138   1.000000
   17       -1.334550   1.000000
   18       -0.783007   1.000000
   19       -0.680924   1.000000
   20       -0.224113   1.000000
   21       -0.102103   1.000000
   22        0.313825   1.000000
   23        0.415436   1.000000
   24        0.445213   1.000000
   25        1.009095  -0.034523
   26        1.193359  -0.000097
   27        1.458660  -0.000000
   28        1.646518  -0.000000
   29        2.468656  -0.000000
   30        3.098679  -0.000000
   31        3.736207   0.000000
   32        3.854037   0.000000
   33        5.568067   0.000000
   34        5.572711   0.000000
   35        5.747859   0.000000
   36        7.144705   0.000000

 -0.3333333E+00  0.2222222E+00  0.3742002E-15  0.5486968E-02
    1       -9.161349   1.000000
    2       -7.809517   1.000000
    3       -7.354737   1.000000
    4       -6.915070   1.000000
    5       -6.119081   1.000000
    6       -5.738483   1.000000
    7       -5.707605   1.000000
    8       -4.589687   1.000000
    9       -4.526506   1.000000
   10       -3.544400   1.000000
   11       -3.392189   1.000000
   12       -2.952729   1.000000
   13       -2.554737   1.000000
   14       -2.477490   1.000000
   15       -2.060564   1.000000
   16       -1.307286   1.000000
   17       -0.663195   1.000000
   18       -0.538613   1.000000
   19       -0.412891   1.000000
   20       -0.059755   1.000000
   21        0.145751   1.000000
   22        0.196213   1.000000
   23        0.672312   1.003726
   24        1.048184  -0.025770
   25        1.076337  -0.013562
   26        1.601309  -0.000000
   27        1.703926  -0.000000
   28        2.109816  -0.000000
   29        2.216846  -0.000000
   30        3.353220  -0.000000
   31        3.945509   0.000000
   32        4.339411   0.000000
   33        4.624025   0.000000
   34        5.199759   0.000000
   35        5.221879   0.000000
   36        7.459021   0.000000

 -0.2222222E+00  0.2222222E+00  0.3742002E-15  0.2743484E-02
    1       -9.311436   1.000000
    2       -7.948539   1.000000
    3       -7.067602   1.000000
    4       -6.320723   1.000000
    5       -6.144353   1.000000
    6       -5.849296   1.000000
    7       -5.150551   1.000000
    8       -4.974175   1.000000
    9       -4.332271   1.000000
   10       -4.244614   1.000000
   11       -3.471383   1.000000
   12       -3.344663   1.000000
   13       -3.286441   1.000000
   14       -2.732527   1.000000
   15       -2.544661   1.000000
   16       -0.667664   1.000000
   17       -0.481250   1.000000
   18       -0.242992   1.000000
   19       -0.122967   1.000000
   20        0.098531   1.000000
   21        0.280637   1.000000
   22        0.499966   1.000000
   23        0.676547   1.004365
   24        0.729111   1.020808
   25        1.566312  -0.000000
   26        2.018334  -0.000000
   27        2.036792  -0.000000
   28        2.064800  -0.000000
   29        2.397541  -0.000000
   30        3.556835  -0.000000
   31        3.898278   0.000000
   32        4.177920   0.000000
   33        4.681585   0.000000
   34        4.732992   0.000000
   35        4.952025   0.000000
   36        7.647440   0.000000

  0.3333333E+00  0.3333333E+00  0.3742002E-15  0.2743484E-02
    1       -8.335260   1.000000
    2       -8.090290   1.000000
    3       -7.998520   1.000000
    4       -7.062813   1.000000
    5       -6.800334   1.000000
    6       -6.703336   1.000000
    7       -4.673746   1.000000
    8       -4.656020   1.000000
    9       -3.610463   1.000000
   10       -3.592091   1.000000
   11       -2.912769   1.000000
   12       -2.168566   1.000000
   13       -1.561462   1.000000
   14       -1.361683   1.000000
   15       -1.291621   1.000000
   16       -1.264538   1.000000
   17       -1.182875   1.000000
   18       -0.908913   1.000000
   19       -0.546744   1.000000
   20       -0.456587   1.000000
   21       -0.176928   1.000000
   22       -0.165491   1.000000
   23        0.043822   1.000000
   24        0.106887   1.000000
   25        0.371222   1.000000
   26        0.603151   1.000154
   27        0.662619   1.002551
   28        2.336554  -0.000000
   29        2.361411  -0.000000
   30        3.047310  -0.000000
   31        3.284404  -0.000000
   32        3.365238  -0.000000
   33        6.350099   0.000000
   34        6.379102   0.000000
   35        6.715853   0.000000
   36        6.839047   0.000000

  0.4444444E+00  0.3333333E+00  0.3742002E-15  0.5486968E-02
    1       -8.590115   1.000000
    2       -8.055884   1.000000
    3       -7.634379   1.000000
    4       -7.286486   1.000000
    5       -6.765737   1.000000
    6       -6.379964   1.000000
    7       -5.206519   1.000000
    8       -4.298175   1.000000
    9       -4.104575   1.000000
   10       -3.285722   1.000000
   11       -2.628241   1.000000
   12       -1.955778   1.000000
   13       -1.886803   1.000000
   14       -1.884242   1.000000
   15       -1.416323   1.000000
   16       -1.322290   1.000000
   17       -1.148135   1.000000
   18       -0.828937   1.000000
   19       -0.660561   1.000000
   20       -0.560669   1.000000
   21       -0.413120   1.000000
   22        0.038805   1.000000
   23        0.177531   1.000000
   24        0.262679   1.000000
   25        0.686457   1.006211
   26        0.698612   1.009243
   27        1.181697  -0.000183
   28        1.728663  -0.000000
   29        2.793088  -0.000000
   30        2.936995  -0.000000
   31        3.309213  -0.000000
   32        3.719696   0.000000
   33        5.828919   0.000000
   34        5.951758   0.000000
   35        6.719275   0.000000
   36        6.899885   0.000000

 -0.4444444E+00  0.3333333E+00  0.3742002E-15  0.5486968E-02
    1       -8.868994   1.000000
    2       -7.925542   1.000000
    3       -7.540383   1.000000
    4       -7.058392   1.000000
    5       -6.648257   1.000000
    6       -5.843880   1.000000
    7       -5.815342   1.000000
    8       -4.677191   1.000000
    9       -4.028197   1.000000
   10       -3.055639   1.000000
   11       -2.843875   1.000000
   12       -2.223422   1.000000
   13       -1.974022   1.000000
   14       -1.964808   1.000000
   15       -1.919999   1.000000
   16       -1.263361   1.000000
   17       -1.170321   1.000000
   18       -1.124002   1.000000
   19       -0.937762   1.000000
   20       -0.309820   1.000000
   21       -0.192417   1.000000
   22        0.157654   1.000000
   23        0.468727   1.000000
   24        0.778342   1.034682
   25        0.935173   0.182372
   26        1.096287  -0.007428
   27        1.282547  -0.000000
   28        1.713905  -0.000000
   29        2.512725  -0.000000
   30        3.429108  -0.000000
   31        3.494198  -0.000000
   32        4.243467   0.000000
   33        4.993650   0.000000
   34        5.301776   0.000000
   35        6.309570   0.000000
   36        7.430544   0.000000

 -0.3333333E+00  0.3333333E+00  0.3742002E-15  0.2743484E-02
    1       -9.063502   1.000000
    2       -7.719357   1.000000
    3       -7.686637   1.000000
    4       -6.469040   1.000000
    5       -6.426872   1.000000
    6       -6.330757   1.000000
    7       -5.295567   1.000000
    8       -5.156548   1.000000
    9       -3.753589   1.000000
   10       -3.727271   1.000000
   11       -2.797633   1.000000
   12       -2.795720   1.000000
   13       -2.500789   1.000000
   14       -2.408258   1.000000
   15       -1.615008   1.000000
   16       -1.240949   1.000000
   17       -1.122895   1.000000
   18       -0.903732   1.000000
   19       -0.619322   1.000000
   20       -0.461639   1.000000
   21        0.410440   1.000000
   22        0.507731   1.000000
   23        0.564789   1.000017
   24        0.684887   1.005883
   25        0.946661   0.115815
   26        1.255270  -0.000002
   27        1.638104  -0.000000
   28        2.037007  -0.000000
   29        2.315894  -0.000000
   30        3.646965   0.000000
   31        3.895137   0.000000
   32        4.220470   0.000000
   33        4.693784   0.000000
   34        4.896362   0.000000
   35        5.767220   0.000000
   36        7.782445   0.000000

  0.4444444E+00  0.4444444E+00  0.3742002E-15  0.2743484E-02
    1       -8.589789   1.000000
    2       -8.299165   1.000000
    3       -7.293743   1.000000
    4       -7.106117   1.000000
    5       -6.983076   1.000000
    6       -5.889091   1.000000
    7       -5.848373   1.000000
    8       -4.712135   1.000000
    9       -3.729381   1.000000
   10       -2.756877   1.000000
   11       -2.540629   1.000000
   12       -2.323488   1.000000
   13       -1.864519   1.000000
   14       -1.677111   1.000000
   15       -1.625848   1.000000
   16       -1.598145   1.000000
   17       -1.248946   1.000000
   18       -1.011977   1.000000
   19       -0.721274   1.000000
   20       -0.591431   1.000000
   21       -0.303992   1.000000
   22       -0.237310   1.000000
   23        0.000453   1.000000
   24        0.713872   1.014369
   25        0.979264  -0.002244
   26        1.105237  -0.005475
   27        1.163989  -0.000454
   28        1.429567  -0.000000
   29        2.794061  -0.000000
   30        3.069502  -0.000000