 running on   16 total cores
 distrk:  each k-point on   16 cores,    1 groups
 distr:  one band on    4 cores,    4 groups
 using from now: INCAR     
 vasp.5.4.4.18Apr17-6-g9f103f2a35 (build Dec  7 2020 12:43:57) complex           
 POSCAR found type information on POSCAR  B 
 POSCAR found :  1 types and      16 ions
 scaLAPACK will be used
 LDA part: xc-table for Pade appr. of Perdew
 POSCAR, INCAR and KPOINTS ok, starting setup
 resort distribution
 resort distribution
 resort distribution
 resort distribution
 resort distribution
 resort distribution
 resort distribution
 resort distribution
 resort distribution
 resort distribution
 resort distribution
 resort distribution
 resort distribution
 resort distribution
 resort distribution
 resort distribution
 FFT: planning ...
 WAVECAR not read
 augmentation electrons   48.000514122241363     
 soft         electrons   0.0000000000000000     
 augmentation electrons   48.000514122241363     
 soft         electrons   0.0000000000000000     
 augmentation electrons   48.000514122241363     
 soft         electrons   0.0000000000000000     
 augmentation electrons   48.000514122241363     
 soft         electrons   0.0000000000000000     
 augmentation electrons   48.000514122241363     
 soft         electrons   0.0000000000000000     
 augmentation electrons   48.000514122241363     
 soft         electrons   0.0000000000000000     
 augmentation electrons   48.000514122241363     
 soft         electrons   0.0000000000000000     
 augmentation electrons   48.000514122241363     
 soft         electrons   0.0000000000000000     
 augmentation electrons   48.000514122241363     
 soft         electrons   0.0000000000000000     
 augmentation electrons   48.000514122241363     
 soft         electrons   0.0000000000000000     
 augmentation electrons   48.000514122241363     
 soft         electrons   0.0000000000000000     
 augmentation electrons   48.000514122241363     
 soft         electrons   0.0000000000000000     
 augmentation electrons   48.000514122241363     
 soft         electrons   0.0000000000000000     
 augmentation electrons   48.000514122241363     
 soft         electrons   0.0000000000000000     
 augmentation electrons   48.000514122241363     
 soft         electrons   0.0000000000000000     
 augmentation electrons   48.000514122241363     
 soft         electrons   0.0000000000000000     
 total        electrons   48.000514122241363     
 total        electrons   48.000514122241363     
 total        electrons   48.000514122241363     
 total        electrons   48.000514122241363     
 total        electrons   48.000514122241363     
 total        electrons   48.000514122241363     
 total        electrons   48.000514122241363     
 total        electrons   48.000514122241363     
 total        electrons   48.000514122241363     
 total        electrons   48.000514122241363     
 total        electrons   48.000514122241363     
 total        electrons   48.000514122241363     
 total        electrons   48.000514122241363     
 total        electrons   48.000514122241363     
 total        electrons   48.000514122241363     
 total        electrons   48.000514122241363     
 augmentation electrons   31.972394298836122     
 soft         electrons   0.0000000000000000     
 augmentation electrons   31.972394298836122     
 soft         electrons   0.0000000000000000     
 total        electrons   31.972394298836122     
 augmentation electrons   31.972394298836122     
 soft         electrons   0.0000000000000000     
 total        electrons   31.972394298836122     
 augmentation electrons   31.972394298836122     
 soft         electrons   0.0000000000000000     
 total        electrons   31.972394298836122     
 augmentation electrons   31.972394298836122     
 soft         electrons   0.0000000000000000     
 total        electrons   31.972394298836122     
 augmentation electrons   31.972394298836122     
 soft         electrons   0.0000000000000000     
 total        electrons   31.972394298836122     
 augmentation electrons   31.972394298836122     
 soft         electrons   0.0000000000000000     
 total        electrons   31.972394298836122     
 augmentation electrons   31.972394298836122     
 soft         electrons   0.0000000000000000     
 total        electrons   31.972394298836122     
 augmentation electrons   31.972394298836122     
 soft         electrons   0.0000000000000000     
 total        electrons   31.972394298836122     
 augmentation electrons   31.972394298836122     
 soft         electrons   0.0000000000000000     
 total        electrons   31.972394298836122     
 augmentation electrons   31.972394298836122     
 soft         electrons   0.0000000000000000     
 total        electrons   31.972394298836122     
 augmentation electrons   31.972394298836122     
 soft         electrons   0.0000000000000000     
 total        electrons   31.972394298836122     
 augmentation electrons   31.972394298836122     
 soft         electrons   0.0000000000000000     
 total        electrons   31.972394298836122     
 augmentation electrons   31.972394298836122     
 soft         electrons   0.0000000000000000     
 total        electrons   31.972394298836122     
 augmentation electrons   31.972394298836122     
 soft         electrons   0.0000000000000000     
 total        electrons   31.972394298836122     
 augmentation electrons   31.972394298836122     
 soft         electrons   0.0000000000000000     
 total        electrons   31.972394298836122     
 total        electrons   31.972394298836122     
 entering main loop
       N       E                     dE             d eps       ncg     rms          rms(c)
DAV:   1     0.959342029948E+02    0.95934E+02   -0.19486E+04  9000   0.110E+03
DAV:   2    -0.825542141496E+02   -0.17849E+03   -0.16175E+03 11676   0.188E+02
DAV:   3    -0.930719884056E+02   -0.10518E+02   -0.99830E+01 10620   0.416E+01
DAV:   4    -0.932860712895E+02   -0.21408E+00   -0.21275E+00 10528   0.619E+00
DAV:   5    -0.932916093913E+02   -0.55381E-02   -0.55353E-02 10880   0.956E-01    0.136E+01
RMM:   6    -0.887527714100E+02    0.45388E+01   -0.36598E+00  9004   0.627E+00    0.693E+00
RMM:   7    -0.875732625878E+02    0.11795E+01   -0.32759E+00  9036   0.588E+00    0.106E+00
RMM:   8    -0.875792616804E+02   -0.59991E-02   -0.71961E-02  9396   0.103E+00    0.412E-01
RMM:   9    -0.875796119343E+02   -0.35025E-03   -0.16744E-02  9787   0.386E-01    0.239E-01
RMM:  10    -0.875796060319E+02    0.59024E-05   -0.41456E-03  9455   0.251E-01    0.360E-02
RMM:  11    -0.875796549087E+02   -0.48877E-04   -0.15728E-04  9856   0.523E-02    0.185E-02
RMM:  12    -0.875796887038E+02   -0.33795E-04   -0.52805E-05  9819   0.284E-02    0.589E-03
RMM:  13    -0.875796872146E+02    0.14892E-05   -0.10663E-05  9445   0.963E-03    0.207E-03
RMM:  14    -0.875796874428E+02   -0.22816E-06   -0.11997E-06  5824   0.446E-03
   1 F= -.87579687E+02 E0= -.87580115E+02  d E =0.128183E-02
 writing wavefunctions
 augmentation electrons -0.51169868350497638     
 soft         electrons   48.516561706857431     
 augmentation electrons -0.51169868350497638     
 soft         electrons   48.516561706857431     
 augmentation electrons -0.51169868350497638     
 augmentation electrons -0.51169868350497638     
 soft         electrons   48.516561706857431     
 augmentation electrons -0.51169868350497638     
 soft         electrons   48.516561706857431     
 augmentation electrons -0.51169868350497638     
 soft         electrons   48.516561706857431     
 augmentation electrons -0.51169868350497638     
 soft         electrons   48.516561706857431     
 augmentation electrons -0.51169868350497638     
 soft         electrons   48.516561706857431     
 augmentation electrons -0.51169868350497638     
 soft         electrons   48.516561706857431     
 augmentation electrons -0.51169868350497638     
 soft         electrons   48.516561706857431     
 augmentation electrons -0.51169868350497638     
 soft         electrons   48.516561706857431     
 augmentation electrons -0.51169868350497638     
 soft         electrons   48.516561706857431     
 augmentation electrons -0.51169868350497638     
 soft         electrons   48.516561706857431     
 augmentation electrons -0.51169868350497638     
 soft         electrons   48.516561706857431     
 augmentation electrons -0.51169868350497638     
 soft         electrons   48.516561706857431     
 augmentation electrons -0.51169868350497638     
 soft         electrons   48.516561706857431     
 soft         electrons   48.516561706857431     
 total        electrons   48.004863023352456     
 total        electrons   48.004863023352456     
 total        electrons   48.004863023352456     
 total        electrons   48.004863023352456     
 total        electrons   48.004863023352456     
 total        electrons   48.004863023352456     
 total        electrons   48.004863023352456     
 total        electrons   48.004863023352456     
 total        electrons   48.004863023352456     
 total        electrons   48.004863023352456     
 total        electrons   48.004863023352456     
 total        electrons   48.004863023352456     
 total        electrons   48.004863023352456     
 total        electrons   48.004863023352456     
 total        electrons   48.004863023352456     
 total        electrons   48.004863023352456     
Note: The following floating-point exceptions are signalling: IEEE_OVERFLOW_FLAG
Note: The following floating-point exceptions are signalling: IEEE_OVERFLOW_FLAG
Note: The following floating-point exceptions are signalling: IEEE_OVERFLOW_FLAG
Note: The following floating-point exceptions are signalling: IEEE_OVERFLOW_FLAG
Note: The following floating-point exceptions are signalling: IEEE_OVERFLOW_FLAG
Note: The following floating-point exceptions are signalling: IEEE_OVERFLOW_FLAG
Note: The following floating-point exceptions are signalling: IEEE_OVERFLOW_FLAG
Note: The following floating-point exceptions are signalling: IEEE_OVERFLOW_FLAG
Note: The following floating-point exceptions are signalling: IEEE_OVERFLOW_FLAG
Note: The following floating-point exceptions are signalling: IEEE_OVERFLOW_FLAG
Note: The following floating-point exceptions are signalling: IEEE_OVERFLOW_FLAG
Note: The following floating-point exceptions are signalling: IEEE_OVERFLOW_FLAG
