   74   74   85    1
  0.2087222E+02  0.1036705E-08  0.2428040E-08  0.6136055E-09  0.5000000E-15
   1.0000000000000000E-004
  CAR 
 Name                                    
    278     23    184

  0.3742002E-15  0.1262379E-14  0.3742002E-15  0.2222222E-01
    1      -14.053631   1.000000
    2      -12.886385   1.000000
    3      -12.867091   1.000000
    4      -12.832575   1.000000
    5      -11.920327   1.000000
    6      -11.749573   1.000000
    7      -11.702958   1.000000
    8      -11.504926   1.000000
    9      -11.496903   1.000000
   10      -11.307062   1.000000
   11      -11.279832   1.000000
   12      -11.037046   1.000000
   13      -10.999077   1.000000
   14      -10.533780   1.000000
   15      -10.479993   1.000000
   16      -10.338361   1.000000
   17      -10.206998   1.000000
   18      -10.115595   1.000000
   19       -9.831189   1.000000
   20       -9.634407   1.000000
   21       -9.562248   1.000000
   22       -9.545905   1.000000
   23       -9.446914   1.000000
   24       -9.390063   1.000000
   25       -8.906066   1.000000
   26       -8.862803   1.000000
   27       -8.670013   1.000000
   28       -8.483744   1.000000
   29       -8.373535   1.000000
   30       -8.200331   1.000000
   31       -8.186126   1.000000
   32       -7.851882   1.000000
   33       -7.812606   1.000000
   34       -7.426347   1.000000
   35       -7.337254   1.000000
   36       -7.254221   1.000000
   37       -7.084036   1.000000
   38       -6.926141   1.000000
   39       -6.871346   1.000000
   40       -6.828737   1.000000
   41       -6.763771   1.000000
   42       -6.758068   1.000000
   43       -6.741819   1.000000
   44       -6.528612   1.000000
   45       -6.394726   1.000000
   46       -6.311045   1.000000
   47       -6.262533   1.000000
   48       -6.169554   1.000000
   49       -6.162466   1.000000
   50       -5.987587   1.000000
   51       -5.846812   1.000000
   52       -5.713670   1.000000
   53       -5.708591   1.000000
   54       -5.683513   1.000000
   55       -5.649422   1.000000
   56       -5.578983   1.000000
   57       -5.530500   1.000000
   58       -5.437030   1.000000
   59       -5.365962   1.000000
   60       -5.274624   1.000000
   61       -5.261841   1.000000
   62       -5.102406   1.000000
   63       -4.789922   1.000000
   64       -4.755927   1.000000
   65       -4.715604   1.000000
   66       -4.626679   1.000000
   67       -4.602537   1.000000
   68       -4.469156   1.000000
   69       -4.368816   1.000000
   70       -4.189287   1.000000
   71       -4.134288   1.000000
   72       -4.110200   1.000000
   73       -4.085989   1.000000
   74       -4.063071   1.000000
   75       -3.995867   1.000000
   76       -3.987568   1.000000
   77       -3.975595   1.000000
   78       -3.955996   1.000000
   79       -3.926693   1.000000
   80       -3.830406   1.000000
   81       -3.685344   1.000000
   82       -3.656176   1.000000
   83       -3.639331   1.000000
   84       -3.631420   1.000000
   85       -3.614811   1.000000
   86       -3.570439   1.000000
   87       -3.557036   1.000000
   88       -3.547470   1.000000
   89       -3.538033   1.000000
   90       -3.510682   1.000000
   91       -3.471552   1.000000
   92       -3.324279   1.000000
   93       -3.312426   1.000000
   94       -3.041024   1.000000
   95       -2.984560   1.000000
   96       -2.976169   1.000000
   97       -2.883898   1.000000
   98       -2.861492   1.000000
   99       -2.771288   1.000000
  100       -2.642138   1.000000
  101       -2.493309   1.000000
  102       -2.409752   1.000000
  103       -2.385384   1.000000
  104       -2.351106   1.000000
  105       -2.296243   1.000000
  106       -2.162564   1.000000
  107       -2.133863   1.000000
  108       -2.076180   1.000000
  109       -2.059704   1.000000
  110       -1.998598   1.000000
  111       -1.923455   1.000000
  112       -1.903893   1.000000
  113       -1.834081   1.000000
  114       -1.799364   1.000000
  115       -1.701326   1.000000
  116       -1.651930   1.000000
  117       -1.623167   1.000000
  118       -1.607034   1.000000
  119       -1.494852   1.000000
  120       -1.424075   1.000000
  121       -1.364961   1.000000
  122       -1.057845   1.000000
  123       -0.874929   1.000000
  124       -0.871482   1.000000
  125       -0.842557   1.000000
  126       -0.659933   1.000000
  127       -0.497366   1.000000
  128       -0.490214   1.000000
  129       -0.414502   1.000000
  130       -0.385557   1.000000
  131       -0.124247   1.000000
  132       -0.100507   1.000000
  133        0.032650   1.000453
  134        0.191788   1.033021
  135        0.215383   1.006303
  136        0.238723   0.936711
  137        0.288802   0.615657
  138        0.306439   0.467650
  139        0.411961  -0.032306
  140        0.419368  -0.034913
  141        0.496353  -0.009735
  142        0.529826  -0.003015
  143        0.540360  -0.001967
  144        0.545532  -0.001580
  145        0.554262  -0.001075
  146        0.563459  -0.000704
  147        0.607330  -0.000072
  148        0.751204  -0.000000
  149        0.776062  -0.000000
  150        0.776980  -0.000000
  151        0.977138  -0.000000
  152        1.008267  -0.000000
  153        1.054360  -0.000000
  154        1.095777  -0.000000
  155        1.138365  -0.000000
  156        1.145091  -0.000000
  157        1.176368  -0.000000
  158        1.259009  -0.000000
  159        1.304717  -0.000000
  160        1.314011  -0.000000
  161        1.329512  -0.000000
  162        1.355279  -0.000000
  163        1.367280  -0.000000
  164        1.375164  -0.000000
  165        1.493440  -0.000000
  166        1.556500  -0.000000
  167        1.568322  -0.000000
  168        1.585433  -0.000000
  169        1.608285  -0.000000
  170        1.620029  -0.000000
  171        1.625533  -0.000000
  172        1.630841  -0.000000
  173        1.655344  -0.000000
  174        1.690858  -0.000000
  175        1.723686  -0.000000
  176        1.742125  -0.000000
  177        1.749259  -0.000000
  178        1.753753  -0.000000
  179        1.840908  -0.000000
  180        1.903862  -0.000000
  181        1.963365  -0.000000
  182        2.030820  -0.000000
  183        2.150893  -0.000000
  184        2.253041  -0.000000

  0.2000000E+00  0.1262379E-14  0.3742002E-15  0.4444444E-01
    1      -14.004403   1.000000
    2      -13.285735   1.000000
    3      -12.797604   1.000000
    4      -12.382170   1.000000
    5      -12.117645   1.000000
    6      -11.904312   1.000000
    7      -11.655030   1.000000
    8      -11.318663   1.000000
    9      -11.295782   1.000000
   10      -11.294412   1.000000
   11      -11.206605   1.000000
   12      -11.115949   1.000000
   13      -10.891094   1.000000
   14      -10.630625   1.000000
   15      -10.624130   1.000000
   16      -10.581078   1.000000
   17      -10.517126   1.000000
   18       -9.861194   1.000000
   19       -9.838842   1.000000
   20       -9.587662   1.000000
   21       -9.526952   1.000000
   22       -9.515447   1.000000
   23       -9.461436   1.000000
   24       -9.362797   1.000000
   25       -9.091442   1.000000
   26       -8.888841   1.000000
   27       -8.348821   1.000000
   28       -8.320309   1.000000
   29       -8.235818   1.000000
   30       -8.156818   1.000000
   31       -8.123743   1.000000
   32       -8.111565   1.000000
   33       -7.687846   1.000000
   34       -7.512112   1.000000
   35       -7.436892   1.000000
   36       -7.283334   1.000000
   37       -7.276621   1.000000
   38       -7.012515   1.000000
   39       -6.930447   1.000000
   40       -6.906399   1.000000
   41       -6.773625   1.000000
   42       -6.703035   1.000000
   43       -6.666661   1.000000
   44       -6.478728   1.000000
   45       -6.459404   1.000000
   46       -6.359617   1.000000
   47       -6.236734   1.000000
   48       -6.136493   1.000000
   49       -6.109238   1.000000
   50       -6.081506   1.000000
   51       -5.819996   1.000000
   52       -5.779340   1.000000
   53       -5.725365   1.000000
   54       -5.608631   1.000000
   55       -5.546960   1.000000
   56       -5.403129   1.000000
   57       -5.401408   1.000000
   58       -5.325523   1.000000
   59       -5.300152   1.000000
   60       -5.254801   1.000000
   61       -5.208867   1.000000
   62       -5.135175   1.000000
   63       -5.064757   1.000000
   64       -4.875955   1.000000
   65       -4.776965   1.000000
   66       -4.628270   1.000000
   67       -4.559670   1.000000
   68       -4.427300   1.000000
   69       -4.419582   1.000000
   70       -4.176274   1.000000
   71       -4.163244   1.000000
   72       -4.141845   1.000000
   73       -4.127458   1.000000
   74       -4.091281   1.000000
   75       -4.057035   1.000000
   76       -3.946175   1.000000
   77       -3.936187   1.000000
   78       -3.899330   1.000000
   79       -3.819929   1.000000
   80       -3.783059   1.000000
   81       -3.746293   1.000000
   82       -3.686801   1.000000
   83       -3.667907   1.000000
   84       -3.642293   1.000000
   85       -3.631109   1.000000
   86       -3.600244   1.000000
   87       -3.548460   1.000000
   88       -3.510366   1.000000
   89       -3.508929   1.000000
   90       -3.505953   1.000000
   91       -3.454364   1.000000
   92       -3.373540   1.000000
   93       -3.325032   1.000000
   94       -3.054597   1.000000
   95       -3.048331   1.000000
   96       -3.006320   1.000000
   97       -2.879473   1.000000
   98       -2.839036   1.000000
   99       -2.747596   1.000000
  100       -2.670434   1.000000
  101       -2.546970   1.000000
  102       -2.398405   1.000000
  103       -2.393849   1.000000
  104       -2.379063   1.000000
  105       -2.268103   1.000000
  106       -2.149539   1.000000
  107       -2.057400   1.000000
  108       -2.029596   1.000000
  109       -2.004853   1.000000
  110       -1.963122   1.000000
  111       -1.954679   1.000000
  112       -1.891051   1.000000
  113       -1.889605   1.000000
  114       -1.719176   1.000000
  115       -1.668367   1.000000
  116       -1.591687   1.000000
  117       -1.557999   1.000000
  118       -1.487645   1.000000
  119       -1.478053   1.000000
  120       -1.364391   1.000000
  121       -1.309546   1.000000
  122       -1.059958   1.000000
  123       -0.953022   1.000000
  124       -0.903052   1.000000
  125       -0.853427   1.000000
  126       -0.747925   1.000000
  127       -0.608777   1.000000
  128       -0.495244   1.000000
  129       -0.456713   1.000000
  130       -0.421393   1.000000
  131       -0.286737   1.000000
  132       -0.255796   1.000000
  133       -0.142328   1.000000
  134        0.057835   1.001458
  135        0.088133   1.004871
  136        0.177365   1.035344
  137        0.268490   0.770986
  138        0.331633   0.265509
  139        0.386345   0.001012
  140        0.509139  -0.006438
  141        0.543571  -0.001718
  142        0.570479  -0.000502
  143        0.582424  -0.000276
  144        0.588421  -0.000202
  145        0.628606  -0.000020
  146        0.637110  -0.000012
  147        0.674566  -0.000001
  148        0.735143  -0.000000
  149        0.747448  -0.000000
  150        0.851418  -0.000000
  151        1.025932  -0.000000
  152        1.062870  -0.000000
  153        1.086538  -0.000000
  154        1.143636  -0.000000
  155        1.193324  -0.000000
  156        1.218755  -0.000000
  157        1.247552  -0.000000
  158        1.280220  -0.000000
  159        1.289188  -0.000000
  160        1.305728  -0.000000
  161        1.379011  -0.000000
  162        1.387134  -0.000000
  163        1.394810  -0.000000
  164        1.428568  -0.000000
  165        1.482726  -0.000000
  166        1.531887  -0.000000
  167        1.553420  -0.000000
  168        1.576666  -0.000000
  169        1.597320  -0.000000
  170        1.609707  -0.000000
  171        1.623713  -0.000000
  172        1.643514  -0.000000
  173        1.679151  -0.000000
  174        1.735871  -0.000000
  175        1.744949  -0.000000
  176        1.794799  -0.000000
  177        1.805947  -0.000000
  178        1.817941  -0.000000
  179        1.888677  -0.000000
  180        1.955736  -0.000000
  181        1.971366  -0.000000
  182        2.036528  -0.000000
  183        2.077111  -0.000000
  184        2.133877  -0.000000

  0.4000000E+00  0.1262379E-14  0.3742002E-15  0.4444444E-01
    1      -13.857854   1.000000
    2      -13.616161   1.000000
    3      -12.662466   1.000000
    4      -12.427676   1.000000
    5      -11.855881   1.000000
    6      -11.828013   1.000000
    7      -11.772835   1.000000
    8      -11.271365   1.000000
    9      -11.225631   1.000000
   10      -11.221867   1.000000
   11      -11.141141   1.000000
   12      -11.061374   1.000000
   13      -10.891695   1.000000
   14      -10.833773   1.000000
   15      -10.750992   1.000000
   16      -10.712425   1.000000
   17      -10.614389   1.000000
   18      -10.131992   1.000000
   19       -9.850500   1.000000
   20       -9.617556   1.000000
   21       -9.513736   1.000000
   22       -9.458076   1.000000
   23       -9.355580   1.000000
   24       -9.275553   1.000000
   25       -9.107364   1.000000
   26       -8.814225   1.000000
   27       -8.360366   1.000000
   28       -8.157604   1.000000
   29       -8.014523   1.000000
   30       -7.922768   1.000000
   31       -7.898665   1.000000
   32       -7.810900   1.000000
   33       -7.804698   1.000000
   34       -7.771937   1.000000
   35       -7.558283   1.000000
   36       -7.541231   1.000000
   37       -7.432054   1.000000
   38       -7.342247   1.000000
   39       -7.166987   1.000000
   40       -6.985654   1.000000
   41       -6.792315   1.000000
   42       -6.730789   1.000000
   43       -6.500330   1.000000
   44       -6.484696   1.000000
   45       -6.418907   1.000000
   46       -6.238296   1.000000
   47       -6.152769   1.000000
   48       -6.047769   1.000000
   49       -5.959445   1.000000
   50       -5.951602   1.000000
   51       -5.892384   1.000000
   52       -5.788292   1.000000
   53       -5.784220   1.000000
   54       -5.719179   1.000000
   55       -5.625311   1.000000
   56       -5.496581   1.000000
   57       -5.372868   1.000000
   58       -5.213858   1.000000
   59       -5.206456   1.000000
   60       -5.162264   1.000000
   61       -5.135481   1.000000
   62       -5.023082   1.000000
   63       -4.950136   1.000000
   64       -4.929060   1.000000
   65       -4.760130   1.000000
   66       -4.627419   1.000000
   67       -4.588533   1.000000
   68       -4.433772   1.000000
   69       -4.417159   1.000000
   70       -4.379548   1.000000
   71       -4.278004   1.000000
   72       -4.186647   1.000000
   73       -4.116307   1.000000
   74       -4.079976   1.000000
   75       -4.045403   1.000000
   76       -4.044232   1.000000
   77       -4.016555   1.000000
   78       -3.984462   1.000000
   79       -3.865252   1.000000
   80       -3.755490   1.000000
   81       -3.742183   1.000000
   82       -3.732251   1.000000
   83       -3.728215   1.000000
   84       -3.677252   1.000000
   85       -3.597726   1.000000
   86       -3.532254   1.000000
   87       -3.509194   1.000000
   88       -3.490247   1.000000
   89       -3.364154   1.000000
   90       -3.361030   1.000000
   91       -3.330973   1.000000
   92       -3.323116   1.000000
   93       -3.253730   1.000000
   94       -3.168368   1.000000
   95       -3.136380   1.000000
   96       -3.089676   1.000000
   97       -2.994587   1.000000
   98       -2.877524   1.000000
   99       -2.868538   1.000000
  100       -2.696795   1.000000
  101       -2.557684   1.000000
  102       -2.421028   1.000000
  103       -2.337483   1.000000
  104       -2.240293   1.000000
  105       -2.227976   1.000000
  106       -2.209859   1.000000
  107       -2.091360   1.000000
  108       -2.076367   1.000000
  109       -1.997643   1.000000
  110       -1.990535   1.000000
  111       -1.979783   1.000000
  112       -1.715068   1.000000
  113       -1.646405   1.000000
  114       -1.584027   1.000000
  115       -1.570941   1.000000
  116       -1.560026   1.000000
  117       -1.466358   1.000000
  118       -1.334111   1.000000
  119       -1.280574   1.000000
  120       -1.174451   1.000000
  121       -1.141918   1.000000
  122       -1.110145   1.000000
  123       -1.091950   1.000000
  124       -1.047333   1.000000
  125       -0.978804   1.000000
  126       -0.843828   1.000000
  127       -0.784599   1.000000
  128       -0.734528   1.000000
  129       -0.641861   1.000000
  130       -0.615122   1.000000
  131       -0.476411   1.000000
  132       -0.395491   1.000000
  133       -0.157172   1.000000
  134       -0.128099   1.000000
  135        0.016263   1.000196
  136        0.218147   1.000610
  137        0.273892   0.732306
  138        0.295403   0.560850
  139        0.371495   0.044094
  140        0.476231  -0.017000
  141        0.498695  -0.009055
  142        0.512782  -0.005677
  143        0.575973  -0.000383
  144        0.601511  -0.000099
  145        0.646178  -0.000007
  146        0.665792  -0.000002
  147        0.755248  -0.000000
  148        0.861974  -0.000000
  149        0.913239  -0.000000
  150        0.949509  -0.000000
  151        1.073133  -0.000000
  152        1.124753  -0.000000
  153        1.129817  -0.000000
  154        1.197721  -0.000000
  155        1.213020  -0.000000
  156        1.272809  -0.000000
  157        1.326904  -0.000000
  158        1.351488  -0.000000
  159        1.403467  -0.000000
  160        1.414944  -0.000000
  161        1.424401  -0.000000
  162        1.436260  -0.000000
  163        1.449646  -0.000000
  164        1.518882  -0.000000
  165        1.545660  -0.000000
  166        1.550963  -0.000000
  167        1.561371  -0.000000
  168        1.584586  -0.000000
  169        1.595413  -0.000000
  170        1.645975  -0.000000
  171        1.668532  -0.000000
  172        1.713223  -0.000000
  173        1.736944  -0.000000
  174        1.752050  -0.000000
  175        1.766370  -0.000000
  176        1.792914  -0.000000
  177        1.840208  -0.000000
  178        1.863551  -0.000000
  179        1.910770  -0.000000
  180        1.950031  -0.000000
  181        1.979429  -0.000000
  182        1.990064  -0.000000
  183        2.030468  -0.000000
  184        2.046104  -0.000000

  0.3742002E-15  0.1262379E-14  0.1111111E+00  0.4444444E-01
    1      -14.008243   1.000000
    2      -12.850911   1.000000
    3      -12.832429   1.000000
    4      -12.795035   1.000000
    5      -12.025958   1.000000
    6      -11.720999   1.000000
    7      -11.674327   1.000000
    8      -11.551052   1.000000
    9      -11.543066   1.000000
   10      -11.380075   1.000000
   11      -11.236403   1.000000
   12      -11.047948   1.000000
   13      -11.010452   1.000000
   14      -10.522221   1.000000
   15      -10.493716   1.000000
   16      -10.313743   1.000000
   17      -10.187529   1.000000
   18      -10.076861   1.000000
   19       -9.845193   1.000000
   20       -9.665375   1.000000
   21       -9.573269   1.000000
   22       -9.548147   1.000000
   23       -9.424313   1.000000
   24       -9.403155   1.000000
   25       -8.898783   1.000000
   26       -8.872409   1.000000
   27       -8.665643   1.000000
   28       -8.477751   1.000000
   29       -8.386993   1.000000
   30       -8.199993   1.000000
   31       -8.032552   1.000000
   32       -7.908344   1.000000
   33       -7.862898   1.000000
   34       -7.456274   1.000000
   35       -7.398189   1.000000
   36       -7.355947   1.000000
   37       -7.052749   1.000000
   38       -6.913766   1.000000
   39       -6.888155   1.000000
   40       -6.808181   1.000000
   41       -6.698980   1.000000
   42       -6.696272   1.000000
   43       -6.665147   1.000000
   44       -6.520084   1.000000
   45       -6.391988   1.000000
   46       -6.323572   1.000000
   47       -6.284806   1.000000
   48       -6.208840   1.000000
   49       -6.191565   1.000000
   50       -5.944833   1.000000
   51       -5.813903   1.000000
   52       -5.755985   1.000000
   53       -5.726762   1.000000
   54       -5.694250   1.000000
   55       -5.576589   1.000000
   56       -5.503981   1.000000
   57       -5.454977   1.000000
   58       -5.399526   1.000000
   59       -5.361312   1.000000
   60       -5.282656   1.000000
   61       -5.202528   1.000000
   62       -5.078658   1.000000
   63       -4.739450   1.000000
   64       -4.717473   1.000000
   65       -4.689185   1.000000
   66       -4.613360   1.000000
   67       -4.588158   1.000000
   68       -4.460326   1.000000
   69       -4.365899   1.000000
   70       -4.192724   1.000000
   71       -4.169304   1.000000
   72       -4.138948   1.000000
   73       -4.101029   1.000000
   74       -4.059799   1.000000
   75       -4.039417   1.000000
   76       -4.004040   1.000000
   77       -3.990129   1.000000
   78       -3.987434   1.000000
   79       -3.981948   1.000000
   80       -3.873316   1.000000
   81       -3.820706   1.000000
   82       -3.805668   1.000000
   83       -3.741722   1.000000
   84       -3.716504   1.000000
   85       -3.674850   1.000000
   86       -3.613987   1.000000
   87       -3.597012   1.000000
   88       -3.544547   1.000000
   89       -3.538288   1.000000
   90       -3.523040   1.000000
   91       -3.443277   1.000000
   92       -3.342400   1.000000
   93       -3.287226   1.000000
   94       -3.024008   1.000000
   95       -2.985957   1.000000
   96       -2.945371   1.000000
   97       -2.847405   1.000000
   98       -2.770401   1.000000
   99       -2.694686   1.000000
  100       -2.563969   1.000000
  101       -2.522374   1.000000
  102       -2.486913   1.000000
  103       -2.460919   1.000000
  104       -2.306880   1.000000
  105       -2.264197   1.000000
  106       -2.228717   1.000000
  107       -2.142377   1.000000
  108       -2.065428   1.000000
  109       -2.052534   1.000000
  110       -2.010197   1.000000
  111       -1.947477   1.000000
  112       -1.892714   1.000000
  113       -1.800767   1.000000
  114       -1.759211   1.000000
  115       -1.740387   1.000000
  116       -1.710847   1.000000
  117       -1.652068   1.000000
  118       -1.565086   1.000000
  119       -1.443858   1.000000
  120       -1.336148   1.000000
  121       -1.287855   1.000000
  122       -1.040123   1.000000
  123       -0.968386   1.000000
  124       -0.816316   1.000000
  125       -0.773007   1.000000
  126       -0.622483   1.000000
  127       -0.602641   1.000000
  128       -0.578559   1.000000
  129       -0.527131   1.000000
  130       -0.267376   1.000000
  131       -0.213178   1.000000
  132       -0.193860   1.000000
  133        0.105595   1.008793
  134        0.157882   1.029923
  135        0.186180   1.034848
  136        0.211082   1.013961
  137        0.233843   0.955507
  138        0.252475   0.870859
  139        0.335624   0.236801
  140        0.375303   0.031087
  141        0.383807   0.006962
  142        0.388053  -0.002684
  143        0.543972  -0.001689
  144        0.568538  -0.000552
  145        0.579147  -0.000326
  146        0.744179  -0.000000
  147        0.771174  -0.000000
  148        0.812182  -0.000000
  149        0.901782  -0.000000
  150        0.932745  -0.000000
  151        0.957207  -0.000000
  152        1.001020  -0.000000
  153        1.027606  -0.000000
  154        1.105878  -0.000000
  155        1.137916  -0.000000
  156        1.196239  -0.000000
  157        1.206075  -0.000000
  158        1.215315  -0.000000
  159        1.267345  -0.000000
  160        1.303264  -0.000000
  161        1.331634  -0.000000
  162        1.360162  -0.000000
  163        1.382777  -0.000000
  164        1.416320  -0.000000
  165        1.491020  -0.000000
  166        1.500464  -0.000000
  167        1.515167  -0.000000
  168        1.557534  -0.000000
  169        1.560657  -0.000000
  170        1.595339  -0.000000
  171        1.598594  -0.000000
  172        1.648162  -0.000000
  173        1.707883  -0.000000
  174        1.725116  -0.000000
  175        1.759935  -0.000000
  176        1.770849  -0.000000
  177        1.806993  -0.000000
  178        1.826453  -0.000000
  179        1.860069  -0.000000
  180        1.875884  -0.000000
  181        1.950877  -0.000000
  182        1.967540  -0.000000
  183        2.055888  -0.000000
  184        2.232099  -0.000000

  0.2000000E+00  0.1262379E-14  0.1111111E+00  0.4444444E-01
    1      -13.959413   1.000000
    2      -13.247039   1.000000
    3      -12.759615   1.000000
    4      -12.353084   1.000000
    5      -12.085466   1.000000
    6      -12.007002   1.000000
    7      -11.716850   1.000000
    8      -11.369238   1.000000
    9      -11.341857   1.000000
   10      -11.262715   1.000000
   11      -11.174293   1.000000
   12      -11.140402   1.000000
   13      -10.892622   1.000000
   14      -10.610871   1.000000
   15      -10.606087   1.000000
   16      -10.562573   1.000000
   17      -10.530026   1.000000
   18       -9.854102   1.000000
   19       -9.841600   1.000000
   20       -9.596444   1.000000
   21       -9.533663   1.000000
   22       -9.517817   1.000000
   23       -9.449030   1.000000
   24       -9.370935   1.000000
   25       -9.091651   1.000000
   26       -8.880580   1.000000
   27       -8.372510   1.000000
   28       -8.330211   1.000000
   29       -8.220805   1.000000
   30       -8.172805   1.000000
   31       -8.114197   1.000000
   32       -7.966958   1.000000
   33       -7.766334   1.000000
   34       -7.594797   1.000000
   35       -7.421768   1.000000
   36       -7.364579   1.000000
   37       -7.161134   1.000000
   38       -6.998460   1.000000
   39       -6.956919   1.000000
   40       -6.915997   1.000000
   41       -6.753996   1.000000
   42       -6.683533   1.000000
   43       -6.608981   1.000000
   44       -6.538900   1.000000
   45       -6.507936   1.000000
   46       -6.439840   1.000000
   47       -6.217066   1.000000
   48       -6.166133   1.000000
   49       -6.042257   1.000000
   50       -5.913276   1.000000
   51       -5.833864   1.000000
   52       -5.777458   1.000000
   53       -5.743050   1.000000
   54       -5.634484   1.000000
   55       -5.524316   1.000000
   56       -5.398125   1.000000
   57       -5.329083   1.000000
   58       -5.300931   1.000000
   59       -5.264461   1.000000
   60       -5.211400   1.000000
   61       -5.186607   1.000000
   62       -5.110843   1.000000
   63       -5.044471   1.000000
   64       -4.839471   1.000000
   65       -4.740584   1.000000
   66       -4.610346   1.000000
   67       -4.487370   1.000000
   68       -4.431966   1.000000
   69       -4.406841   1.000000
   70       -4.214165   1.000000
   71       -4.192170   1.000000
   72       -4.157222   1.000000
   73       -4.111222   1.000000
   74       -4.085086   1.000000
   75       -4.065430   1.000000
   76       -4.022520   1.000000
   77       -3.995153   1.000000
   78       -3.944163   1.000000
   79       -3.857308   1.000000
   80       -3.825136   1.000000
   81       -3.811198   1.000000
   82       -3.792852   1.000000
   83       -3.759807   1.000000
   84       -3.721627   1.000000
   85       -3.694527   1.000000
   86       -3.642192   1.000000
   87       -3.612110   1.000000
   88       -3.567921   1.000000
   89       -3.526045   1.000000
   90       -3.468921   1.000000
   91       -3.390721   1.000000
   92       -3.349704   1.000000
   93       -3.301156   1.000000
   94       -3.036862   1.000000
   95       -2.985859   1.000000
   96       -2.940945   1.000000
   97       -2.901445   1.000000
   98       -2.864177   1.000000
   99       -2.730207   1.000000
  100       -2.665520   1.000000
  101       -2.552968   1.000000
  102       -2.421855   1.000000
  103       -2.385755   1.000000
  104       -2.339710   1.000000
  105       -2.265720   1.000000
  106       -2.210469   1.000000
  107       -2.089522   1.000000
  108       -2.054708   1.000000
  109       -2.018246   1.000000
  110       -2.001294   1.000000
  111       -1.953435   1.000000
  112       -1.870772   1.000000
  113       -1.795238   1.000000
  114       -1.730394   1.000000
  115       -1.663612   1.000000
  116       -1.634759   1.000000
  117       -1.581951   1.000000
  118       -1.534276   1.000000
  119       -1.428479   1.000000
  120       -1.343831   1.000000
  121       -1.253913   1.000000
  122       -1.082719   1.000000
  123       -0.951126   1.000000
  124       -0.905016   1.000000
  125       -0.851525   1.000000
  126       -0.733771   1.000000
  127       -0.682485   1.000000
  128       -0.676418   1.000000
  129       -0.451600   1.000000
  130       -0.385667   1.000000
  131       -0.222307   1.000000
  132       -0.091165   1.000000
  133        0.022518   1.000272
  134        0.076573   1.003156
  135        0.096576   1.006546
  136        0.111901   1.010667
  137        0.170662   1.034245
  138        0.257287   0.843360
  139        0.313982   0.404476
  140        0.397601  -0.019112
  141        0.452459  -0.027720
  142        0.469420  -0.019959
  143        0.561588  -0.000768
  144        0.590135  -0.000184
  145        0.608449  -0.000067
  146        0.729385  -0.000000
  147        0.808042  -0.000000
  148        0.839584  -0.000000
  149        0.891531  -0.000000
  150        0.947965  -0.000000
  151        0.973754  -0.000000
  152        0.988185  -0.000000
  153        1.108290  -0.000000
  154        1.173782  -0.000000
  155        1.222230  -0.000000
  156        1.241703  -0.000000
  157        1.259512  -0.000000