   51   51    1    1
  0.1619339E+02  0.6071501E-09  0.6071501E-09  0.2586333E-08  0.5000000E-15
   1.0000000000000000E-004
  CAR 
 Name                                    
    195     41    126

  0.3742002E-15  0.3742002E-15  0.1262379E-14  0.1234568E-01
    1      -12.637694   1.000000
    2      -11.952099   1.000000
    3      -11.205504   1.000000
    4      -10.026900   1.000000
    5       -9.530699   1.000000
    6       -9.437323   1.000000
    7       -9.334250   1.000000
    8       -9.018655   1.000000
    9       -8.938265   1.000000
   10       -8.896477   1.000000
   11       -8.733134   1.000000
   12       -8.697202   1.000000
   13       -8.683518   1.000000
   14       -8.623461   1.000000
   15       -8.617342   1.000000
   16       -8.608461   1.000000
   17       -8.035251   1.000000
   18       -8.017980   1.000000
   19       -7.950844   1.000000
   20       -7.738613   1.000000
   21       -7.333254   1.000000
   22       -7.197814   1.000000
   23       -7.140337   1.000000
   24       -6.750784   1.000000
   25       -6.704841   1.000000
   26       -6.639240   1.000000
   27       -5.958864   1.000000
   28       -5.607300   1.000000
   29       -5.542400   1.000000
   30       -5.501625   1.000000
   31       -4.569503   1.000000
   32       -4.482619   1.000000
   33       -4.427556   1.000000
   34       -4.308348   1.000000
   35       -3.830709   1.000000
   36       -3.808619   1.000000
   37       -3.765621   1.000000
   38       -3.726928   1.000000
   39       -3.698882   1.000000
   40       -3.631555   1.000000
   41       -3.569986   1.000000
   42       -3.547724   1.000000
   43       -3.249019   1.000000
   44       -3.102641   1.000000
   45       -3.064732   1.000000
   46       -3.038933   1.000000
   47       -3.008417   1.000000
   48       -2.991598   1.000000
   49       -2.929969   1.000000
   50       -2.909239   1.000000
   51       -2.869766   1.000000
   52       -2.729682   1.000000
   53       -2.586607   1.000000
   54       -2.560267   1.000000
   55       -2.485985   1.000000
   56       -2.464473   1.000000
   57       -2.455747   1.000000
   58       -2.406033   1.000000
   59       -2.363959   1.000000
   60       -2.295438   1.000000
   61       -2.164696   1.000000
   62       -2.148872   1.000000
   63       -2.147894   1.000000
   64       -2.109584   1.000000
   65       -2.054901   1.000000
   66       -2.030835   1.000000
   67       -1.747521   1.000000
   68       -1.734125   1.000000
   69       -1.558998   1.000000
   70       -1.257670   1.000000
   71       -1.119235   1.000000
   72       -1.085196   1.000000
   73       -1.038280   1.000000
   74       -0.920663   1.000000
   75       -0.332210   1.000000
   76       -0.165448   1.000000
   77       -0.135995   1.000000
   78        0.077795   1.000000
   79        0.092569   1.000000
   80        0.253057   1.000000
   81        0.494919   1.000000
   82        0.509996   1.000000
   83        0.552202   1.000000
   84        0.571243   1.000000
   85        0.720170   1.000000
   86        0.735002   1.000000
   87        1.105990   1.000000
   88        1.188563   1.000000
   89        1.251121   1.000000
   90        1.438021   1.000174
   91        1.477541   1.000480
   92        1.633199   1.010582
   93        1.664715   1.016333
   94        1.835185   1.011377
   95        1.889289   0.932754
   96        1.936481   0.806080
   97        2.058381   0.321772
   98        2.310342  -0.028712
   99        2.362436  -0.016991
  100        2.471509  -0.002903
  101        2.543932  -0.000595
  102        2.567490  -0.000333
  103        2.627388  -0.000066
  104        2.669251  -0.000019
  105        2.816673  -0.000000
  106        2.844817  -0.000000
  107        2.896563  -0.000000
  108        2.928401  -0.000000
  109        2.968599  -0.000000
  110        3.041369  -0.000000
  111        3.062939  -0.000000
  112        3.156318  -0.000000
  113        3.171995  -0.000000
  114        3.216556  -0.000000
  115        3.226465  -0.000000
  116        3.247603  -0.000000
  117        3.329210  -0.000000
  118        3.343451  -0.000000
  119        3.473012  -0.000000
  120        3.492581  -0.000000
  121        3.661262  -0.000000
  122        3.991250  -0.000000
  123        4.175886  -0.000000
  124        4.418745  -0.000000
  125        4.520645  -0.000000
  126        4.612869  -0.000000

  0.1111111E+00  0.3762813E-15  0.1262379E-14  0.2469136E-01
    1      -12.579686   1.000000
    2      -11.900934   1.000000
    3      -11.169078   1.000000
    4       -9.994159   1.000000
    5       -9.611915   1.000000
    6       -9.447649   1.000000
    7       -9.429118   1.000000
    8       -9.348291   1.000000
    9       -9.232295   1.000000
   10       -9.071679   1.000000
   11       -8.990412   1.000000
   12       -8.978794   1.000000
   13       -8.930513   1.000000
   14       -8.298043   1.000000
   15       -8.258155   1.000000
   16       -8.089326   1.000000
   17       -7.895820   1.000000
   18       -7.860853   1.000000
   19       -7.773067   1.000000
   20       -7.536138   1.000000
   21       -7.256668   1.000000
   22       -7.189076   1.000000
   23       -7.034032   1.000000
   24       -6.780634   1.000000
   25       -6.725100   1.000000
   26       -6.559283   1.000000
   27       -5.923769   1.000000
   28       -5.505726   1.000000
   29       -5.478463   1.000000
   30       -5.285659   1.000000
   31       -4.558695   1.000000
   32       -4.469491   1.000000
   33       -4.455854   1.000000
   34       -4.283097   1.000000
   35       -3.889032   1.000000
   36       -3.871800   1.000000
   37       -3.826257   1.000000
   38       -3.783457   1.000000
   39       -3.674397   1.000000
   40       -3.618400   1.000000
   41       -3.582578   1.000000
   42       -3.568185   1.000000
   43       -3.493249   1.000000
   44       -3.453029   1.000000
   45       -3.223939   1.000000
   46       -3.083067   1.000000
   47       -3.017826   1.000000
   48       -2.980715   1.000000
   49       -2.917480   1.000000
   50       -2.832586   1.000000
   51       -2.784871   1.000000
   52       -2.692690   1.000000
   53       -2.597005   1.000000
   54       -2.580356   1.000000
   55       -2.531693   1.000000
   56       -2.481562   1.000000
   57       -2.423367   1.000000
   58       -2.373341   1.000000
   59       -2.354804   1.000000
   60       -2.238611   1.000000
   61       -2.206203   1.000000
   62       -2.168395   1.000000
   63       -2.153431   1.000000
   64       -2.066528   1.000000
   65       -1.971424   1.000000
   66       -1.916472   1.000000
   67       -1.809454   1.000000
   68       -1.753075   1.000000
   69       -1.510692   1.000000
   70       -1.473575   1.000000
   71       -1.339724   1.000000
   72       -1.159740   1.000000
   73       -1.094187   1.000000
   74       -0.920404   1.000000
   75       -0.448951   1.000000
   76       -0.325284   1.000000
   77       -0.221255   1.000000
   78        0.040076   1.000000
   79        0.119208   1.000000
   80        0.223872   1.000000
   81        0.264598   1.000000
   82        0.461266   1.000000
   83        0.514045   1.000000
   84        0.564959   1.000000
   85        0.628056   1.000000
   86        0.808423   1.000000
   87        1.109877   1.000000
   88        1.182367   1.000000
   89        1.342059   1.000010
   90        1.497988   1.000782
   91        1.548998   1.002384
   92        1.654447   1.014295
   93        1.686751   1.021134
   94        1.722866   1.029330
   95        1.882982   0.945472
   96        1.943013   0.784378
   97        2.059792   0.316264
   98        2.298945  -0.031060
   99        2.400140  -0.010113
  100        2.459395  -0.003670
  101        2.556870  -0.000434
  102        2.572356  -0.000294
  103        2.617554  -0.000087
  104        2.658050  -0.000027
  105        2.736208  -0.000002
  106        2.796094  -0.000000
  107        2.840099  -0.000000
  108        2.912656  -0.000000
  109        2.932335  -0.000000
  110        2.973292  -0.000000
  111        2.993053  -0.000000
  112        3.063393  -0.000000
  113        3.125472  -0.000000
  114        3.165337  -0.000000
  115        3.172897  -0.000000
  116        3.229928  -0.000000
  117        3.279796  -0.000000
  118        3.372753  -0.000000
  119        3.400049  -0.000000
  120        3.439735  -0.000000
  121        3.516504  -0.000000
  122        3.615092  -0.000000
  123        3.771805  -0.000000
  124        3.973148  -0.000000
  125        4.555562  -0.000000
  126        4.683272  -0.000000

  0.2222222E+00  0.3499357E-15  0.1262379E-14  0.2469136E-01
    1      -12.407499   1.000000
    2      -11.749638   1.000000
    3      -11.062207   1.000000
    4      -10.112061   1.000000
    5       -9.899868   1.000000
    6       -9.819864   1.000000
    7       -9.720031   1.000000
    8       -9.470914   1.000000
    9       -9.462331   1.000000
   10       -9.245958   1.000000
   11       -9.202991   1.000000
   12       -9.107872   1.000000
   13       -9.091202   1.000000
   14       -8.301112   1.000000
   15       -7.816027   1.000000
   16       -7.806817   1.000000
   17       -7.620495   1.000000
   18       -7.564400   1.000000
   19       -7.257259   1.000000
   20       -7.144724   1.000000
   21       -7.077494   1.000000
   22       -7.011355   1.000000
   23       -6.801322   1.000000
   24       -6.737373   1.000000
   25       -6.459103   1.000000
   26       -6.312124   1.000000
   27       -5.779308   1.000000
   28       -5.363988   1.000000
   29       -5.283683   1.000000
   30       -4.809318   1.000000
   31       -4.596481   1.000000
   32       -4.570641   1.000000
   33       -4.395358   1.000000
   34       -4.259666   1.000000
   35       -4.192786   1.000000
   36       -4.165967   1.000000
   37       -4.128028   1.000000
   38       -4.100861   1.000000
   39       -3.883019   1.000000
   40       -3.775763   1.000000
   41       -3.619284   1.000000
   42       -3.551396   1.000000
   43       -3.514528   1.000000
   44       -3.457469   1.000000
   45       -3.209941   1.000000
   46       -3.150473   1.000000
   47       -3.087936   1.000000
   48       -3.068208   1.000000
   49       -2.972197   1.000000
   50       -2.904592   1.000000
   51       -2.858097   1.000000
   52       -2.735896   1.000000
   53       -2.683364   1.000000
   54       -2.594334   1.000000
   55       -2.553791   1.000000
   56       -2.503413   1.000000
   57       -2.427870   1.000000
   58       -2.379742   1.000000
   59       -2.342853   1.000000
   60       -2.312486   1.000000
   61       -2.274914   1.000000
   62       -2.233371   1.000000
   63       -2.191106   1.000000
   64       -2.110720   1.000000
   65       -2.062414   1.000000
   66       -1.930905   1.000000
   67       -1.873089   1.000000
   68       -1.789719   1.000000
   69       -1.658835   1.000000
   70       -1.522886   1.000000
   71       -1.298922   1.000000
   72       -1.122764   1.000000
   73       -1.054891   1.000000
   74       -0.929956   1.000000
   75       -0.770410   1.000000
   76       -0.601695   1.000000
   77       -0.350706   1.000000
   78       -0.260427   1.000000
   79       -0.128297   1.000000
   80        0.240827   1.000000
   81        0.373311   1.000000
   82        0.387101   1.000000
   83        0.433888   1.000000
   84        0.443461   1.000000
   85        0.566118   1.000000
   86        0.737877   1.000000
   87        0.838615   1.000000
   88        1.039616   1.000000
   89        1.189530   1.000000
   90        1.288639   1.000002
   91        1.527837   1.001530
   92        1.664702   1.016330
   93        1.716750   1.028004
   94        1.805831   1.029315
   95        1.970023   0.685708
   96        2.097610   0.181829
   97        2.203370  -0.017878
   98        2.234824  -0.032552
   99        2.309418  -0.028911
  100        2.348138  -0.020102
  101        2.423269  -0.006998
  102        2.466939  -0.003175
  103        2.507140  -0.001383
  104        2.591837  -0.000177
  105        2.641933  -0.000043
  106        2.693008  -0.000009
  107        2.738608  -0.000002
  108        2.820671  -0.000000
  109        2.863470  -0.000000
  110        2.920252  -0.000000
  111        2.964313  -0.000000
  112        3.004147  -0.000000
  113        3.074010  -0.000000
  114        3.089179  -0.000000
  115        3.169021  -0.000000
  116        3.192388  -0.000000
  117        3.239166  -0.000000
  118        3.279386  -0.000000
  119        3.308563  -0.000000
  120        3.375679  -0.000000
  121        3.477258  -0.000000
  122        3.553871  -0.000000
  123        3.628971  -0.000000
  124        3.755370  -0.000000
  125        3.886090  -0.000000
  126        4.291564  -0.000000

  0.3333333E+00  0.3916643E-15  0.1262379E-14  0.2469136E-01
    1      -12.126477   1.000000
    2      -11.504927   1.000000
    3      -10.893006   1.000000
    4      -10.716961   1.000000
    5      -10.299392   1.000000
    6      -10.073867   1.000000
    7       -9.753940   1.000000
    8       -9.544145   1.000000
    9       -9.528833   1.000000
   10       -9.329552   1.000000
   11       -9.323462   1.000000
   12       -9.203063   1.000000
   13       -9.194462   1.000000
   14       -8.568346   1.000000
   15       -7.648219   1.000000
   16       -7.434135   1.000000
   17       -7.284139   1.000000
   18       -7.229823   1.000000
   19       -6.999912   1.000000
   20       -6.955793   1.000000
   21       -6.885891   1.000000
   22       -6.728948   1.000000
   23       -6.288021   1.000000
   24       -6.136113   1.000000
   25       -6.012557   1.000000
   26       -5.798925   1.000000
   27       -5.553680   1.000000
   28       -5.183339   1.000000
   29       -5.043632   1.000000
   30       -4.889706   1.000000
   31       -4.836301   1.000000
   32       -4.735018   1.000000
   33       -4.670368   1.000000
   34       -4.620209   1.000000
   35       -4.569133   1.000000
   36       -4.447455   1.000000
   37       -4.213864   1.000000
   38       -4.042971   1.000000
   39       -3.907191   1.000000
   40       -3.841325   1.000000
   41       -3.806327   1.000000
   42       -3.529627   1.000000
   43       -3.427252   1.000000
   44       -3.391777   1.000000
   45       -3.320834   1.000000
   46       -3.302144   1.000000
   47       -3.286511   1.000000
   48       -3.180824   1.000000
   49       -3.099686   1.000000
   50       -3.018352   1.000000
   51       -2.956853   1.000000
   52       -2.877243   1.000000
   53       -2.817928   1.000000
   54       -2.714571   1.000000
   55       -2.667516   1.000000
   56       -2.602182   1.000000
   57       -2.547486   1.000000
   58       -2.490059   1.000000
   59       -2.436157   1.000000
   60       -2.348346   1.000000
   61       -2.303657   1.000000
   62       -2.262072   1.000000
   63       -2.223649   1.000000
   64       -2.126569   1.000000
   65       -2.051298   1.000000
   66       -1.979130   1.000000
   67       -1.951787   1.000000
   68       -1.793752   1.000000
   69       -1.516926   1.000000
   70       -1.468105   1.000000
   71       -1.354009   1.000000
   72       -1.171527   1.000000
   73       -0.989882   1.000000
   74       -0.796161   1.000000
   75       -0.720092   1.000000
   76       -0.614003   1.000000
   77       -0.543288   1.000000
   78       -0.464482   1.000000
   79       -0.390940   1.000000
   80        0.142070   1.000000
   81        0.185957   1.000000
   82        0.244188   1.000000
   83        0.309057   1.000000
   84        0.555799   1.000000
   85        0.570192   1.000000
   86        0.623432   1.000000
   87        0.775312   1.000000
   88        0.916357   1.000000
   89        1.014953   1.000000
   90        1.189419   1.000000
   91        1.302112   1.000003
   92        1.518533   1.001248
   93        1.563352   1.003173
   94        1.711405   1.026807
   95        1.813332   1.026051
   96        1.857442   0.987072
   97        1.960233   0.722985
   98        2.069449   0.279405
   99        2.103297   0.164200
  100        2.209183  -0.021741
  101        2.284381  -0.033544
  102        2.329735  -0.024322
  103        2.351343  -0.019387
  104        2.448849  -0.004469
  105        2.570172  -0.000311
  106        2.637918  -0.000049
  107        2.694685  -0.000009
  108        2.746074  -0.000002
  109        2.804737  -0.000000
  110        2.849782  -0.000000
  111        2.930465  -0.000000
  112        2.992857  -0.000000
  113        3.022916  -0.000000
  114        3.073165  -0.000000
  115        3.148130  -0.000000
  116        3.219789  -0.000000
  117        3.329551  -0.000000
  118        3.352856  -0.000000
  119        3.433113  -0.000000
  120        3.511669  -0.000000
  121        3.582850  -0.000000
  122        3.649663  -0.000000
  123        3.705998  -0.000000
  124        3.795952  -0.000000
  125        3.939756  -0.000000
  126        3.955181  -0.000000

  0.4444444E+00  0.3830161E-15  0.1262379E-14  0.2469136E-01
    1      -11.745146   1.000000
    2      -11.283653   1.000000
    3      -11.162500   1.000000
    4      -10.767179   1.000000
    5      -10.654921   1.000000
    6      -10.385451   1.000000
    7       -9.619667   1.000000
    8       -9.599376   1.000000
    9       -9.580677   1.000000
   10       -9.374763   1.000000
   11       -9.348555   1.000000
   12       -9.261324   1.000000
   13       -9.232126   1.000000
   14       -8.791218   1.000000
   15       -7.664861   1.000000
   16       -7.303812   1.000000
   17       -7.004986   1.000000
   18       -6.986232   1.000000
   19       -6.733018   1.000000
   20       -6.681534   1.000000
   21       -6.643960   1.000000
   22       -6.629646   1.000000
   23       -5.656364   1.000000
   24       -5.524858   1.000000
   25       -5.464357   1.000000
   26       -5.394905   1.000000
   27       -5.381500   1.000000
   28       -5.338296   1.000000
   29       -5.176018   1.000000
   30       -5.117489   1.000000
   31       -5.044599   1.000000
   32       -4.898108   1.000000
   33       -4.811639   1.000000
   34       -4.786270   1.000000
   35       -4.717243   1.000000
   36       -4.606068   1.000000
   37       -4.559516   1.000000
   38       -4.311653   1.000000
   39       -4.145921   1.000000
   40       -3.894276   1.000000
   41       -3.792877   1.000000
   42       -3.659286   1.000000
   43       -3.580334   1.000000
   44       -3.534707   1.000000
   45       -3.358410   1.000000
   46       -3.284508   1.000000
   47       -3.232309   1.000000
   48       -3.145750   1.000000
   49       -3.106492   1.000000
   50       -3.018229   1.000000
   51       -2.959473   1.000000
   52       -2.923126   1.000000
   53       -2.854786   1.000000
   54       -2.779462   1.000000
   55       -2.724564   1.000000
   56       -2.683787   1.000000
   57       -2.656011   1.000000
   58       -2.586585   1.000000
   59       -2.482020   1.000000
   60       -2.431004   1.000000
   61       -2.400157   1.000000
   62       -2.308938   1.000000
   63       -2.271986   1.000000
   64       -2.124175   1.000000
   65       -2.048226   1.000000
   66       -1.940886   1.000000
   67       -1.897462   1.000000
   68       -1.802181   1.000000
   69       -1.554630   1.000000
   70       -1.331057   1.000000
   71       -1.244901   1.000000
   72       -1.149913   1.000000
   73       -1.059584   1.000000
   74       -0.970680   1.000000
   75       -0.706100   1.000000
   76       -0.682763   1.000000
   77       -0.588299   1.000000
   78       -0.236924   1.000000
   79       -0.217407   1.000000
   80       -0.036627   1.000000
   81       -0.011675   1.000000
   82        0.077794   1.000000
   83        0.170534   1.000000
   84        0.464454   1.000000
   85        0.614313   1.000000
   86        0.683908   1.000000
   87        0.840145   1.000000
   88        1.006213   1.000000
   89        1.097620   1.000000
   90        1.146837   1.000000
   91        1.181041   1.000000
   92        1.230910   1.000000
   93        1.435431   1.000163
   94        1.538480   1.001919
   95        1.589120   1.005133
   96        1.673102   1.018101
   97        1.750334   1.034133
   98        1.857459   0.987049
   99        1.911975   0.878721
  100        1.950305   0.759088
  101        2.102469   0.166720
  102        2.141875   0.065490
  103        2.269363  -0.035148
  104        2.308351  -0.029140
  105        2.426447  -0.006634
  106        2.483972  -0.002259
  107        2.628567  -0.000064
  108        2.655736  -0.000029
  109        2.723045  -0.000003
  110        2.784558  -0.000000
  111        2.914798  -0.000000
  112        2.937395  -0.000000
  113        3.033540  -0.000000
  114        3.188930  -0.000000
  115        3.246079  -0.000000
  116        3.357651  -0.000000
  117        3.426213  -0.000000
  118        3.453993  -0.000000
  119        3.594279  -0.000000
  120        3.710149  -0.000000
  121        3.744285  -0.000000
  122        3.782146  -0.000000
  123        3.840738  -0.000000
  124        3.942425  -0.000000
  125        4.021491  -0.000000
  126        4.457963  -0.000000

  0.3742002E-15  0.1111111E+00  0.1262379E-14  0.2469136E-01
    1      -12.579685   1.000000
    2      -11.900934   1.000000
    3      -11.169078   1.000000
    4       -9.994160   1.000000
    5       -9.611917   1.000000
    6       -9.447649   1.000000
    7       -9.429113   1.000000
    8       -9.348296   1.000000
    9       -9.232297   1.000000
   10       -9.071669   1.000000
   11       -8.990410   1.000000
   12       -8.978792   1.000000
   13       -8.930516   1.000000
   14       -8.298052   1.000000
   15       -8.258151   1.000000
   16       -8.089317   1.000000
   17       -7.895831   1.000000
   18       -7.860865   1.000000
   19       -7.773067   1.000000
   20       -7.536128   1.000000
   21       -7.256675   1.000000
   22       -7.189076   1.000000
   23       -7.034030   1.000000
   24       -6.780614   1.000000
   25       -6.725112   1.000000
   26       -6.559283   1.000000
   27       -5.923763   1.000000
   28       -5.505748   1.000000
   29       -5.478487   1.000000
   30       -5.285622   1.000000
   31       -4.558697   1.000000
   32       -4.469489   1.000000
   33       -4.455853   1.000000
   34       -4.283097   1.000000
   35       -3.889023   1.000000
   36       -3.871802   1.000000
   37       -3.826256   1.000000
   38       -3.783457   1.000000
   39       -3.674397   1.000000
   40       -3.618396   1.000000
   41       -3.582585   1.000000
   42       -3.568195   1.000000
   43       -3.493252   1.000000
   44       -3.453016   1.000000
   45       -3.223931   1.000000
   46       -3.083058   1.000000
   47       -3.017828   1.000000
   48       -2.980727   1.000000
   49       -2.917481   1.000000
   50       -2.832588   1.000000
   51       -2.784870   1.000000
   52       -2.692702   1.000000
   53       -2.596991   1.000000
   54       -2.580356   1.000000
   55       -2.531698   1.000000
   56       -2.481556   1.000000
   57       -2.423372   1.000000
   58       -2.373326   1.000000
   59       -2.354810   1.000000
   60       -2.238605   1.000000
   61       -2.206204   1.000000
   62       -2.168393   1.000000
   63       -2.153431   1.000000
   64       -2.066522   1.000000
   65       -1.971427   1.000000
   66       -1.916472   1.000000
   67       -1.809451   1.000000
   68       -1.753092   1.000000
   69       -1.510687   1.000000
   70       -1.473572   1.000000
   71       -1.339732   1.000000
   72       -1.159738   1.000000
   73       -1.094188   1.000000
   74       -0.920412   1.000000
   75       -0.448946   1.000000
   76       -0.325282   1.000000
   77       -0.221257   1.000000
   78        0.040076   1.000000
   79        0.119197   1.000000
   80        0.223867   1.000000
   81        0.264599   1.000000
   82        0.461280   1.000000
   83        0.514048   1.000000
   84        0.564958   1.000000
   85        0.628061   1.000000
   86        0.808415   1.000000
   87        1.109872   1.000000
   88        1.182370   1.000000
   89        1.342067   1.000010
   90        1.497989   1.000782
   91        1.549005   1.002385
   92        1.654446   1.014294
   93        1.686746   1.021133
   94        1.722882   1.029334
   95        1.882947   0.945540
   96        1.943030   0.784320
   97        2.059790   0.316274
   98        2.298939  -0.031061
   99        2.400140  -0.010113
  100        2.459412  -0.003669
  101        2.556851  -0.000434
  102        2.572354  -0.000294
  103        2.617571  -0.000087
  104        2.658045  -0.000027
  105        2.736223  -0.000002
  106        2.796107  -0.000000
  107        2.840084  -0.000000
  108        2.912670  -0.000000
  109        2.932372  -0.000000
  110        2.973391  -0.000000
  111        2.993048  -0.000000
  112        3.063932  -0.000000
  113        3.121416  -0.000000
  114        3.167019  -0.000000
  115        3.182123  -0.000000
  116        3.257001  -0.000000
  117        3.322491  -0.000000
  118        3.418569  -0.000000
  119        3.437996  -0.000000
  120        3.505319  -0.000000
  121        3.762631  -0.000000
  122        3.952704  -0.000000
  123        4.007636  -0.000000
  124        4.195349  -0.000000
  125        4.612316  -0.000000
  126        4.674087  -0.000000

  0.1111111E+00  0.1111111E+00  0.1262379E-14  0.2469136E-01
    1      -12.464608   1.000000
    2      -11.799677   1.000000
    3      -11.096981   1.000000
    4       -9.931397   1.000000
    5       -9.779408   1.000000
    6       -9.772508   1.000000
    7       -9.613714   1.000000
    8       -9.549709   1.000000
    9       -9.487776   1.000000
   10       -9.436489   1.000000
   11       -9.284012   1.000000
   12       -8.827808   1.000000
   13       -8.526046   1.000000
   14       -8.519587   1.000000
   15       -8.220600   1.000000
   16       -7.861857   1.000000
   17       -7.693398   1.000000
   18       -7.445921   1.000000
   19       -7.426392   1.000000
   20       -7.281901   1.000000
   21       -7.157663   1.000000
   22       -7.058438   1.000000
   23       -6.783723   1.000000
   24       -6.678118   1.000000
   25       -6.634673   1.000000
   26       -6.407167   1.000000
   27       -6.049667   1.000000
   28       -5.429676   1.000000
   29       -5.078745   1.000000
   30       -5.030746   1.000000
   31       -4.614265   1.000000
   32       -4.525347   1.000000
   33       -4.388834   1.000000
   34       -4.250612   1.000000
   35       -4.209097   1.000000
   36       -4.185699   1.000000
   37       -3.861854   1.000000
   38       -3.847272   1.000000
   39       -3.746442   1.000000
   40       -3.705157   1.000000
   41       -3.618764   1.000000
   42       -3.572042   1.000000
   43       -3.512336   1.000000
   44       -3.434758   1.000000
   45       -3.388290   1.000000
   46       -3.200300   1.000000
   47       -3.107222   1.000000
   48       -3.023346   1.000000
   49       -2.979423   1.000000
   50       -2.898281   1.000000
   51       -2.856931   1.000000
   52       -2.736943   1.000000
   53       -2.654418   1.000000
   54       -2.567041   1.000000
   55       -2.530206   1.000000
   56       -2.484678   1.000000
   57       -2.442020   1.000000
   58       -2.330053   1.000000
   59       -2.308929   1.000000
   60       -2.280907   1.000000
   61       -2.191312   1.000000
   62       -2.178285   1.000000
   63       -2.119878   1.000000
   64       -2.074950   1.000000
   65       -2.039595   1.000000
   66       -1.966750   1.000000
   67       -1.856182   1.000000
   68       -1.720698   1.000000
   69       -1.710226   1.000000
   70       -1.624132   1.000000
   71       -1.326132   1.000000
   72       -1.129115   1.000000
   73       -1.070518   1.000000
   74       -0.940076   1.000000
   75       -0.659476   1.000000
   76       -0.572540   1.000000
   77       -0.365720   1.000000
   78       -0.029034   1.000000
   79       -0.025727   1.000000
   80        0.232396   1.000000
   81        0.240082   1.000000
   82        0.390291   1.000000
   83        0.443104   1.000000
   84        0.481277   1.000000
   85        0.526592   1.000000
   86        0.834828   1.000000
   87        0.951116   1.000000
   88        1.041050   1.000000
   89        1.281139   1.000001
   90        1.475040   1.000451
   91        1.539103   1.001944
   92        1.595068   1.005702
   93        1.681227   1.019887
   94        1.807563   1.028634
   95        1.991044   0.601231
   96        2.098648   0.178556
   97        2.143119   0.062929
   98        2.203838  -0.018210
   99        2.289116  -0.032818
  100        2.342495  -0.021380
  101        2.446653  -0.004652
  102        2.481156  -0.002392
  103        2.639858  -0.000046
  104        2.676592  -0.000015
  105        2.746069  -0.000002
  106        2.759986  -0.000001
  107        2.787503  -0.000000
  108        2.826861  -0.000000
  109        2.860535  -0.000000
  110        2.939768  -0.000000
  111        2.964761  -0.000000
  112        3.030490  -0.000000
  113        3.076009  -0.000000
  114        3.117012  -0.000000
  115        3.141826  -0.000000
  116        3.177315  -0.000000
  117        3.245123  -0.000000
  118        3.290096  -0.000000
  119        3.366300  -0.000000
  120        3.390213  -0.000000
  121        3.420421  -0.000000
  122        3.579428  -0.000000
  123        3.661734  -0.000000
  124        3.826369  -0.000000
  125        3.915887  -0.000000
  126        4.697128  -0.000000

  0.2222222E+00  0.1111111E+00  0.1262379E-14  0.2469136E-01
    1      -12.237986   1.000000
    2      -11.601492   1.000000
    3      -10.957866   1.000000
    4      -10.383183   1.000000
    5      -10.026847   1.000000
    6       -9.970223   1.000000