 running on   54 total cores
 distrk:  each k-point on   54 cores,    1 groups
 distr:  one band on    9 cores,    6 groups
 using from now: INCAR     
 vasp.5.4.4.18Apr17-6-g9f103f2a35 (build Dec  7 2020 12:43:57) complex           
 POSCAR found type information on POSCAR  Mo V  B  H 
 POSCAR found :  4 types and      51 ions
 scaLAPACK will be used

 ----------------------------------------------------------------------------- 
|                                                                             |
|  ADVICE TO THIS USER RUNNING 'VASP/VAMP'   (HEAR YOUR MASTER'S VOICE ...):  |
|                                                                             |
|      You enforced a specific xc-type in the INCAR file,                     |
|      a different type was found on the POTCAR file                          |
|          I HOPE YOU KNOW, WHAT YOU ARE  DOING                               |
|                                                                             |
 ----------------------------------------------------------------------------- 

 LDA part: xc-table for Pade appr. of Perdew
 POSCAR, INCAR and KPOINTS ok, starting setup
 resort distribution
 resort distribution
 resort distribution
 resort distribution
 resort distribution
 resort distribution
 resort distribution
 resort distribution
 resort distribution
 resort distribution
 resort distribution
 resort distribution
 resort distribution
 resort distribution
 resort distribution
 resort distribution
 resort distribution
 resort distribution
 resort distribution
 resort distribution
 resort distribution
 resort distribution
 resort distribution
 resort distribution
 resort distribution
 resort distribution
 resort distribution
 resort distribution
 resort distribution
 resort distribution
 resort distribution
 resort distribution
 resort distribution
 resort distribution
 resort distribution
 resort distribution
 resort distribution
 resort distribution
 resort distribution
 resort distribution
 resort distribution
 resort distribution
 resort distribution
 resort distribution
 resort distribution
 resort distribution
 resort distribution
 resort distribution
 resort distribution
 resort distribution
 resort distribution
 resort distribution
 resort distribution
 resort distribution
 FFT: planning ...
 WAVECAR not read
 augmentation electrons   195.01143390287507     
 soft         electrons   0.0000000000000000     
 augmentation electrons   195.01143390287507     
 soft         electrons   0.0000000000000000     
 augmentation electrons   195.01143390287507     
 soft         electrons   0.0000000000000000     
 augmentation electrons   195.01143390287507     
 soft         electrons   0.0000000000000000     
 augmentation electrons   195.01143390287507     
 soft         electrons   0.0000000000000000     
 augmentation electrons   195.01143390287507     
 soft         electrons   0.0000000000000000     
 augmentation electrons   195.01143390287507     
 soft         electrons   0.0000000000000000     
 augmentation electrons   195.01143390287507     
 soft         electrons   0.0000000000000000     
 augmentation electrons   195.01143390287507     
 soft         electrons   0.0000000000000000     
 augmentation electrons   195.01143390287507     
 soft         electrons   0.0000000000000000     
 augmentation electrons   195.01143390287507     
 soft         electrons   0.0000000000000000     
 augmentation electrons   195.01143390287507     
 soft         electrons   0.0000000000000000     
 augmentation electrons   195.01143390287507     
 soft         electrons   0.0000000000000000     
 augmentation electrons   195.01143390287507     
 soft         electrons   0.0000000000000000     
 augmentation electrons   195.01143390287507     
 soft         electrons   0.0000000000000000     
 augmentation electrons   195.01143390287507     
 soft         electrons   0.0000000000000000     
 augmentation electrons   195.01143390287507     
 soft         electrons   0.0000000000000000     
 augmentation electrons   195.01143390287507     
 soft         electrons   0.0000000000000000     
 augmentation electrons   195.01143390287507     
 soft         electrons   0.0000000000000000     
 augmentation electrons   195.01143390287507     
 soft         electrons   0.0000000000000000     
 augmentation electrons   195.01143390287507     
 soft         electrons   0.0000000000000000     
 augmentation electrons   195.01143390287507     
 soft         electrons   0.0000000000000000     
 augmentation electrons   195.01143390287507     
 soft         electrons   0.0000000000000000     
 augmentation electrons   195.01143390287507     
 soft         electrons   0.0000000000000000     
 augmentation electrons   195.01143390287507     
 soft         electrons   0.0000000000000000     
 augmentation electrons   195.01143390287507     
 soft         electrons   0.0000000000000000     
 augmentation electrons   195.01143390287507     
 soft         electrons   0.0000000000000000     
 augmentation electrons   195.01143390287507     
 soft         electrons   0.0000000000000000     
 augmentation electrons   195.01143390287507     
 soft         electrons   0.0000000000000000     
 augmentation electrons   195.01143390287507     
 soft         electrons   0.0000000000000000     
 augmentation electrons   195.01143390287507     
 soft         electrons   0.0000000000000000     
 augmentation electrons   195.01143390287507     
 soft         electrons   0.0000000000000000     
 augmentation electrons   195.01143390287507     
 soft         electrons   0.0000000000000000     
 augmentation electrons   195.01143390287507     
 soft         electrons   0.0000000000000000     
 augmentation electrons   195.01143390287507     
 soft         electrons   0.0000000000000000     
 augmentation electrons   195.01143390287507     
 soft         electrons   0.0000000000000000     
 augmentation electrons   195.01143390287507     
 soft         electrons   0.0000000000000000     
 augmentation electrons   195.01143390287507     
 soft         electrons   0.0000000000000000     
 augmentation electrons   195.01143390287507     
 soft         electrons   0.0000000000000000     
 augmentation electrons   195.01143390287507     
 soft         electrons   0.0000000000000000     
 augmentation electrons   195.01143390287507     
 soft         electrons   0.0000000000000000     
 augmentation electrons   195.01143390287507     
 soft         electrons   0.0000000000000000     
 augmentation electrons   195.01143390287507     
 soft         electrons   0.0000000000000000     
 augmentation electrons   195.01143390287507     
 soft         electrons   0.0000000000000000     
 augmentation electrons   195.01143390287507     
 soft         electrons   0.0000000000000000     
 augmentation electrons   195.01143390287507     
 soft         electrons   0.0000000000000000     
 augmentation electrons   195.01143390287507     
 soft         electrons   0.0000000000000000     
 augmentation electrons   195.01143390287507     
 soft         electrons   0.0000000000000000     
 augmentation electrons   195.01143390287507     
 soft         electrons   0.0000000000000000     
 augmentation electrons   195.01143390287507     
 soft         electrons   0.0000000000000000     
 augmentation electrons   195.01143390287507     
 soft         electrons   0.0000000000000000     
 augmentation electrons   195.01143390287507     
 soft         electrons   0.0000000000000000     
 augmentation electrons   195.01143390287507     
 soft         electrons   0.0000000000000000     
 augmentation electrons   195.01143390287507     
 soft         electrons   0.0000000000000000     
 total        electrons   195.01143390287507     
 total        electrons   195.01143390287507     
 total        electrons   195.01143390287507     
 total        electrons   195.01143390287507     
 total        electrons   195.01143390287507     
 total        electrons   195.01143390287507     
 total        electrons   195.01143390287507     
 total        electrons   195.01143390287507     
 total        electrons   195.01143390287507     
 total        electrons   195.01143390287507     
 total        electrons   195.01143390287507     
 total        electrons   195.01143390287507     
 total        electrons   195.01143390287507     
 total        electrons   195.01143390287507     
 total        electrons   195.01143390287507     
 total        electrons   195.01143390287507     
 total        electrons   195.01143390287507     
 total        electrons   195.01143390287507     
 total        electrons   195.01143390287507     
 total        electrons   195.01143390287507     
 total        electrons   195.01143390287507     
 total        electrons   195.01143390287507     
 total        electrons   195.01143390287507     
 total        electrons   195.01143390287507     
 total        electrons   195.01143390287507     
 total        electrons   195.01143390287507     
 total        electrons   195.01143390287507     
 total        electrons   195.01143390287507     
 total        electrons   195.01143390287507     
 total        electrons   195.01143390287507     
 total        electrons   195.01143390287507     
 total        electrons   195.01143390287507     
 total        electrons   195.01143390287507     
 total        electrons   195.01143390287507     
 total        electrons   195.01143390287507     
 total        electrons   195.01143390287507     
 total        electrons   195.01143390287507     
 total        electrons   195.01143390287507     
 total        electrons   195.01143390287507     
 total        electrons   195.01143390287507     
 total        electrons   195.01143390287507     
 total        electrons   195.01143390287507     
 total        electrons   195.01143390287507     
 total        electrons   195.01143390287507     
 total        electrons   195.01143390287507     
 total        electrons   195.01143390287507     
 total        electrons   195.01143390287507     
 total        electrons   195.01143390287507     
 total        electrons   195.01143390287507     
 total        electrons   195.01143390287507     
 total        electrons   195.01143390287507     
 total        electrons   195.01143390287507     
 total        electrons   195.01143390287507     
 total        electrons   195.01143390287507     
 augmentation electrons   596.34719494987473     
 soft         electrons   0.0000000000000000     
 augmentation electrons   596.34719494987473     
 soft         electrons   0.0000000000000000     
 augmentation electrons   596.34719494987473     
 soft         electrons   0.0000000000000000     
 augmentation electrons   596.34719494987473     
 soft         electrons   0.0000000000000000     
 augmentation electrons   596.34719494987473     
 soft         electrons   0.0000000000000000     
 augmentation electrons   596.34719494987473     
 soft         electrons   0.0000000000000000     
 augmentation electrons   596.34719494987473     
 soft         electrons   0.0000000000000000     
 augmentation electrons   596.34719494987473     
 soft         electrons   0.0000000000000000     
 augmentation electrons   596.34719494987473     
 soft         electrons   0.0000000000000000     
 augmentation electrons   596.34719494987473     
 soft         electrons   0.0000000000000000     
 augmentation electrons   596.34719494987473     
 soft         electrons   0.0000000000000000     
 augmentation electrons   596.34719494987473     
 soft         electrons   0.0000000000000000     
 augmentation electrons   596.34719494987473     
 soft         electrons   0.0000000000000000     
 augmentation electrons   596.34719494987473     
 soft         electrons   0.0000000000000000     
 augmentation electrons   596.34719494987473     
 soft         electrons   0.0000000000000000     
 augmentation electrons   596.34719494987473     
 soft         electrons   0.0000000000000000     
 augmentation electrons   596.34719494987473     
 soft         electrons   0.0000000000000000     
 augmentation electrons   596.34719494987473     
 soft         electrons   0.0000000000000000     
 augmentation electrons   596.34719494987473     
 soft         electrons   0.0000000000000000     
 augmentation electrons   596.34719494987473     
 soft         electrons   0.0000000000000000     
 augmentation electrons   596.34719494987473     
 soft         electrons   0.0000000000000000     
 augmentation electrons   596.34719494987473     
 soft         electrons   0.0000000000000000     
 augmentation electrons   596.34719494987473     
 soft         electrons   0.0000000000000000     
 augmentation electrons   596.34719494987473     
 soft         electrons   0.0000000000000000     
 augmentation electrons   596.34719494987473     
 soft         electrons   0.0000000000000000     
 augmentation electrons   596.34719494987473     
 soft         electrons   0.0000000000000000     
 augmentation electrons   596.34719494987473     
 soft         electrons   0.0000000000000000     
 augmentation electrons   596.34719494987473     
 soft         electrons   0.0000000000000000     
 augmentation electrons   596.34719494987473     
 soft         electrons   0.0000000000000000     
 augmentation electrons   596.34719494987473     
 soft         electrons   0.0000000000000000     
 augmentation electrons   596.34719494987473     
 soft         electrons   0.0000000000000000     
 augmentation electrons   596.34719494987473     
 soft         electrons   0.0000000000000000     
 augmentation electrons   596.34719494987473     
 soft         electrons   0.0000000000000000     
 augmentation electrons   596.34719494987473     
 soft         electrons   0.0000000000000000     
 augmentation electrons   596.34719494987473     
 soft         electrons   0.0000000000000000     
 augmentation electrons   596.34719494987473     
 soft         electrons   0.0000000000000000     
 augmentation electrons   596.34719494987473     
 soft         electrons   0.0000000000000000     
 augmentation electrons   596.34719494987473     
 soft         electrons   0.0000000000000000     
 augmentation electrons   596.34719494987473     
 soft         electrons   0.0000000000000000     
 augmentation electrons   596.34719494987473     
 soft         electrons   0.0000000000000000     
 augmentation electrons   596.34719494987473     
 soft         electrons   0.0000000000000000     
 augmentation electrons   596.34719494987473     
 soft         electrons   0.0000000000000000     
 augmentation electrons   596.34719494987473     
 soft         electrons   0.0000000000000000     
 augmentation electrons   596.34719494987473     
 soft         electrons   0.0000000000000000     
 augmentation electrons   596.34719494987473     
 soft         electrons   0.0000000000000000     
 augmentation electrons   596.34719494987473     
 soft         electrons   0.0000000000000000     
 augmentation electrons   596.34719494987473     
 soft         electrons   0.0000000000000000     
 augmentation electrons   596.34719494987473     
 soft         electrons   0.0000000000000000     
 augmentation electrons   596.34719494987473     
 soft         electrons   0.0000000000000000     
 augmentation electrons   596.34719494987473     
 soft         electrons   0.0000000000000000     
 augmentation electrons   596.34719494987473     
 soft         electrons   0.0000000000000000     
 augmentation electrons   596.34719494987473     
 soft         electrons   0.0000000000000000     
 augmentation electrons   596.34719494987473     
 soft         electrons   0.0000000000000000     
 augmentation electrons   596.34719494987473     
 soft         electrons   0.0000000000000000     
 total        electrons   596.34719494987473     
 total        electrons   596.34719494987473     
 total        electrons   596.34719494987473     
 total        electrons   596.34719494987473     
 total        electrons   596.34719494987473     
 total        electrons   596.34719494987473     
 total        electrons   596.34719494987473     
 total        electrons   596.34719494987473     
 total        electrons   596.34719494987473     
 total        electrons   596.34719494987473     
 total        electrons   596.34719494987473     
 total        electrons   596.34719494987473     
 total        electrons   596.34719494987473     
 total        electrons   596.34719494987473     
 total        electrons   596.34719494987473     
 total        electrons   596.34719494987473     
 total        electrons   596.34719494987473     
 total        electrons   596.34719494987473     
 total        electrons   596.34719494987473     
 total        electrons   596.34719494987473     
 total        electrons   596.34719494987473     
 total        electrons   596.34719494987473     
 total        electrons   596.34719494987473     
 total        electrons   596.34719494987473     
 total        electrons   596.34719494987473     
 total        electrons   596.34719494987473     
 total        electrons   596.34719494987473     
 total        electrons   596.34719494987473     
 total        electrons   596.34719494987473     
 total        electrons   596.34719494987473     
 total        electrons   596.34719494987473     
 total        electrons   596.34719494987473     
 total        electrons   596.34719494987473     
 total        electrons   596.34719494987473     
 total        electrons   596.34719494987473     
 total        electrons   596.34719494987473     
 total        electrons   596.34719494987473     
 total        electrons   596.34719494987473     
 total        electrons   596.34719494987473     
 total        electrons   596.34719494987473     
 total        electrons   596.34719494987473     
 total        electrons   596.34719494987473     
 total        electrons   596.34719494987473     
 total        electrons   596.34719494987473     
 total        electrons   596.34719494987473     
 total        electrons   596.34719494987473     
 total        electrons   596.34719494987473     
 total        electrons   596.34719494987473     
 total        electrons   596.34719494987473     
 total        electrons   596.34719494987473     
 total        electrons   596.34719494987473     
 total        electrons   596.34719494987473     
 total        electrons   596.34719494987473     
 total        electrons   596.34719494987473     
 entering main loop
       N       E                     dE             d eps       ncg     rms          rms(c)
DAV:   1     0.175850707649E+04    0.17585E+04   -0.72352E+04 10332   0.133E+03
DAV:   2    -0.117451644767E+03   -0.18760E+04   -0.17169E+04 11190   0.338E+02
DAV:   3    -0.432708516434E+03   -0.31526E+03   -0.29986E+03 15108   0.152E+02
DAV:   4    -0.457349898802E+03   -0.24641E+02   -0.23550E+02 16764   0.446E+01
DAV:   5    -0.458689298816E+03   -0.13394E+01   -0.12959E+01 17484   0.902E+00    0.116E+02
RMM:   6    -0.446173406134E+03    0.12516E+02   -0.80783E+02 16501   0.895E+01    0.641E+01
RMM:   7    -0.711876120083E+03   -0.26570E+03   -0.77233E+02 17067   0.100E+02    0.614E+01
RMM:   8    -0.512897580789E+03    0.19898E+03   -0.29226E+02 15969   0.426E+01    0.433E+01
RMM:   9    -0.416082632678E+03    0.96815E+02   -0.69484E+01 13880   0.252E+01    0.313E+01
RMM:  10    -0.390886757192E+03    0.25196E+02   -0.36077E+01 11241   0.241E+01    0.203E+01
RMM:  11    -0.390951447150E+03   -0.64690E-01   -0.30180E+01 16210   0.105E+01    0.159E+01
RMM:  12    -0.389106235385E+03    0.18452E+01   -0.27893E+00 14459   0.464E+00    0.136E+01
RMM:  13    -0.389993277728E+03   -0.88704E+00   -0.11541E+00 15575   0.226E+00    0.137E+01
RMM:  14    -0.388967796709E+03    0.10255E+01   -0.12411E+00 12105   0.443E+00    0.108E+01
RMM:  15    -0.388765572799E+03    0.20222E+00   -0.65427E+00 11871   0.103E+01    0.815E+00
RMM:  16    -0.388465893192E+03    0.29968E+00   -0.26535E+00 14958   0.392E+00    0.506E+00
RMM:  17    -0.388334010665E+03    0.13188E+00   -0.53087E-01 14216   0.187E+00    0.368E+00
RMM:  18    -0.388242766871E+03    0.91244E-01   -0.13703E-01 12245   0.141E+00    0.247E+00
RMM:  19    -0.388220542059E+03    0.22225E-01   -0.18571E-01 15907   0.100E+00    0.196E+00
RMM:  20    -0.388184668502E+03    0.35874E-01   -0.15269E-01 12059   0.152E+00    0.899E-01
RMM:  21    -0.388207310096E+03   -0.22642E-01   -0.94025E-02 14838   0.781E-01    0.132E+00
RMM:  22    -0.388194306838E+03    0.13003E-01   -0.23568E-02 15721   0.273E-01    0.950E-01
RMM:  23    -0.388182893344E+03    0.11413E-01   -0.53987E-03 15046   0.194E-01    0.606E-01
RMM:  24    -0.388176866143E+03    0.60272E-02   -0.58048E-03 15444   0.179E-01    0.213E-01
RMM:  25    -0.388176684152E+03    0.18199E-03   -0.40951E-03 16036   0.129E-01    0.224E-01
RMM:  26    -0.388176171437E+03    0.51271E-03   -0.98191E-04 14163   0.972E-02    0.122E-01
RMM:  27    -0.388176479872E+03   -0.30844E-03   -0.83508E-04 15321   0.639E-02    0.156E-01
RMM:  28    -0.388176445265E+03    0.34607E-04   -0.31436E-04 12204   0.708E-02    0.511E-02
RMM:  29    -0.388176681740E+03   -0.23647E-03   -0.27650E-04 16144   0.292E-02    0.346E-02
RMM:  30    -0.388176975421E+03   -0.29368E-03   -0.10469E-04 15563   0.211E-02    0.407E-02
RMM:  31    -0.388177264878E+03   -0.28946E-03   -0.67916E-05 14342   0.222E-02    0.216E-02
RMM:  32    -0.388177396578E+03   -0.13170E-03   -0.42001E-05 13319   0.129E-02    0.130E-02
RMM:  33    -0.388177476106E+03   -0.79528E-04   -0.12830E-05 10181   0.130E-02    0.187E-02
RMM:  34    -0.388177534371E+03   -0.58264E-04   -0.10372E-05 10532   0.123E-02    0.710E-03
RMM:  35    -0.388177577827E+03   -0.43456E-04   -0.49283E-06 10033   0.398E-03    0.547E-03
RMM:  36    -0.388177598667E+03   -0.20840E-04   -0.14272E-06  8691   0.471E-03    0.330E-03
RMM:  37    -0.388177626513E+03   -0.27846E-04   -0.39730E-06  9669   0.348E-03    0.763E-03
RMM:  38    -0.388177647586E+03   -0.21073E-04   -0.19295E-06  8419   0.554E-03    0.199E-03
RMM:  39    -0.388177653483E+03   -0.58971E-05   -0.70138E-07  7413   0.241E-03    0.369E-03
RMM:  40    -0.388177657160E+03   -0.36770E-05   -0.67316E-07  7231   0.327E-03    0.196E-03
RMM:  41    -0.388177658682E+03   -0.15216E-05   -0.37805E-07  6479   0.189E-03    0.117E-03
RMM:  42    -0.388177658788E+03   -0.10668E-06   -0.20062E-07  5941   0.166E-03
   1 F= -.38817766E+03 E0= -.38818336E+03  d E =0.171012E-01
 augmentation electrons   21.010868750514458     
 soft         electrons   174.04427800052770     
 augmentation electrons   21.010868750514458     
 soft         electrons   174.04427800052770     
 augmentation electrons   21.010868750514458     
 soft         electrons   174.04427800052770     
 augmentation electrons   21.010868750514458     
 soft         electrons   174.04427800052770     
 augmentation electrons   21.010868750514458     
 soft         electrons   174.04427800052770     
 augmentation electrons   21.010868750514458     
 soft         electrons   174.04427800052770     
 augmentation electrons   21.010868750514458     
 soft         electrons   174.04427800052770     
 augmentation electrons   21.010868750514458     
 soft         electrons   174.04427800052770     
 augmentation electrons   21.010868750514458     
 soft         electrons   174.04427800052770     
 augmentation electrons   21.010868750514458     
 soft         electrons   174.04427800052770     
 augmentation electrons   21.010868750514458     
 soft         electrons   174.04427800052770     
 augmentation electrons   21.010868750514458     
 soft         electrons   174.04427800052770     
 augmentation electrons   21.010868750514458     
 soft         electrons   174.04427800052770     
 augmentation electrons   21.010868750514458     
 soft         electrons   174.04427800052770     
 augmentation electrons   21.010868750514458     
 soft         electrons   174.04427800052770     
 augmentation electrons   21.010868750514458     
 soft         electrons   174.04427800052770     
 augmentation electrons   21.010868750514458     
 soft         electrons   174.04427800052770     
 augmentation electrons   21.010868750514458     
 soft         electrons   174.04427800052770     
 augmentation electrons   21.010868750514458     
 soft         electrons   174.04427800052770     
 augmentation electrons   21.010868750514458     
 soft         electrons   174.04427800052770     
 augmentation electrons   21.010868750514458     
 soft         electrons   174.04427800052770     
 augmentation electrons   21.010868750514458     
 soft         electrons   174.04427800052770     
 augmentation electrons   21.010868750514458     
 soft         electrons   174.04427800052770     
 augmentation electrons   21.010868750514458     
 soft         electrons   174.04427800052770     
 augmentation electrons   21.010868750514458     
 soft         electrons   174.04427800052770     
 augmentation electrons   21.010868750514458     
 soft         electrons   174.04427800052770     
 augmentation electrons   21.010868750514458     
 soft         electrons   174.04427800052770     
 augmentation electrons   21.010868750514458     
 soft         electrons   174.04427800052770     
 augmentation electrons   21.010868750514458     
 soft         electrons   174.04427800052770     
 augmentation electrons   21.010868750514458     
 soft         electrons   174.04427800052770     
 augmentation electrons   21.010868750514458     
 soft         electrons   174.04427800052770     
 augmentation electrons   21.010868750514458     
 soft         electrons   174.04427800052770     
 augmentation electrons   21.010868750514458     
 soft         electrons   174.04427800052770     
 augmentation electrons   21.010868750514458     
 soft         electrons   174.04427800052770     
 augmentation electrons   21.010868750514458     
 soft         electrons   174.04427800052770     
 augmentation electrons   21.010868750514458     
 soft         electrons   174.04427800052770     
 augmentation electrons   21.010868750514458     
 soft         electrons   174.04427800052770     
 augmentation electrons   21.010868750514458     
 soft         electrons   174.04427800052770     
 augmentation electrons   21.010868750514458     
 soft         electrons   174.04427800052770     
 augmentation electrons   21.010868750514458     
 soft         electrons   174.04427800052770     
 augmentation electrons   21.010868750514458     
 soft         electrons   174.04427800052770     
 augmentation electrons   21.010868750514458     
 soft         electrons   174.04427800052770     
 augmentation electrons   21.010868750514458     
 soft         electrons   174.04427800052770     
 augmentation electrons   21.010868750514458     
 soft         electrons   174.04427800052770     
 augmentation electrons   21.010868750514458     
 soft         electrons   174.04427800052770     
 augmentation electrons   21.010868750514458     
 soft         electrons   174.04427800052770     
 augmentation electrons   21.010868750514458     
 soft         electrons   174.04427800052770     
 augmentation electrons   21.010868750514458     
 soft         electrons   174.04427800052770     
 augmentation electrons   21.010868750514458     
 soft         electrons   174.04427800052770     
 augmentation electrons   21.010868750514458     
 soft         electrons   174.04427800052770     
 augmentation electrons   21.010868750514458     
 soft         electrons   174.04427800052770     
 augmentation electrons   21.010868750514458     
 soft         electrons   174.04427800052770     
 augmentation electrons   21.010868750514458     
 soft         electrons   174.04427800052770     
 augmentation electrons   21.010868750514458     
 soft         electrons   174.04427800052770     
 total        electrons   195.05514675104214     
 total        electrons   195.05514675104214     
 total        electrons   195.05514675104214     
 total        electrons   195.05514675104214     
 total        electrons   195.05514675104214     
 total        electrons   195.05514675104214     
 total        electrons   195.05514675104214     
 total        electrons   195.05514675104214     
 total        electrons   195.05514675104214     
 total        electrons   195.05514675104214     
 total        electrons   195.05514675104214     
 total        electrons   195.05514675104214     
 total        electrons   195.05514675104214     
 total        electrons   195.05514675104214     
 total        electrons   195.05514675104214     
 total        electrons   195.05514675104214     
 total        electrons   195.05514675104214     
 total        electrons   195.05514675104214     
 total        electrons   195.05514675104214     
 total        electrons   195.05514675104214     
 total        electrons   195.05514675104214     
 total        electrons   195.05514675104214     
 total        electrons   195.05514675104214     
 total        electrons   195.05514675104214     
 total        electrons   195.05514675104214     
 total        electrons   195.05514675104214     
 total        electrons   195.05514675104214     
 total        electrons   195.05514675104214     
 total        electrons   195.05514675104214     
 total        electrons   195.05514675104214     
 total        electrons   195.05514675104214     
 total        electrons   195.05514675104214     
 total        electrons   195.05514675104214     
 total        electrons   195.05514675104214     
 total        electrons   195.05514675104214     
 total        electrons   195.05514675104214     
 total        electrons   195.05514675104214     
 total        electrons   195.05514675104214     
 total        electrons   195.05514675104214     
 total        electrons   195.05514675104214     
 total        electrons   195.05514675104214     
 total        electrons   195.05514675104214     
 total        electrons   195.05514675104214     
 total        electrons   195.05514675104214     
 total        electrons   195.05514675104214     
 total        electrons   195.05514675104214     
 total        electrons   195.05514675104214     
 total        electrons   195.05514675104214     
 total        electrons   195.05514675104214     
 total        electrons   195.05514675104214     
 total        electrons   195.05514675104214     
 total        electrons   195.05514675104214     
 total        electrons   195.05514675104214     
 total        electrons   195.05514675104214     
Note: The following floating-point exceptions are signalling: IEEE_OVERFLOW_FLAG
Note: The following floating-point exceptions are signalling: IEEE_OVERFLOW_FLAG
Note: The following floating-point exceptions are signalling: IEEE_OVERFLOW_FLAG
Note: The following floating-point exceptions are signalling: IEEE_OVERFLOW_FLAG
Note: The following floating-point exceptions are signalling: IEEE_OVERFLOW_FLAG
Note: The following floating-point exceptions are signalling: IEEE_OVERFLOW_FLAG
Note: The following floating-point exceptions are signalling: IEEE_OVERFLOW_FLAG
Note: The following floating-point exceptions are signalling: IEEE_OVERFLOW_FLAG
Note: The following floating-point exceptions are signalling: IEEE_OVERFLOW_FLAG
Note: The following floating-point exceptions are signalling: IEEE_OVERFLOW_FLAG
Note: The following floating-point exceptions are signalling: IEEE_OVERFLOW_FLAG
Note: The following floating-point exceptions are signalling: IEEE_OVERFLOW_FLAG
Note: The following floating-point exceptions are signalling: IEEE_OVERFLOW_FLAG
Note: The following floating-point exceptions are signalling: IEEE_OVERFLOW_FLAG
Note: The following floating-point exceptions are signalling: IEEE_OVERFLOW_FLAG
Note: The following floating-point exceptions are signalling: IEEE_OVERFLOW_FLAG
Note: The following floating-point exceptions are signalling: IEEE_OVERFLOW_FLAG
Note: The following floating-point exceptions are signalling: IEEE_OVERFLOW_FLAG
Note: The following floating-point exceptions are signalling: IEEE_OVERFLOW_FLAG
Note: The following floating-point exceptions are signalling: IEEE_OVERFLOW_FLAG
Note: The following floating-point exceptions are signalling: IEEE_OVERFLOW_FLAG
Note: The following floating-point exceptions are signalling: IEEE_OVERFLOW_FLAG
Note: The following floating-point exceptions are signalling: IEEE_OVERFLOW_FLAG
Note: The following floating-point exceptions are signalling: IEEE_OVERFLOW_FLAG
Note: The following floating-point exceptions are signalling: IEEE_OVERFLOW_FLAG
Note: The following floating-point exceptions are signalling: IEEE_OVERFLOW_FLAG
Note: The following floating-point exceptions are signalling: IEEE_OVERFLOW_FLAG
Note: The following floating-point exceptions are signalling: IEEE_OVERFLOW_FLAG
Note: The following floating-point exceptions are signalling: IEEE_OVERFLOW_FLAG
Note: The following floating-point exceptions are signalling: IEEE_OVERFLOW_FLAG
Note: The following floating-point exceptions are signalling: IEEE_OVERFLOW_FLAG
Note: The following floating-point exceptions are signalling: IEEE_OVERFLOW_FLAG
Note: The following floating-point exceptions are signalling: IEEE_OVERFLOW_FLAG
Note: The following floating-point exceptions are signalling: IEEE_OVERFLOW_FLAG
Note: The following floating-point exceptions are signalling: IEEE_OVERFLOW_FLAG
Note: The following floating-point exceptions are signalling: IEEE_OVERFLOW_FLAG
Note: The following floating-point exceptions are signalling: IEEE_OVERFLOW_FLAG
Note: The following floating-point exceptions are signalling: IEEE_OVERFLOW_FLAG
Note: The following floating-point exceptions are signalling: IEEE_OVERFLOW_FLAG
Note: The following floating-point exceptions are signalling: IEEE_OVERFLOW_FLAG
Note: The following floating-point exceptions are signalling: IEEE_OVERFLOW_FLAG
Note: The following floating-point exceptions are signalling: IEEE_OVERFLOW_FLAG
Note: The following floating-point exceptions are signalling: IEEE_OVERFLOW_FLAG
Note: The following floating-point exceptions are signalling: IEEE_OVERFLOW_FLAG
Note: The following floating-point exceptions are signalling: IEEE_OVERFLOW_FLAG
Note: The following floating-point exceptions are signalling: IEEE_OVERFLOW_FLAG
Note: The following floating-point exceptions are signalling: IEEE_OVERFLOW_FLAG
Note: The following floating-point exceptions are signalling: IEEE_OVERFLOW_FLAG
Note: The following floating-point exceptions are signalling: IEEE_OVERFLOW_FLAG
Note: The following floating-point exceptions are signalling: IEEE_OVERFLOW_FLAG
Note: The following floating-point exceptions are signalling: IEEE_OVERFLOW_FLAG
Note: The following floating-point exceptions are signalling: IEEE_OVERFLOW_FLAG
Note: The following floating-point exceptions are signalling: IEEE_OVERFLOW_FLAG
Note: The following floating-point exceptions are signalling: IEEE_OVERFLOW_FLAG
