   73   73   85    1
  0.2139262E+02  0.1053953E-08  0.6141200E-09  0.2412750E-08  0.5000000E-15
   1.0000000000000000E-004
  CAR 
 Name                                    
    268     23    176

  0.3742002E-15  0.3742002E-15  0.1262379E-14  0.2222222E-01
    1      -13.900014   1.000000
    2      -12.910985   1.000000
    3      -12.763301   1.000000
    4      -12.412622   1.000000
    5      -11.779290   1.000000
    6      -11.663822   1.000000
    7      -11.572092   1.000000
    8      -11.554995   1.000000
    9      -11.383906   1.000000
   10      -11.151539   1.000000
   11      -11.028162   1.000000
   12      -11.024789   1.000000
   13      -10.784883   1.000000
   14      -10.431817   1.000000
   15      -10.351257   1.000000
   16      -10.213129   1.000000
   17      -10.118228   1.000000
   18      -10.054866   1.000000
   19       -9.823696   1.000000
   20       -9.649072   1.000000
   21       -9.580215   1.000000
   22       -9.473091   1.000000
   23       -9.405456   1.000000
   24       -8.936225   1.000000
   25       -8.921760   1.000000
   26       -8.785970   1.000000
   27       -8.610117   1.000000
   28       -8.527881   1.000000
   29       -8.290459   1.000000
   30       -8.097530   1.000000
   31       -8.029147   1.000000
   32       -7.839264   1.000000
   33       -7.479136   1.000000
   34       -7.452182   1.000000
   35       -7.340501   1.000000
   36       -7.304554   1.000000
   37       -7.109626   1.000000
   38       -6.922932   1.000000
   39       -6.913009   1.000000
   40       -6.878599   1.000000
   41       -6.737192   1.000000
   42       -6.708548   1.000000
   43       -6.619202   1.000000
   44       -6.492201   1.000000
   45       -6.358955   1.000000
   46       -6.300807   1.000000
   47       -6.168853   1.000000
   48       -6.023026   1.000000
   49       -5.987046   1.000000
   50       -5.972824   1.000000
   51       -5.829373   1.000000
   52       -5.781932   1.000000
   53       -5.707795   1.000000
   54       -5.658829   1.000000
   55       -5.615003   1.000000
   56       -5.543315   1.000000
   57       -5.409326   1.000000
   58       -5.396975   1.000000
   59       -5.303096   1.000000
   60       -5.234420   1.000000
   61       -5.143874   1.000000
   62       -5.124341   1.000000
   63       -4.996263   1.000000
   64       -4.959755   1.000000
   65       -4.831446   1.000000
   66       -4.684226   1.000000
   67       -4.641238   1.000000
   68       -4.603444   1.000000
   69       -4.508786   1.000000
   70       -4.468680   1.000000
   71       -4.456005   1.000000
   72       -4.390783   1.000000
   73       -4.326337   1.000000
   74       -4.226803   1.000000
   75       -4.183389   1.000000
   76       -4.140041   1.000000
   77       -4.097465   1.000000
   78       -4.038513   1.000000
   79       -3.905261   1.000000
   80       -3.840091   1.000000
   81       -3.771739   1.000000
   82       -3.690916   1.000000
   83       -3.684603   1.000000
   84       -3.571313   1.000000
   85       -3.557499   1.000000
   86       -3.403067   1.000000
   87       -3.331004   1.000000
   88       -3.318586   1.000000
   89       -3.278530   1.000000
   90       -3.252444   1.000000
   91       -3.200731   1.000000
   92       -3.162306   1.000000
   93       -3.122007   1.000000
   94       -3.003357   1.000000
   95       -2.914050   1.000000
   96       -2.860459   1.000000
   97       -2.819128   1.000000
   98       -2.717729   1.000000
   99       -2.687386   1.000000
  100       -2.612330   1.000000
  101       -2.522099   1.000000
  102       -2.421967   1.000000
  103       -2.374053   1.000000
  104       -2.315367   1.000000
  105       -2.305643   1.000000
  106       -2.130991   1.000000
  107       -2.127127   1.000000
  108       -2.101417   1.000000
  109       -2.096261   1.000000
  110       -1.960661   1.000000
  111       -1.956186   1.000000
  112       -1.804327   1.000000
  113       -1.728786   1.000000
  114       -1.683202   1.000000
  115       -1.439031   1.000000
  116       -1.323050   1.000000
  117       -1.293041   1.000000
  118       -1.263886   1.000000
  119       -1.092538   1.000000
  120       -0.995011   1.000000
  121       -0.897585   1.000000
  122       -0.857851   1.000000
  123       -0.772785   1.000000
  124       -0.632122   1.000000
  125       -0.473799   1.000038
  126       -0.441387   1.000098
  127       -0.317176   1.002022
  128       -0.276837   1.004458
  129       -0.172685   1.020845
  130       -0.138019   1.028748
  131       -0.020357   1.009037
  132        0.034349   0.925864
  133        0.080769   0.798034
  134        0.127348   0.623932
  135        0.169990   0.445145
  136        0.198604   0.328093
  137        0.259906   0.122014
  138        0.324882   0.000540
  139        0.385267  -0.034261
  140        0.450756  -0.029018
  141        0.520965  -0.013680
  142        0.633216  -0.001937
  143        0.678107  -0.000713
  144        0.681488  -0.000658
  145        0.775188  -0.000056
  146        0.866208  -0.000003
  147        0.963928  -0.000000
  148        1.029405  -0.000000
  149        1.085851  -0.000000
  150        1.128921  -0.000000
  151        1.188780  -0.000000
  152        1.206044  -0.000000
  153        1.226575  -0.000000
  154        1.244553  -0.000000
  155        1.293414  -0.000000
  156        1.348022  -0.000000
  157        1.373460  -0.000000
  158        1.395193  -0.000000
  159        1.446328  -0.000000
  160        1.449173  -0.000000
  161        1.476368  -0.000000
  162        1.511336  -0.000000
  163        1.549582  -0.000000
  164        1.622643  -0.000000
  165        1.634742  -0.000000
  166        1.649611  -0.000000
  167        1.736745  -0.000000
  168        1.754517  -0.000000
  169        1.768217  -0.000000
  170        1.829453  -0.000000
  171        1.878455  -0.000000
  172        1.962620  -0.000000
  173        2.009237  -0.000000
  174        2.047883  -0.000000
  175        2.090828  -0.000000
  176        2.100375  -0.000000

  0.2000000E+00  0.3742002E-15  0.1262379E-14  0.4444444E-01
    1      -13.859437   1.000000
    2      -13.148857   1.000000
    3      -12.668598   1.000000
    4      -12.156095   1.000000
    5      -11.965359   1.000000
    6      -11.770842   1.000000
    7      -11.596278   1.000000
    8      -11.351777   1.000000
    9      -11.254386   1.000000
   10      -11.162489   1.000000
   11      -10.995934   1.000000
   12      -10.929007   1.000000
   13      -10.774644   1.000000
   14      -10.631884   1.000000
   15      -10.482278   1.000000
   16      -10.290055   1.000000
   17      -10.187262   1.000000
   18      -10.123397   1.000000
   19       -9.776788   1.000000
   20       -9.771318   1.000000
   21       -9.476434   1.000000
   22       -9.393132   1.000000
   23       -9.315591   1.000000
   24       -9.040301   1.000000
   25       -8.890022   1.000000
   26       -8.856553   1.000000
   27       -8.443214   1.000000
   28       -8.315395   1.000000
   29       -8.170234   1.000000
   30       -8.057455   1.000000
   31       -8.002808   1.000000
   32       -7.967345   1.000000
   33       -7.515074   1.000000
   34       -7.482153   1.000000
   35       -7.387087   1.000000
   36       -7.303161   1.000000
   37       -7.221752   1.000000
   38       -7.070730   1.000000
   39       -6.980813   1.000000
   40       -6.842546   1.000000
   41       -6.778986   1.000000
   42       -6.685795   1.000000
   43       -6.592362   1.000000
   44       -6.543871   1.000000
   45       -6.449942   1.000000
   46       -6.203468   1.000000
   47       -6.128804   1.000000
   48       -5.994546   1.000000
   49       -5.958105   1.000000
   50       -5.912948   1.000000
   51       -5.867202   1.000000
   52       -5.820082   1.000000
   53       -5.714976   1.000000
   54       -5.666276   1.000000
   55       -5.576210   1.000000
   56       -5.464939   1.000000
   57       -5.389103   1.000000
   58       -5.367755   1.000000
   59       -5.299476   1.000000
   60       -5.202219   1.000000
   61       -5.179068   1.000000
   62       -5.069734   1.000000
   63       -5.028150   1.000000
   64       -4.954805   1.000000
   65       -4.804131   1.000000
   66       -4.711834   1.000000
   67       -4.649913   1.000000
   68       -4.601695   1.000000
   69       -4.526624   1.000000
   70       -4.434644   1.000000
   71       -4.412440   1.000000
   72       -4.345382   1.000000
   73       -4.333789   1.000000
   74       -4.298456   1.000000
   75       -4.211677   1.000000
   76       -4.123320   1.000000
   77       -4.079134   1.000000
   78       -4.018410   1.000000
   79       -3.875066   1.000000
   80       -3.823055   1.000000
   81       -3.811792   1.000000
   82       -3.760968   1.000000
   83       -3.704619   1.000000
   84       -3.586430   1.000000
   85       -3.487993   1.000000
   86       -3.412942   1.000000
   87       -3.387856   1.000000
   88       -3.366175   1.000000
   89       -3.303475   1.000000
   90       -3.262166   1.000000
   91       -3.223803   1.000000
   92       -3.114476   1.000000
   93       -3.090532   1.000000
   94       -2.988643   1.000000
   95       -2.952343   1.000000
   96       -2.936213   1.000000
   97       -2.803959   1.000000
   98       -2.728094   1.000000
   99       -2.699199   1.000000
  100       -2.559599   1.000000
  101       -2.501051   1.000000
  102       -2.490659   1.000000
  103       -2.400413   1.000000
  104       -2.273571   1.000000
  105       -2.230363   1.000000
  106       -2.146687   1.000000
  107       -2.127750   1.000000
  108       -2.032771   1.000000
  109       -2.002989   1.000000
  110       -1.936547   1.000000
  111       -1.922145   1.000000
  112       -1.792724   1.000000
  113       -1.759708   1.000000
  114       -1.623641   1.000000
  115       -1.462220   1.000000
  116       -1.336870   1.000000
  117       -1.314876   1.000000
  118       -1.290334   1.000000
  119       -1.145664   1.000000
  120       -1.044736   1.000000
  121       -0.958534   1.000000
  122       -0.894958   1.000000
  123       -0.760097   1.000000
  124       -0.682646   1.000000
  125       -0.472100   1.000040
  126       -0.411714   1.000218
  127       -0.330783   1.001515
  128       -0.308898   1.002397
  129       -0.229989   1.009809
  130       -0.209153   1.013278
  131       -0.092364   1.035385
  132        0.006738   0.976514
  133        0.060877   0.859251
  134        0.116893   0.665961
  135        0.220083   0.247208
  136        0.274536   0.085580
  137        0.279432   0.074594
  138        0.350378  -0.021344
  139        0.410263  -0.035206
  140        0.472012  -0.024219
  141        0.503357  -0.017183
  142        0.611568  -0.003006
  143        0.721580  -0.000243
  144        0.734560  -0.000172
  145        0.830776  -0.000010
  146        0.911154  -0.000001
  147        0.957040  -0.000000
  148        1.044139  -0.000000
  149        1.099547  -0.000000
  150        1.130324  -0.000000
  151        1.161547  -0.000000
  152        1.212329  -0.000000
  153        1.236557  -0.000000
  154        1.288974  -0.000000
  155        1.324534  -0.000000
  156        1.361416  -0.000000
  157        1.387595  -0.000000
  158        1.426210  -0.000000
  159        1.438713  -0.000000
  160        1.469398  -0.000000
  161        1.514193  -0.000000
  162        1.526202  -0.000000
  163        1.582103  -0.000000
  164        1.605232  -0.000000
  165        1.642249  -0.000000
  166        1.697396  -0.000000
  167        1.742871  -0.000000
  168        1.766574  -0.000000
  169        1.777667  -0.000000
  170        1.808859  -0.000000
  171        1.924720  -0.000000
  172        1.950329  -0.000000
  173        2.035419  -0.000000
  174        2.049614  -0.000000
  175        2.075795  -0.000000
  176        2.144998  -0.000000

  0.4000000E+00  0.3742002E-15  0.1262379E-14  0.4444444E-01
    1      -13.757622   1.000000
    2      -13.404100   1.000000
    3      -12.559313   1.000000
    4      -12.222220   1.000000
    5      -11.752994   1.000000
    6      -11.672924   1.000000
    7      -11.645399   1.000000
    8      -11.313400   1.000000
    9      -11.177592   1.000000
   10      -11.146548   1.000000
   11      -11.023196   1.000000
   12      -10.930244   1.000000
   13      -10.761910   1.000000
   14      -10.660808   1.000000
   15      -10.573138   1.000000
   16      -10.537808   1.000000
   17      -10.148763   1.000000
   18      -10.097271   1.000000
   19       -9.994702   1.000000
   20       -9.946531   1.000000
   21       -9.463060   1.000000
   22       -9.335873   1.000000
   23       -9.215433   1.000000
   24       -9.013341   1.000000
   25       -8.810543   1.000000
   26       -8.692749   1.000000
   27       -8.366766   1.000000
   28       -8.221166   1.000000
   29       -8.038672   1.000000
   30       -7.973678   1.000000
   31       -7.839093   1.000000
   32       -7.749520   1.000000
   33       -7.731293   1.000000
   34       -7.668398   1.000000
   35       -7.515611   1.000000
   36       -7.382003   1.000000
   37       -7.301593   1.000000
   38       -7.217480   1.000000
   39       -7.148003   1.000000
   40       -7.022118   1.000000
   41       -6.727494   1.000000
   42       -6.701234   1.000000
   43       -6.533041   1.000000
   44       -6.481447   1.000000
   45       -6.430068   1.000000
   46       -6.180854   1.000000
   47       -6.123062   1.000000
   48       -6.006858   1.000000
   49       -5.990246   1.000000
   50       -5.884762   1.000000
   51       -5.821038   1.000000
   52       -5.782791   1.000000
   53       -5.687294   1.000000
   54       -5.611359   1.000000
   55       -5.554632   1.000000
   56       -5.497752   1.000000
   57       -5.433824   1.000000
   58       -5.367439   1.000000
   59       -5.270834   1.000000
   60       -5.154452   1.000000
   61       -5.094981   1.000000
   62       -5.054364   1.000000
   63       -4.984249   1.000000
   64       -4.907793   1.000000
   65       -4.817800   1.000000
   66       -4.698838   1.000000
   67       -4.663702   1.000000
   68       -4.603401   1.000000
   69       -4.529359   1.000000
   70       -4.499818   1.000000
   71       -4.403449   1.000000
   72       -4.374362   1.000000
   73       -4.275426   1.000000
   74       -4.266156   1.000000
   75       -4.173075   1.000000
   76       -4.122960   1.000000
   77       -4.022961   1.000000
   78       -3.938940   1.000000
   79       -3.913842   1.000000
   80       -3.886404   1.000000
   81       -3.856867   1.000000
   82       -3.787918   1.000000
   83       -3.684944   1.000000
   84       -3.613518   1.000000
   85       -3.537978   1.000000
   86       -3.498601   1.000000
   87       -3.444368   1.000000
   88       -3.390021   1.000000
   89       -3.326858   1.000000
   90       -3.218323   1.000000
   91       -3.186368   1.000000
   92       -3.107330   1.000000
   93       -3.104100   1.000000
   94       -3.080685   1.000000
   95       -2.928776   1.000000
   96       -2.898416   1.000000
   97       -2.864105   1.000000
   98       -2.822739   1.000000
   99       -2.643554   1.000000
  100       -2.595530   1.000000
  101       -2.575121   1.000000
  102       -2.522262   1.000000
  103       -2.254816   1.000000
  104       -2.229083   1.000000
  105       -2.171677   1.000000
  106       -2.079895   1.000000
  107       -2.005854   1.000000
  108       -1.993429   1.000000
  109       -1.962768   1.000000
  110       -1.850956   1.000000
  111       -1.822753   1.000000
  112       -1.816175   1.000000
  113       -1.706786   1.000000
  114       -1.599331   1.000000
  115       -1.555460   1.000000
  116       -1.469364   1.000000
  117       -1.354527   1.000000
  118       -1.337308   1.000000
  119       -1.129322   1.000000
  120       -1.084851   1.000000
  121       -1.002380   1.000000
  122       -0.970144   1.000000
  123       -0.815236   1.000000
  124       -0.767967   1.000000
  125       -0.493554   1.000021
  126       -0.485700   1.000027
  127       -0.367743   1.000655
  128       -0.327150   1.001638
  129       -0.299187   1.002912
  130       -0.271624   1.004901
  131       -0.127358   1.030949
  132       -0.014204   1.003019
  133        0.116215   0.668643
  134        0.144091   0.554476
  135        0.188270   0.369442
  136        0.269057   0.098592
  137        0.342170  -0.015626
  138        0.353685  -0.023323
  139        0.429957  -0.032978
  140        0.482238  -0.021858
  141        0.604451  -0.003451
  142        0.643890  -0.001544
  143        0.755144  -0.000098
  144        0.804026  -0.000024
  145        0.834570  -0.000009
  146        0.875621  -0.000002
  147        0.975870  -0.000000
  148        1.103537  -0.000000
  149        1.130959  -0.000000
  150        1.177048  -0.000000
  151        1.204280  -0.000000
  152        1.231853  -0.000000
  153        1.265012  -0.000000
  154        1.311858  -0.000000
  155        1.346246  -0.000000
  156        1.377567  -0.000000
  157        1.393159  -0.000000
  158        1.430003  -0.000000
  159        1.463972  -0.000000
  160        1.509678  -0.000000
  161        1.556354  -0.000000
  162        1.597644  -0.000000
  163        1.638384  -0.000000
  164        1.651059  -0.000000
  165        1.665302  -0.000000
  166        1.694981  -0.000000
  167        1.752032  -0.000000
  168        1.778355  -0.000000
  169        1.843772  -0.000000
  170        1.869970  -0.000000
  171        1.918326  -0.000000
  172        1.963692  -0.000000
  173        2.017197  -0.000000
  174        2.031870  -0.000000
  175        2.092867  -0.000000
  176        2.166438  -0.000000

  0.3742002E-15  0.1111111E+00  0.1262379E-14  0.4444444E-01
    1      -13.854205   1.000000
    2      -12.871812   1.000000
    3      -12.728579   1.000000
    4      -12.379702   1.000000
    5      -11.877544   1.000000
    6      -11.633372   1.000000
    7      -11.594199   1.000000
    8      -11.540737   1.000000
    9      -11.429919   1.000000
   10      -11.176793   1.000000
   11      -11.040890   1.000000
   12      -10.994491   1.000000
   13      -10.814652   1.000000
   14      -10.435813   1.000000
   15      -10.316109   1.000000
   16      -10.228275   1.000000
   17      -10.123319   1.000000
   18      -10.045771   1.000000
   19       -9.790588   1.000000
   20       -9.644657   1.000000
   21       -9.595505   1.000000
   22       -9.484242   1.000000
   23       -9.396949   1.000000
   24       -8.966311   1.000000
   25       -8.933457   1.000000
   26       -8.780167   1.000000
   27       -8.588036   1.000000
   28       -8.544432   1.000000
   29       -8.288824   1.000000
   30       -8.128181   1.000000
   31       -7.894609   1.000000
   32       -7.840423   1.000000
   33       -7.566261   1.000000
   34       -7.453659   1.000000
   35       -7.417678   1.000000
   36       -7.299454   1.000000
   37       -7.205736   1.000000
   38       -6.948955   1.000000
   39       -6.898152   1.000000
   40       -6.839110   1.000000
   41       -6.724213   1.000000
   42       -6.672739   1.000000
   43       -6.593259   1.000000
   44       -6.460823   1.000000
   45       -6.338712   1.000000
   46       -6.285304   1.000000
   47       -6.164386   1.000000
   48       -6.029872   1.000000
   49       -5.985851   1.000000
   50       -5.953429   1.000000
   51       -5.842166   1.000000
   52       -5.759093   1.000000
   53       -5.708167   1.000000
   54       -5.666504   1.000000
   55       -5.619064   1.000000
   56       -5.500498   1.000000
   57       -5.390592   1.000000
   58       -5.337218   1.000000
   59       -5.276819   1.000000
   60       -5.217359   1.000000
   61       -5.150900   1.000000
   62       -5.103753   1.000000
   63       -4.968006   1.000000
   64       -4.942478   1.000000
   65       -4.812251   1.000000
   66       -4.706780   1.000000
   67       -4.654289   1.000000
   68       -4.600958   1.000000
   69       -4.518449   1.000000
   70       -4.492868   1.000000
   71       -4.454941   1.000000
   72       -4.410134   1.000000
   73       -4.302722   1.000000
   74       -4.225205   1.000000
   75       -4.155130   1.000000
   76       -4.132925   1.000000
   77       -4.087454   1.000000
   78       -4.032309   1.000000
   79       -3.897981   1.000000
   80       -3.874580   1.000000
   81       -3.797573   1.000000
   82       -3.766294   1.000000
   83       -3.672427   1.000000
   84       -3.625901   1.000000
   85       -3.563832   1.000000
   86       -3.456531   1.000000
   87       -3.431958   1.000000
   88       -3.360747   1.000000
   89       -3.266293   1.000000
   90       -3.224019   1.000000
   91       -3.198900   1.000000
   92       -3.148657   1.000000
   93       -3.103921   1.000000
   94       -3.027357   1.000000
   95       -2.999191   1.000000
   96       -2.900831   1.000000
   97       -2.841878   1.000000
   98       -2.691653   1.000000
   99       -2.649581   1.000000
  100       -2.604949   1.000000
  101       -2.520272   1.000000
  102       -2.472390   1.000000
  103       -2.366841   1.000000
  104       -2.328936   1.000000
  105       -2.276785   1.000000
  106       -2.227353   1.000000
  107       -2.116382   1.000000
  108       -2.104809   1.000000
  109       -2.044748   1.000000
  110       -1.966465   1.000000
  111       -1.892842   1.000000
  112       -1.805070   1.000000
  113       -1.672937   1.000000
  114       -1.638339   1.000000
  115       -1.438246   1.000000
  116       -1.355608   1.000000
  117       -1.332907   1.000000
  118       -1.249219   1.000000
  119       -1.154895   1.000000
  120       -1.004687   1.000000
  121       -0.885398   1.000000
  122       -0.857795   1.000000
  123       -0.772000   1.000000
  124       -0.638814   1.000000
  125       -0.558510   1.000003
  126       -0.429246   1.000136
  127       -0.289980   1.003483
  128       -0.272006   1.004867
  129       -0.238883   1.008540
  130       -0.168743   1.021744
  131       -0.083460   1.035378
  132       -0.003878   0.991157
  133        0.106509   0.706264
  134        0.123243   0.640585
  135        0.175789   0.420864
  136        0.271112   0.093623
  137        0.298994   0.036686
  138        0.361859  -0.027471
  139        0.445783  -0.030062
  140        0.487659  -0.020623
  141        0.566961  -0.006783
  142        0.636686  -0.001801
  143        0.731382  -0.000188
  144        0.760060  -0.000086
  145        0.801558  -0.000025
  146        0.854361  -0.000005
  147        0.937828  -0.000000
  148        0.992270  -0.000000
  149        1.045989  -0.000000
  150        1.137675  -0.000000
  151        1.166961  -0.000000
  152        1.191857  -0.000000
  153        1.218901  -0.000000
  154        1.260288  -0.000000
  155        1.277255  -0.000000
  156        1.332185  -0.000000
  157        1.348023  -0.000000
  158        1.371536  -0.000000
  159        1.400984  -0.000000
  160        1.439504  -0.000000
  161        1.477081  -0.000000
  162        1.513142  -0.000000
  163        1.526409  -0.000000
  164        1.562558  -0.000000
  165        1.617618  -0.000000
  166        1.704397  -0.000000
  167        1.715853  -0.000000
  168        1.744629  -0.000000
  169        1.772085  -0.000000
  170        1.824053  -0.000000
  171        1.922792  -0.000000
  172        1.956279  -0.000000
  173        1.985652  -0.000000
  174        2.027167  -0.000000
  175        2.116564  -0.000000
  176        2.161568  -0.000000

  0.2000000E+00  0.1111111E+00  0.1262379E-14  0.4444444E-01
    1      -13.813972   1.000000
    2      -13.109457   1.000000
    3      -12.630598   1.000000
    4      -12.129840   1.000000
    5      -11.938984   1.000000
    6      -11.858354   1.000000
    7      -11.642447   1.000000
    8      -11.390350   1.000000
    9      -11.235242   1.000000
   10      -11.175350   1.000000
   11      -11.013194   1.000000
   12      -10.903591   1.000000
   13      -10.800904   1.000000
   14      -10.607478   1.000000
   15      -10.483619   1.000000
   16      -10.274232   1.000000
   17      -10.196037   1.000000
   18      -10.127392   1.000000
   19       -9.789202   1.000000
   20       -9.742033   1.000000
   21       -9.477441   1.000000
   22       -9.400355   1.000000
   23       -9.306555   1.000000
   24       -9.043594   1.000000
   25       -8.927018   1.000000
   26       -8.843967   1.000000
   27       -8.448762   1.000000
   28       -8.314934   1.000000
   29       -8.174092   1.000000
   30       -8.090611   1.000000
   31       -7.998069   1.000000
   32       -7.830735   1.000000
   33       -7.597608   1.000000
   34       -7.503977   1.000000
   35       -7.419629   1.000000
   36       -7.296398   1.000000
   37       -7.280309   1.000000
   38       -7.078293   1.000000
   39       -6.969695   1.000000
   40       -6.838671   1.000000
   41       -6.739384   1.000000
   42       -6.669457   1.000000
   43       -6.572429   1.000000
   44       -6.540035   1.000000
   45       -6.428802   1.000000
   46       -6.309191   1.000000
   47       -6.161038   1.000000
   48       -5.995493   1.000000
   49       -5.965932   1.000000
   50       -5.855261   1.000000
   51       -5.831708   1.000000
   52       -5.765826   1.000000
   53       -5.708426   1.000000
   54       -5.616598   1.000000
   55       -5.592333   1.000000
   56       -5.455686   1.000000
   57       -5.383087   1.000000
   58       -5.325332   1.000000
   59       -5.253156   1.000000
   60       -5.188135   1.000000
   61       -5.151464   1.000000
   62       -5.056450   1.000000
   63       -4.999116   1.000000
   64       -4.939978   1.000000
   65       -4.788242   1.000000
   66       -4.718350   1.000000
   67       -4.653822   1.000000
   68       -4.588660   1.000000
   69       -4.540081   1.000000
   70       -4.472157   1.000000
   71       -4.418974   1.000000
   72       -4.352357   1.000000
   73       -4.296139   1.000000
   74       -4.283083   1.000000
   75       -4.229623   1.000000
   76       -4.127912   1.000000
   77       -4.065056   1.000000
   78       -4.000463   1.000000
   79       -3.896634   1.000000
   80       -3.860367   1.000000
   81       -3.828545   1.000000
   82       -3.793008   1.000000
   83       -3.692843   1.000000
   84       -3.623244   1.000000
   85       -3.557211   1.000000
   86       -3.463033   1.000000
   87       -3.429701   1.000000
   88       -3.394544   1.000000
   89       -3.322517   1.000000
   90       -3.227733   1.000000
   91       -3.188973   1.000000
   92       -3.152617   1.000000
   93       -3.109150   1.000000
   94       -3.060643   1.000000
   95       -3.015423   1.000000
   96       -2.939496   1.000000
   97       -2.763385   1.000000
   98       -2.736196   1.000000
   99       -2.662257   1.000000
  100       -2.567127   1.000000
  101       -2.536806   1.000000
  102       -2.435457   1.000000
  103       -2.409738   1.000000
  104       -2.293311   1.000000
  105       -2.244152   1.000000
  106       -2.216727   1.000000
  107       -2.138464   1.000000
  108       -2.046951   1.000000
  109       -1.979290   1.000000
  110       -1.918277   1.000000
  111       -1.883112   1.000000
  112       -1.791465   1.000000
  113       -1.703388   1.000000
  114       -1.654324   1.000000
  115       -1.446999   1.000000
  116       -1.384121   1.000000
  117       -1.320209   1.000000
  118       -1.296316   1.000000
  119       -1.190267   1.000000
  120       -1.088137   1.000000
  121       -0.920957   1.000000
  122       -0.856275   1.000000
  123       -0.733130   1.000000
  124       -0.654927   1.000000
  125       -0.611341   1.000000
  126       -0.416458   1.000192
  127       -0.338427   1.001282
  128       -0.283070   1.003971
  129       -0.223169   1.010868
  130       -0.202632   1.014503
  131       -0.119270   1.032433
  132       -0.005974   0.993749
  133        0.083016   0.790555
  134        0.145875   0.546973
  135        0.205678   0.300616
  136        0.244760   0.165327
  137        0.346451  -0.018756
  138        0.406127  -0.035392
  139        0.425269  -0.033678
  140        0.531541  -0.011797
  141        0.566550  -0.006830
  142        0.637075  -0.001786
  143        0.720642  -0.000249
  144        0.776328  -0.000054
  145        0.830309  -0.000010
  146        0.916830  -0.000001
  147        0.983085  -0.000000
  148        1.007393  -0.000000
  149        1.037842  -0.000000
  150        1.139814  -0.000000
  151        1.166037  -0.000000
  152        1.210343  -0.000000
  153        1.234173  -0.000000
  154        1.260400  -0.000000
  155        1.324156  -0.000000
  156        1.334160  -0.000000
  157        1.357917  -0.000000
  158        1.390514  -0.000000
  159        1.413007  -0.000000
  160        1.458723  -0.000000
  161        1.484445  -0.000000
  162        1.522391  -0.000000
  163        1.572363  -0.000000
  164        1.605483  -0.000000
  165        1.660770  -0.000000
  166        1.676294  -0.000000
  167        1.714482  -0.000000
  168        1.749838  -0.000000
  169        1.765930  -0.000000
  170        1.843631  -0.000000
  171        1.910991  -0.000000
  172        1.945373  -0.000000
  173        1.979948  -0.000000
  174        2.043742  -0.000000
  175        2.100546  -0.000000
  176        2.156341  -0.000000

  0.4000000E+00  0.1111111E+00  0.1262379E-14  0.4444444E-01
    1      -13.712943   1.000000
    2      -13.362681   1.000000
    3      -12.521509   1.000000
    4      -12.190500   1.000000
    5      -11.843640   1.000000
    6      -11.710404   1.000000
    7      -11.641238   1.000000
    8      -11.343984   1.000000
    9      -11.199967   1.000000
   10      -11.119203   1.000000
   11      -11.004840   1.000000