 running on   72 total cores
 distrk:  each k-point on   72 cores,    1 groups
 distr:  one band on    9 cores,    8 groups
 using from now: INCAR     
 vasp.5.4.4.18Apr17-6-g9f103f2a35 (build Dec  7 2020 12:43:57) complex           
 POSCAR found type information on POSCAR  Mo V  B  H 
 POSCAR found :  4 types and      73 ions
 scaLAPACK will be used
 LDA part: xc-table for Pade appr. of Perdew
 POSCAR, INCAR and KPOINTS ok, starting setup
 resort distribution
 resort distribution
 resort distribution
 resort distribution
 resort distribution
 resort distribution
 resort distribution
 resort distribution
 resort distribution
 resort distribution
 resort distribution
 resort distribution
 resort distribution
 resort distribution
 resort distribution
 resort distribution
 resort distribution
 resort distribution
 resort distribution
 resort distribution
 resort distribution
 resort distribution
 resort distribution
 resort distribution
 resort distribution
 resort distribution
 resort distribution
 resort distribution
 resort distribution
 resort distribution
 resort distribution
 resort distribution
 resort distribution
 resort distribution
 resort distribution
 resort distribution
 resort distribution
 resort distribution
 resort distribution
 resort distribution
 resort distribution
 resort distribution
 resort distribution
 resort distribution
 resort distribution
 resort distribution
 resort distribution
 resort distribution
 resort distribution
 resort distribution
 resort distribution
 resort distribution
 resort distribution
 resort distribution
 resort distribution
 resort distribution
 resort distribution
 resort distribution
 resort distribution
 resort distribution
 resort distribution
 resort distribution
 resort distribution
 resort distribution
 resort distribution
 resort distribution
 resort distribution
 resort distribution
 resort distribution
 resort distribution
 resort distribution
 resort distribution
 FFT: planning ...
 WAVECAR not read
 augmentation electrons   268.05817887133253     
 soft         electrons   0.0000000000000000     
 augmentation electrons   268.05817887133253     
 soft         electrons   0.0000000000000000     
 augmentation electrons   268.05817887133253     
 soft         electrons   0.0000000000000000     
 augmentation electrons   268.05817887133253     
 soft         electrons   0.0000000000000000     
 augmentation electrons   268.05817887133253     
 soft         electrons   0.0000000000000000     
 augmentation electrons   268.05817887133253     
 soft         electrons   0.0000000000000000     
 augmentation electrons   268.05817887133253     
 soft         electrons   0.0000000000000000     
 augmentation electrons   268.05817887133253     
 soft         electrons   0.0000000000000000     
 augmentation electrons   268.05817887133253     
 soft         electrons   0.0000000000000000     
 augmentation electrons   268.05817887133253     
 soft         electrons   0.0000000000000000     
 augmentation electrons   268.05817887133253     
 soft         electrons   0.0000000000000000     
 augmentation electrons   268.05817887133253     
 soft         electrons   0.0000000000000000     
 augmentation electrons   268.05817887133253     
 soft         electrons   0.0000000000000000     
 augmentation electrons   268.05817887133253     
 soft         electrons   0.0000000000000000     
 augmentation electrons   268.05817887133253     
 soft         electrons   0.0000000000000000     
 augmentation electrons   268.05817887133253     
 soft         electrons   0.0000000000000000     
 augmentation electrons   268.05817887133253     
 soft         electrons   0.0000000000000000     
 augmentation electrons   268.05817887133253     
 soft         electrons   0.0000000000000000     
 augmentation electrons   268.05817887133253     
 soft         electrons   0.0000000000000000     
 augmentation electrons   268.05817887133253     
 soft         electrons   0.0000000000000000     
 augmentation electrons   268.05817887133253     
 soft         electrons   0.0000000000000000     
 augmentation electrons   268.05817887133253     
 soft         electrons   0.0000000000000000     
 augmentation electrons   268.05817887133253     
 soft         electrons   0.0000000000000000     
 augmentation electrons   268.05817887133253     
 soft         electrons   0.0000000000000000     
 augmentation electrons   268.05817887133253     
 soft         electrons   0.0000000000000000     
 augmentation electrons   268.05817887133253     
 soft         electrons   0.0000000000000000     
 augmentation electrons   268.05817887133253     
 soft         electrons   0.0000000000000000     
 augmentation electrons   268.05817887133253     
 soft         electrons   0.0000000000000000     
 augmentation electrons   268.05817887133253     
 soft         electrons   0.0000000000000000     
 augmentation electrons   268.05817887133253     
 soft         electrons   0.0000000000000000     
 augmentation electrons   268.05817887133253     
 soft         electrons   0.0000000000000000     
 augmentation electrons   268.05817887133253     
 soft         electrons   0.0000000000000000     
 augmentation electrons   268.05817887133253     
 soft         electrons   0.0000000000000000     
 augmentation electrons   268.05817887133253     
 soft         electrons   0.0000000000000000     
 augmentation electrons   268.05817887133253     
 soft         electrons   0.0000000000000000     
 augmentation electrons   268.05817887133253     
 soft         electrons   0.0000000000000000     
 augmentation electrons   268.05817887133253     
 soft         electrons   0.0000000000000000     
 augmentation electrons   268.05817887133253     
 soft         electrons   0.0000000000000000     
 augmentation electrons   268.05817887133253     
 soft         electrons   0.0000000000000000     
 augmentation electrons   268.05817887133253     
 soft         electrons   0.0000000000000000     
 augmentation electrons   268.05817887133253     
 soft         electrons   0.0000000000000000     
 augmentation electrons   268.05817887133253     
 soft         electrons   0.0000000000000000     
 augmentation electrons   268.05817887133253     
 soft         electrons   0.0000000000000000     
 augmentation electrons   268.05817887133253     
 soft         electrons   0.0000000000000000     
 augmentation electrons   268.05817887133253     
 soft         electrons   0.0000000000000000     
 total        electrons   268.05817887133253     
 augmentation electrons   268.05817887133253     
 soft         electrons   0.0000000000000000     
 total        electrons   268.05817887133253     
 augmentation electrons   268.05817887133253     
 soft         electrons   0.0000000000000000     
 augmentation electrons   268.05817887133253     
 soft         electrons   0.0000000000000000     
 total        electrons   268.05817887133253     
 augmentation electrons   268.05817887133253     
 soft         electrons   0.0000000000000000     
 total        electrons   268.05817887133253     
 augmentation electrons   268.05817887133253     
 soft         electrons   0.0000000000000000     
 total        electrons   268.05817887133253     
 augmentation electrons   268.05817887133253     
 soft         electrons   0.0000000000000000     
 total        electrons   268.05817887133253     
 augmentation electrons   268.05817887133253     
 soft         electrons   0.0000000000000000     
 total        electrons   268.05817887133253     
 augmentation electrons   268.05817887133253     
 soft         electrons   0.0000000000000000     
 total        electrons   268.05817887133253     
 augmentation electrons   268.05817887133253     
 soft         electrons   0.0000000000000000     
 total        electrons   268.05817887133253     
 augmentation electrons   268.05817887133253     
 soft         electrons   0.0000000000000000     
 total        electrons   268.05817887133253     
 augmentation electrons   268.05817887133253     
 soft         electrons   0.0000000000000000     
 augmentation electrons   268.05817887133253     
 soft         electrons   0.0000000000000000     
 total        electrons   268.05817887133253     
 augmentation electrons   268.05817887133253     
 soft         electrons   0.0000000000000000     
 total        electrons   268.05817887133253     
 augmentation electrons   268.05817887133253     
 soft         electrons   0.0000000000000000     
 total        electrons   268.05817887133253     
 augmentation electrons   268.05817887133253     
 soft         electrons   0.0000000000000000     
 total        electrons   268.05817887133253     
 augmentation electrons   268.05817887133253     
 soft         electrons   0.0000000000000000     
 total        electrons   268.05817887133253     
 augmentation electrons   268.05817887133253     
 soft         electrons   0.0000000000000000     
 total        electrons   268.05817887133253     
 augmentation electrons   268.05817887133253     
 soft         electrons   0.0000000000000000     
 total        electrons   268.05817887133253     
 augmentation electrons   268.05817887133253     
 soft         electrons   0.0000000000000000     
 total        electrons   268.05817887133253     
 augmentation electrons   268.05817887133253     
 soft         electrons   0.0000000000000000     
 total        electrons   268.05817887133253     
 augmentation electrons   268.05817887133253     
 soft         electrons   0.0000000000000000     
 total        electrons   268.05817887133253     
 augmentation electrons   268.05817887133253     
 soft         electrons   0.0000000000000000     
 total        electrons   268.05817887133253     
 augmentation electrons   268.05817887133253     
 soft         electrons   0.0000000000000000     
 total        electrons   268.05817887133253     
 augmentation electrons   268.05817887133253     
 soft         electrons   0.0000000000000000     
 total        electrons   268.05817887133253     
 augmentation electrons   268.05817887133253     
 soft         electrons   0.0000000000000000     
 total        electrons   268.05817887133253     
 augmentation electrons   268.05817887133253     
 soft         electrons   0.0000000000000000     
 total        electrons   268.05817887133253     
 total        electrons   268.05817887133253     
 total        electrons   268.05817887133253     
 total        electrons   268.05817887133253     
 total        electrons   268.05817887133253     
 augmentation electrons   268.05817887133253     
 soft         electrons   0.0000000000000000     
 total        electrons   268.05817887133253     
 total        electrons   268.05817887133253     
 total        electrons   268.05817887133253     
 total        electrons   268.05817887133253     
 total        electrons   268.05817887133253     
 total        electrons   268.05817887133253     
 total        electrons   268.05817887133253     
 total        electrons   268.05817887133253     
 total        electrons   268.05817887133253     
 total        electrons   268.05817887133253     
 total        electrons   268.05817887133253     
 total        electrons   268.05817887133253     
 total        electrons   268.05817887133253     
 total        electrons   268.05817887133253     
 total        electrons   268.05817887133253     
 total        electrons   268.05817887133253     
 total        electrons   268.05817887133253     
 total        electrons   268.05817887133253     
 total        electrons   268.05817887133253     
 total        electrons   268.05817887133253     
 total        electrons   268.05817887133253     
 total        electrons   268.05817887133253     
 total        electrons   268.05817887133253     
 total        electrons   268.05817887133253     
 total        electrons   268.05817887133253     
 total        electrons   268.05817887133253     
 total        electrons   268.05817887133253     
 total        electrons   268.05817887133253     
 total        electrons   268.05817887133253     
 total        electrons   268.05817887133253     
 total        electrons   268.05817887133253     
 total        electrons   268.05817887133253     
 total        electrons   268.05817887133253     
 total        electrons   268.05817887133253     
 total        electrons   268.05817887133253     
 total        electrons   268.05817887133253     
 total        electrons   268.05817887133253     
 total        electrons   268.05817887133253     
 total        electrons   268.05817887133253     
 total        electrons   268.05817887133253     
 total        electrons   268.05817887133253     
 total        electrons   268.05817887133253     
 total        electrons   268.05817887133253     
 augmentation electrons   1134.5113766423656     
 soft         electrons   0.0000000000000000     
 augmentation electrons   1134.5113766423656     
 soft         electrons   0.0000000000000000     
 augmentation electrons   1134.5113766423656     
 soft         electrons   0.0000000000000000     
 augmentation electrons   1134.5113766423656     
 soft         electrons   0.0000000000000000     
 augmentation electrons   1134.5113766423656     
 soft         electrons   0.0000000000000000     
 augmentation electrons   1134.5113766423656     
 soft         electrons   0.0000000000000000     
 augmentation electrons   1134.5113766423656     
 soft         electrons   0.0000000000000000     
 augmentation electrons   1134.5113766423656     
 soft         electrons   0.0000000000000000     
 augmentation electrons   1134.5113766423656     
 soft         electrons   0.0000000000000000     
 augmentation electrons   1134.5113766423656     
 soft         electrons   0.0000000000000000     
 augmentation electrons   1134.5113766423656     
 soft         electrons   0.0000000000000000     
 augmentation electrons   1134.5113766423656     
 soft         electrons   0.0000000000000000     
 augmentation electrons   1134.5113766423656     
 soft         electrons   0.0000000000000000     
 augmentation electrons   1134.5113766423656     
 soft         electrons   0.0000000000000000     
 augmentation electrons   1134.5113766423656     
 soft         electrons   0.0000000000000000     
 augmentation electrons   1134.5113766423656     
 soft         electrons   0.0000000000000000     
 augmentation electrons   1134.5113766423656     
 soft         electrons   0.0000000000000000     
 augmentation electrons   1134.5113766423656     
 soft         electrons   0.0000000000000000     
 augmentation electrons   1134.5113766423656     
 soft         electrons   0.0000000000000000     
 augmentation electrons   1134.5113766423656     
 soft         electrons   0.0000000000000000     
 augmentation electrons   1134.5113766423656     
 soft         electrons   0.0000000000000000     
 augmentation electrons   1134.5113766423656     
 soft         electrons   0.0000000000000000     
 augmentation electrons   1134.5113766423656     
 soft         electrons   0.0000000000000000     
 augmentation electrons   1134.5113766423656     
 soft         electrons   0.0000000000000000     
 augmentation electrons   1134.5113766423656     
 soft         electrons   0.0000000000000000     
 augmentation electrons   1134.5113766423656     
 soft         electrons   0.0000000000000000     
 augmentation electrons   1134.5113766423656     
 soft         electrons   0.0000000000000000     
 augmentation electrons   1134.5113766423656     
 soft         electrons   0.0000000000000000     
 augmentation electrons   1134.5113766423656     
 soft         electrons   0.0000000000000000     
 augmentation electrons   1134.5113766423656     
 soft         electrons   0.0000000000000000     
 augmentation electrons   1134.5113766423656     
 soft         electrons   0.0000000000000000     
 augmentation electrons   1134.5113766423656     
 soft         electrons   0.0000000000000000     
 augmentation electrons   1134.5113766423656     
 soft         electrons   0.0000000000000000     
 augmentation electrons   1134.5113766423656     
 soft         electrons   0.0000000000000000     
 augmentation electrons   1134.5113766423656     
 soft         electrons   0.0000000000000000     
 augmentation electrons   1134.5113766423656     
 soft         electrons   0.0000000000000000     
 augmentation electrons   1134.5113766423656     
 soft         electrons   0.0000000000000000     
 augmentation electrons   1134.5113766423656     
 soft         electrons   0.0000000000000000     
 augmentation electrons   1134.5113766423656     
 soft         electrons   0.0000000000000000     
 augmentation electrons   1134.5113766423656     
 soft         electrons   0.0000000000000000     
 augmentation electrons   1134.5113766423656     
 soft         electrons   0.0000000000000000     
 augmentation electrons   1134.5113766423656     
 soft         electrons   0.0000000000000000     
 augmentation electrons   1134.5113766423656     
 soft         electrons   0.0000000000000000     
 augmentation electrons   1134.5113766423656     
 soft         electrons   0.0000000000000000     
 augmentation electrons   1134.5113766423656     
 soft         electrons   0.0000000000000000     
 augmentation electrons   1134.5113766423656     
 soft         electrons   0.0000000000000000     
 augmentation electrons   1134.5113766423656     
 soft         electrons   0.0000000000000000     
 augmentation electrons   1134.5113766423656     
 soft         electrons   0.0000000000000000     
 augmentation electrons   1134.5113766423656     
 soft         electrons   0.0000000000000000     
 augmentation electrons   1134.5113766423656     
 soft         electrons   0.0000000000000000     
 augmentation electrons   1134.5113766423656     
 soft         electrons   0.0000000000000000     
 augmentation electrons   1134.5113766423656     
 soft         electrons   0.0000000000000000     
 augmentation electrons   1134.5113766423656     
 soft         electrons   0.0000000000000000     
 augmentation electrons   1134.5113766423656     
 soft         electrons   0.0000000000000000     
 augmentation electrons   1134.5113766423656     
 soft         electrons   0.0000000000000000     
 augmentation electrons   1134.5113766423656     
 soft         electrons   0.0000000000000000     
 augmentation electrons   1134.5113766423656     
 soft         electrons   0.0000000000000000     
 augmentation electrons   1134.5113766423656     
 soft         electrons   0.0000000000000000     
 augmentation electrons   1134.5113766423656     
 soft         electrons   0.0000000000000000     
 augmentation electrons   1134.5113766423656     
 soft         electrons   0.0000000000000000     
 augmentation electrons   1134.5113766423656     
 soft         electrons   0.0000000000000000     
 augmentation electrons   1134.5113766423656     
 soft         electrons   0.0000000000000000     
 augmentation electrons   1134.5113766423656     
 soft         electrons   0.0000000000000000     
 augmentation electrons   1134.5113766423656     
 soft         electrons   0.0000000000000000     
 augmentation electrons   1134.5113766423656     
 soft         electrons   0.0000000000000000     
 augmentation electrons   1134.5113766423656     
 soft         electrons   0.0000000000000000     
 augmentation electrons   1134.5113766423656     
 augmentation electrons   1134.5113766423656     
 soft         electrons   0.0000000000000000     
 augmentation electrons   1134.5113766423656     
 soft         electrons   0.0000000000000000     
 augmentation electrons   1134.5113766423656     
 soft         electrons   0.0000000000000000     
 augmentation electrons   1134.5113766423656     
 soft         electrons   0.0000000000000000     
 augmentation electrons   1134.5113766423656     
 soft         electrons   0.0000000000000000     
 soft         electrons   0.0000000000000000     
 total        electrons   1134.5113766423656     
 total        electrons   1134.5113766423656     
 total        electrons   1134.5113766423656     
 total        electrons   1134.5113766423656     
 total        electrons   1134.5113766423656     
 total        electrons   1134.5113766423656     
 total        electrons   1134.5113766423656     
 total        electrons   1134.5113766423656     
 total        electrons   1134.5113766423656     
 total        electrons   1134.5113766423656     
 total        electrons   1134.5113766423656     
 total        electrons   1134.5113766423656     
 total        electrons   1134.5113766423656     
 total        electrons   1134.5113766423656     
 total        electrons   1134.5113766423656     
 total        electrons   1134.5113766423656     
 total        electrons   1134.5113766423656     
 total        electrons   1134.5113766423656     
 total        electrons   1134.5113766423656     
 total        electrons   1134.5113766423656     
 total        electrons   1134.5113766423656     
 total        electrons   1134.5113766423656     
 total        electrons   1134.5113766423656     
 total        electrons   1134.5113766423656     
 total        electrons   1134.5113766423656     
 total        electrons   1134.5113766423656     
 total        electrons   1134.5113766423656     
 total        electrons   1134.5113766423656     
 total        electrons   1134.5113766423656     
 total        electrons   1134.5113766423656     
 total        electrons   1134.5113766423656     
 total        electrons   1134.5113766423656     
 total        electrons   1134.5113766423656     
 total        electrons   1134.5113766423656     
 total        electrons   1134.5113766423656     
 total        electrons   1134.5113766423656     
 total        electrons   1134.5113766423656     
 total        electrons   1134.5113766423656     
 total        electrons   1134.5113766423656     
 total        electrons   1134.5113766423656     
 total        electrons   1134.5113766423656     
 total        electrons   1134.5113766423656     
 total        electrons   1134.5113766423656     
 total        electrons   1134.5113766423656     
 total        electrons   1134.5113766423656     
 total        electrons   1134.5113766423656     
 total        electrons   1134.5113766423656     
 total        electrons   1134.5113766423656     
 total        electrons   1134.5113766423656     
 total        electrons   1134.5113766423656     
 total        electrons   1134.5113766423656     
 total        electrons   1134.5113766423656     
 total        electrons   1134.5113766423656     
 total        electrons   1134.5113766423656     
 total        electrons   1134.5113766423656     
 total        electrons   1134.5113766423656     
 total        electrons   1134.5113766423656     
 total        electrons   1134.5113766423656     
 total        electrons   1134.5113766423656     
 total        electrons   1134.5113766423656     
 total        electrons   1134.5113766423656     
 total        electrons   1134.5113766423656     
 total        electrons   1134.5113766423656     
 total        electrons   1134.5113766423656     
 total        electrons   1134.5113766423656     
 total        electrons   1134.5113766423656     
 total        electrons   1134.5113766423656     
 total        electrons   1134.5113766423656     
 total        electrons   1134.5113766423656     
 total        electrons   1134.5113766423656     
 total        electrons   1134.5113766423656     
 total        electrons   1134.5113766423656     
 entering main loop
       N       E                     dE             d eps       ncg     rms          rms(c)
DAV:   1     0.229915249337E+04    0.22992E+04   -0.96036E+04  8096   0.124E+03
DAV:   2    -0.219635389292E+03   -0.25188E+04   -0.23401E+04  9376   0.303E+02
DAV:   3    -0.629452436633E+03   -0.40982E+03   -0.38999E+03 11408   0.142E+02
DAV:   4    -0.663321861549E+03   -0.33869E+02   -0.32397E+02 13112   0.457E+01
DAV:   5    -0.665337841465E+03   -0.20160E+01   -0.19436E+01 13736   0.107E+01    0.137E+02
RMM:   6    -0.616352512763E+03    0.48985E+02   -0.11471E+03 11392   0.896E+01    0.732E+01
RMM:   7    -0.679721932259E+03   -0.63369E+02   -0.41150E+02 10488   0.596E+01    0.504E+01
RMM:   8    -0.587159315641E+03    0.92563E+02   -0.10890E+02 10677   0.242E+01    0.351E+01
RMM:   9    -0.579242177905E+03    0.79171E+01   -0.51266E+01  9602   0.187E+01    0.287E+01
RMM:  10    -0.563967249798E+03    0.15275E+02   -0.20755E+01 10715   0.107E+01    0.219E+01
RMM:  11    -0.560633718116E+03    0.33335E+01   -0.79324E+00  8337   0.974E+00    0.174E+01
RMM:  12    -0.560682713536E+03   -0.48995E-01   -0.47276E+00 11012   0.274E+00    0.161E+01
RMM:  13    -0.560503726008E+03    0.17899E+00   -0.57327E-01  9218   0.180E+00    0.153E+01
RMM:  14    -0.560117992398E+03    0.38573E+00   -0.37452E-01  8871   0.178E+00    0.138E+01
RMM:  15    -0.559636319013E+03    0.48167E+00   -0.27870E+00  8515   0.537E+00    0.944E+00
RMM:  16    -0.558780466867E+03    0.85585E+00   -0.19376E+00  8144   0.485E+00    0.383E+00
RMM:  17    -0.558765968723E+03    0.14498E-01   -0.10637E+00 10991   0.163E+00    0.230E+00
RMM:  18    -0.558734419028E+03    0.31550E-01   -0.31507E-01 10822   0.106E+00    0.186E+00
RMM:  19    -0.558730801417E+03    0.36176E-02   -0.15475E-01  9326   0.112E+00    0.169E+00
RMM:  20    -0.558697158895E+03    0.33643E-01   -0.55861E-02  9149   0.718E-01    0.599E-01
RMM:  21    -0.558697055605E+03    0.10329E-03   -0.41596E-02 11028   0.320E-01    0.396E-01
RMM:  22    -0.558697428255E+03   -0.37265E-03   -0.13035E-02  9912   0.256E-01    0.374E-01
RMM:  23    -0.558696859657E+03    0.56860E-03   -0.47011E-03  8888   0.196E-01    0.237E-01
RMM:  24    -0.558697531998E+03   -0.67234E-03   -0.36455E-03 10720   0.111E-01    0.170E-01
RMM:  25    -0.558698626256E+03   -0.10943E-02   -0.17526E-03 10618   0.855E-02    0.880E-02
RMM:  26    -0.558699448678E+03   -0.82242E-03   -0.78108E-04 10468   0.568E-02    0.853E-02
RMM:  27    -0.558699981030E+03   -0.53235E-03   -0.35739E-04  9797   0.475E-02    0.582E-02
RMM:  28    -0.558700962644E+03   -0.98161E-03   -0.33789E-04 10001   0.295E-02    0.501E-02
RMM:  29    -0.558701710641E+03   -0.74800E-03   -0.36378E-04 10420   0.359E-02    0.414E-02
RMM:  30    -0.558702072167E+03   -0.36153E-03   -0.14760E-04  9879   0.184E-02    0.377E-02
RMM:  31    -0.558702179107E+03   -0.10694E-03   -0.44772E-05  9206   0.144E-02    0.267E-02
RMM:  32    -0.558702288642E+03   -0.10954E-03   -0.57841E-05 10280   0.142E-02    0.118E-02
RMM:  33    -0.558702343390E+03   -0.54748E-04   -0.22227E-05  7315   0.832E-03    0.732E-03
RMM:  34    -0.558702475836E+03   -0.13245E-03   -0.95682E-06  6666   0.913E-03    0.138E-02
RMM:  35    -0.558702586829E+03   -0.11099E-03   -0.95116E-06  6538   0.982E-03    0.699E-03
RMM:  36    -0.558702702437E+03   -0.11561E-03   -0.97690E-06  6486   0.685E-03    0.788E-03
RMM:  37    -0.558702761166E+03   -0.58729E-04   -0.50094E-06  6147   0.521E-03    0.444E-03
RMM:  38    -0.558702812382E+03   -0.51216E-04   -0.52103E-06  6106   0.421E-03    0.417E-03
RMM:  39    -0.558702823483E+03   -0.11101E-04   -0.14700E-06  5253   0.417E-03    0.260E-03
RMM:  40    -0.558702833547E+03   -0.10064E-04   -0.13220E-06  5221   0.304E-03    0.183E-03
RMM:  41    -0.558702838117E+03   -0.45706E-05   -0.70532E-07  4727   0.199E-03    0.750E-04
RMM:  42    -0.558702839461E+03   -0.13439E-05   -0.28758E-07  3980   0.146E-03    0.566E-04
RMM:  43    -0.558702840840E+03   -0.13793E-05   -0.20779E-07  3476   0.104E-03    0.298E-04
RMM:  44    -0.558702841714E+03   -0.87366E-06   -0.15322E-07  3159   0.933E-04
   1 F= -.55870284E+03 E0= -.55869954E+03  d E =-.558703E+03
 curvature:   0.00 expect dE= 0.000E+00 dE for cont linesearch  0.000E+00
 trial: gam= 0.00000 g(F)=  0.752E-01 g(S)=  0.000E+00 ort = 0.000E+00 (trialstep = 0.100E+01)
 search vector abs. value=  0.752E-01
 bond charge predicted
       N       E                     dE             d eps       ncg     rms          rms(c)
DAV:   1    -0.558758961695E+03   -0.56121E-01   -0.12637E+00  9136   0.237E+00    0.375E-01
RMM:   2    -0.558759109228E+03   -0.14753E-03   -0.26387E-02  9766   0.410E-01    0.234E-01
RMM:   3    -0.558766511067E+03   -0.74018E-02   -0.98493E-03  9824   0.296E-01    0.734E-01
RMM:   4    -0.558758957618E+03    0.75534E-02   -0.42249E-03  9734   0.200E-01    0.204E-01
RMM:   5    -0.558758780858E+03    0.17676E-03   -0.19688E-03  9216   0.133E-01    0.170E-01
RMM:   6    -0.558758605298E+03    0.17556E-03   -0.10649E-03  9518   0.882E-02    0.103E-01
RMM:   7    -0.558758488981E+03    0.11632E-03   -0.37718E-04  9110   0.552E-02    0.711E-02
RMM:   8    -0.558758457485E+03    0.31495E-04   -0.17235E-04  9597   0.358E-02    0.484E-02
RMM:   9    -0.558758464614E+03   -0.71287E-05   -0.93929E-05  9174   0.259E-02    0.492E-02
RMM:  10    -0.558758438880E+03    0.25734E-04   -0.34560E-05  8188   0.189E-02    0.142E-02
RMM:  11    -0.558758440686E+03   -0.18063E-05   -0.24323E-05  8041   0.892E-03    0.121E-02
RMM:  12    -0.558758438702E+03    0.19844E-05   -0.69039E-06  6293   0.723E-03    0.675E-03
RMM:  13    -0.558758439107E+03   -0.40539E-06   -0.35528E-06  5809   0.559E-03
   2 F= -.55875844E+03 E0= -.55875517E+03  d E =-.555974E-01
 trial-energy change:   -0.055597  1 .order   -0.054869   -0.075184   -0.034555
 step:   1.7179(harm=  1.8505)  dis= 0.00650  next Energy=  -558.771112 (dE=-0.683E-01)
 bond charge predicted
       N       E                     dE             d eps       ncg     rms          rms(c)
DAV:   1    -0.558771604956E+03   -0.13166E-01   -0.66594E-01  8544   0.172E+00    0.287E-01
RMM:   2    -0.558771578236E+03    0.26720E-04   -0.14433E-02  9698   0.308E-01    0.186E-01
RMM:   3    -0.558776188824E+03   -0.46106E-02   -0.56668E-03  9725   0.230E-01    0.580E-01
RMM:   4    -0.558771450189E+03    0.47386E-02   -0.25622E-03  9679   0.156E-01    0.158E-01
RMM:   5    -0.558771352863E+03    0.97326E-04   -0.11245E-03  9115   0.104E-01    0.132E-01
RMM:   6    -0.558771248811E+03    0.10405E-03   -0.61323E-04  9572   0.665E-02    0.837E-02
RMM:   7    -0.558771190350E+03    0.58461E-04   -0.23223E-04  8872   0.454E-02    0.679E-02
RMM:   8    -0.558771155513E+03    0.34837E-04   -0.10907E-04  9622   0.281E-02    0.360E-02
RMM:   9    -0.558771156724E+03   -0.12110E-05   -0.53828E-05  8698   0.207E-02    0.319E-02
RMM:  10    -0.558771145628E+03    0.11096E-04   -0.19419E-05  7700   0.138E-02    0.108E-02
RMM:  11    -0.558771146877E+03   -0.12487E-05   -0.13442E-05  7030   0.730E-03    0.929E-03
RMM:  12    -0.558771145856E+03    0.10206E-05   -0.38603E-06  5874   0.633E-03    0.503E-03
RMM:  13    -0.558771146466E+03   -0.60956E-06   -0.17885E-06  5357   0.419E-03
   3 F= -.55877115E+03 E0= -.55876789E+03  d E =-.683048E-01
 curvature:  -0.90 expect dE=-0.151E-02 dE for cont linesearch -0.285E-07
 trial: gam= 0.02288 g(F)=  0.167E-02 g(S)=  0.000E+00 ort =-0.488E-04 (trialstep = 0.114E+01)
 search vector abs. value=  0.171E-02
 bond charge predicted
       N       E                     dE             d eps       ncg     rms          rms(c)
DAV:   1    -0.558772905299E+03   -0.17594E-02   -0.35736E-02  8592   0.412E-01    0.602E-02
RMM:   2    -0.558772918571E+03   -0.13272E-04   -0.51148E-04  9684   0.684E-02    0.408E-02
RMM:   3    -0.558773113168E+03   -0.19460E-03   -0.23018E-04 10362   0.407E-02    0.114E-01
RMM:   4    -0.558772931006E+03    0.18216E-03   -0.11717E-04  9328   0.327E-02    0.413E-02
RMM:   5    -0.558772918802E+03    0.12204E-04   -0.56350E-05  9154   0.229E-02    0.264E-02
RMM:   6    -0.558772914507E+03    0.42953E-05   -0.23364E-05  8077   0.133E-02    0.176E-02
RMM:   7    -0.558772913285E+03    0.12226E-05   -0.95902E-06  6384   0.917E-03    0.143E-02
RMM:   8    -0.558772911650E+03    0.16346E-05   -0.39220E-06  5833   0.669E-03    0.632E-03
RMM:   9    -0.558772911524E+03    0.12560E-06   -0.18453E-06  5282   0.464E-03
   4 F= -.55877291E+03 E0= -.55876962E+03  d E =-.176506E-02
 ZBRENT: can't locate minimum, use default step
 trial-energy change:   -0.001765  1 .order   -0.001761   -0.001910   -0.001611
 step:   4.5743(harm=  7.3214)  dis= 0.02318  next Energy=  -558.776204 (dE=-0.506E-02)
 bond charge predicted
       N       E                     dE             d eps       ncg     rms          rms(c)
DAV:   1    -0.558776428740E+03   -0.35171E-02   -0.32189E-01  8408   0.123E+00    0.180E-01
RMM:   2    -0.558776513791E+03   -0.85051E-04   -0.46119E-03 10255   0.195E-01    0.119E-01
RMM:   3    -0.558777943663E+03   -0.14299E-02   -0.20394E-03 10771   0.112E-01    0.306E-01
RMM:   4    -0.558776646151E+03    0.12975E-02   -0.97848E-04  9419   0.933E-02    0.129E-01
RMM:   5    -0.558776498540E+03    0.14761E-03   -0.47446E-04  9760   0.595E-02    0.726E-02
RMM:   6    -0.558776448294E+03    0.50245E-04   -0.18882E-04  9523   0.376E-02    0.359E-02
RMM:   7    -0.558776441435E+03    0.68595E-05   -0.85548E-05 10044   0.211E-02    0.281E-02
RMM:   8    -0.558776434408E+03    0.70267E-05   -0.26201E-05  8066   0.146E-02    0.193E-02
RMM:   9    -0.558776433185E+03    0.12229E-05   -0.12754E-05  7240   0.905E-03    0.124E-02
RMM:  10    -0.558776432160E+03    0.10251E-05   -0.62664E-06  6281   0.681E-03    0.659E-03
RMM:  11    -0.558776432189E+03   -0.29217E-07   -0.21187E-06  5452   0.513E-03
   5 F= -.55877643E+03 E0= -.55877304E+03  d E =-.528572E-02
 curvature:  -3.00 expect dE=-0.503E-02 dE for cont linesearch -0.711E-03
 ZBRENT: increasing intervall
 opt :  11.4358  next Energy=  -558.775487 (dE=-0.434E-02)
 bond charge predicted
       N       E                     dE             d eps       ncg     rms          rms(c)
DAV:   1    -0.558775400232E+03    0.10319E-02   -0.12842E+00  8232   0.246E+00    0.363E-01
RMM:   2    -0.558775783079E+03   -0.38285E-03   -0.18681E-02 10239   0.391E-01    0.249E-01
RMM:   3    -0.558781933202E+03   -0.61501E-02   -0.83541E-03 10908   0.219E-01    0.629E-01
RMM:   4    -0.558776443346E+03    0.54899E-02   -0.46025E-03  9435   0.199E-01    0.281E-01
RMM:   5    -0.558775608416E+03    0.83493E-03   -0.19636E-03  9795   0.118E-01    0.130E-01
RMM:   6    -0.558775471584E+03    0.13683E-03   -0.85028E-04  9751   0.740E-02    0.897E-02
RMM:   7    -0.558775440397E+03    0.31187E-04   -0.34285E-04  9680   0.485E-02    0.774E-02
RMM:   8    -0.558775390503E+03    0.49894E-04   -0.14039E-04  9630   0.318E-02    0.430E-02
RMM:   9    -0.558775378937E+03    0.11567E-04   -0.59738E-05  9327   0.204E-02    0.202E-02
RMM:  10    -0.558775378110E+03    0.82655E-06   -0.32648E-05  8917   0.108E-02    0.108E-02
RMM:  11    -0.558775379538E+03   -0.14276E-05   -0.82420E-06  6810   0.619E-03    0.801E-03
RMM:  12    -0.558775382248E+03   -0.27099E-05   -0.42482E-06  6056   0.712E-03    0.948E-03
RMM:  13    -0.558775385124E+03   -0.28767E-05   -0.20953E-06  5345   0.555E-03    0.388E-03
RMM:  14    -0.558775386748E+03   -0.16241E-05   -0.10054E-06  5049   0.344E-03    0.268E-03
RMM:  15    -0.558775388340E+03   -0.15913E-05   -0.58804E-07  4890   0.281E-03    0.150E-03
RMM:  16    -0.558775390758E+03   -0.24182E-05   -0.43783E-07  4846   0.193E-03    0.129E-03
RMM:  17    -0.558775393307E+03   -0.25497E-05   -0.41562E-07  4738   0.168E-03    0.896E-04
RMM:  18    -0.558775395391E+03   -0.20835E-05   -0.38227E-07  4668   0.164E-03    0.120E-03
RMM:  19    -0.558775397170E+03   -0.17789E-05   -0.32340E-07  4343   0.149E-03    0.583E-04
RMM:  20    -0.558775399625E+03   -0.24549E-05   -0.40890E-07  3992   0.123E-03    0.626E-04
RMM:  21    -0.558775401897E+03   -0.22721E-05   -0.47061E-07  4324   0.135E-03    0.409E-04
RMM:  22    -0.558775403087E+03   -0.11899E-05   -0.32624E-07  3921   0.118E-03    0.318E-04
RMM:  23    -0.558775403711E+03   -0.62404E-06   -0.21049E-07  3235   0.107E-03
   6 F= -.55877540E+03 E0= -.55877179E+03  d E =-.425725E-02
 curvature:   4.00 expect dE= 0.353E-01 dE for cont linesearch  0.210E-02
 ZBRENT: bracketing found
 ZBRENT: interpolating
 opt :   7.3310  next Energy=  -558.777308 (dE=-0.616E-02)
 bond charge predicted
       N       E                     dE             d eps       ncg     rms          rms(c)
DAV:   1    -0.558777340297E+03   -0.19372E-02   -0.45996E-01  8256   0.147E+00    0.218E-01
RMM:   2    -0.558777480646E+03   -0.14035E-03   -0.66678E-03 10234   0.233E-01    0.152E-01
RMM:   3    -0.558779810893E+03   -0.23302E-02   -0.29714E-03 10839   0.132E-01    0.391E-01
RMM:   4    -0.558777730016E+03    0.20809E-02   -0.17375E-03  9446   0.122E-01    0.174E-01
RMM:   5    -0.558777428026E+03    0.30199E-03   -0.74165E-04  9727   0.752E-02    0.867E-02
RMM:   6    -0.558777363102E+03    0.64924E-04   -0.30621E-04  9670   0.458E-02    0.578E-02
RMM:   7    -0.558777356527E+03    0.65743E-05   -0.13977E-04  9735   0.303E-02    0.529E-02
RMM:   8    -0.558777330549E+03    0.25978E-04   -0.53390E-05  9013   0.209E-02    0.244E-02
RMM:   9    -0.558777325728E+03    0.48211E-05   -0.24729E-05  8364   0.127E-02    0.110E-02
RMM:  10    -0.558777325151E+03    0.57697E-06   -0.11354E-05  7326   0.663E-03    0.633E-03
RMM:  11    -0.558777324984E+03    0.16704E-06   -0.26790E-06  5623   0.521E-03
   7 F= -.55877732E+03 E0= -.55877384E+03  d E =-.617852E-02
 curvature:  -1.67 expect dE=-0.599E-02 dE for cont linesearch -0.844E-07
 trial: gam= 2.15029 g(F)=  0.359E-02 g(S)=  0.000E+00 ort = 0.929E-05 (trialstep = 0.353E+00)
 search vector abs. value=  0.115E-01
 bond charge predicted
       N       E                     dE             d eps       ncg     rms          rms(c)
DAV:   1    -0.558778506243E+03   -0.11811E-02   -0.22629E-02  8424   0.329E-01    0.474E-02
RMM:   2    -0.558778526157E+03   -0.19914E-04   -0.31775E-04 10039   0.522E-02    0.320E-02
RMM:   3    -0.558778646374E+03   -0.12022E-03   -0.13786E-04 10141   0.319E-02    0.866E-02
RMM:   4    -0.558778545810E+03    0.10056E-03   -0.76455E-05  9178   0.265E-02    0.444E-02
RMM:   5    -0.558778524942E+03    0.20868E-04   -0.32707E-05  8389   0.192E-02    0.140E-02
RMM:   6    -0.558778525365E+03   -0.42301E-06   -0.14498E-05  7563   0.910E-03    0.121E-02
RMM:   7    -0.558778524496E+03    0.86949E-06   -0.43810E-06  5860   0.726E-03
   8 F= -.55877852E+03 E0= -.55877502E+03  d E =-.119951E-02
 ZBRENT: can't locate minimum, use default step
 trial-energy change:   -0.001200  1 .order   -0.001196   -0.001273   -0.001119
 step:   1.4114(harm=  2.9146)  dis= 0.01563  next Energy=  -558.782584 (dE=-0.526E-02)
 bond charge predicted
       N       E                     dE             d eps       ncg     rms          rms(c)
DAV:   1    -0.558781081278E+03   -0.25559E-02   -0.20421E-01  8200   0.986E-01    0.142E-01
RMM:   2    -0.558781260567E+03   -0.17929E-03   -0.28565E-03 10286   0.153E-01    0.986E-02
RMM:   3    -0.558782337745E+03   -0.10772E-02   -0.12326E-03 10287   0.930E-02    0.268E-01
RMM:   4    -0.558781391799E+03    0.94595E-03   -0.72598E-04  9303   0.824E-02    0.113E-01
RMM:   5    -0.558781254185E+03    0.13761E-03   -0.29123E-04  9088   0.540E-02    0.593E-02
RMM:   6    -0.558781239523E+03    0.14662E-04   -0.12667E-04  9863   0.277E-02    0.413E-02
RMM:   7    -0.558781232548E+03    0.69744E-05   -0.56619E-05  8873   0.194E-02    0.265E-02
RMM:   8    -0.558781224505E+03    0.80430E-05   -0.18799E-05  7851   0.117E-02    0.109E-02
RMM:   9    -0.558781223897E+03    0.60805E-06   -0.94335E-06  6699   0.725E-03
   9 F= -.55878122E+03 E0= -.55877760E+03  d E =-.389891E-02
 curvature:  -3.05 expect dE=-0.382E-02 dE for cont linesearch -0.945E-03
 ZBRENT: increasing intervall
 opt :   3.5285  next Energy=  -558.782510 (dE=-0.518E-02)
 bond charge predicted
       N       E                     dE             d eps       ncg     rms          rms(c)
DAV:   1    -0.558781974989E+03   -0.75048E-03   -0.81784E-01  8152   0.197E+00    0.289E-01
RMM:   2    -0.558782650999E+03   -0.67601E-03   -0.11554E-02 10330   0.305E-01    0.204E-01
RMM:   3    -0.558786826902E+03   -0.41759E-02   -0.48942E-03 10114   0.191E-01    0.533E-01
RMM:   4    -0.558783254413E+03    0.35725E-02   -0.29194E-03  9395   0.163E-01    0.237E-01
RMM:   5    -0.558782609947E+03    0.64447E-03   -0.11899E-03  9198   0.110E-01    0.111E-01
RMM:   6    -0.558782496049E+03    0.11390E-03   -0.50747E-04  9886   0.553E-02    0.465E-02
RMM:   7    -0.558782511310E+03   -0.15261E-04   -0.19633E-04  9595   0.353E-02    0.578E-02
RMM:   8    -0.558782480912E+03    0.30399E-04   -0.66967E-05  8735   0.238E-02    0.289E-02
RMM:   9    -0.558782476957E+03    0.39544E-05   -0.37325E-05  8531   0.137E-02    0.163E-02
RMM:  10    -0.558782476073E+03    0.88437E-06   -0.15650E-05  7471   0.851E-03    0.881E-03
RMM:  11    -0.558782476326E+03   -0.25283E-06   -0.50342E-06  6096   0.620E-03
  10 F= -.55878248E+03 E0= -.55877864E+03  d E =-.515134E-02
 curvature:  -4.15 expect dE=-0.371E-02 dE for cont linesearch -0.208E-03
 ZBRENT: bracketing found
 ZBRENT: interpolating
 opt :   2.9210  next Energy=  -558.782707 (dE=-0.538E-02)
 bond charge predicted
       N       E                     dE             d eps       ncg     rms          rms(c)
DAV:   1    -0.558782652343E+03   -0.17627E-03   -0.67250E-02  8288   0.566E-01    0.845E-02
RMM:   2    -0.558782711801E+03   -0.59458E-04   -0.95462E-04  9843   0.908E-02    0.611E-02
RMM:   3    -0.558783081718E+03   -0.36992E-03   -0.40397E-04 10279   0.534E-02    0.159E-01
RMM:   4    -0.558782757130E+03    0.32459E-03   -0.26262E-04  9298   0.488E-02    0.674E-02
RMM:   5    -0.558782708413E+03    0.48717E-04   -0.10211E-04  9208   0.322E-02    0.322E-02
RMM:   6    -0.558782701868E+03    0.65452E-05   -0.43620E-05  9159   0.168E-02    0.210E-02
RMM:   7    -0.558782702116E+03   -0.24818E-06   -0.18319E-05  6919   0.120E-02    0.203E-02
RMM:   8    -0.558782699002E+03    0.31141E-05   -0.70919E-06  6235   0.865E-03    0.891E-03
RMM:   9    -0.558782698352E+03    0.64966E-06   -0.28495E-06  5579   0.541E-03
  11 F= -.55878270E+03 E0= -.55877892E+03  d E =-.537337E-02
 curvature:  -4.60 expect dE=-0.284E-02 dE for cont linesearch -0.721E-06
 trial: gam= 0.07978 g(F)=  0.618E-03 g(S)=  0.000E+00 ort = 0.425E-04 (trialstep = 0.866E+00)
 search vector abs. value=  0.698E-03
 bond charge predicted
       N       E                     dE             d eps       ncg     rms          rms(c)
DAV:   1    -0.558783204595E+03   -0.50559E-03   -0.84006E-03  8456   0.199E-01    0.302E-02
RMM:   2    -0.558783211881E+03   -0.72858E-05   -0.14718E-04  9960   0.359E-02    0.224E-02
RMM:   3    -0.558783224026E+03   -0.12145E-04   -0.55501E-05 10648   0.168E-02    0.306E-02
RMM:   4    -0.558783234024E+03   -0.99978E-05   -0.30741E-05  8626   0.163E-02    0.422E-02
RMM:   5    -0.558783210380E+03    0.23643E-04   -0.14814E-05  7723   0.117E-02    0.105E-02
RMM:   6    -0.558783210184E+03    0.19654E-06   -0.59373E-06  6189   0.757E-03
  12 F= -.55878321E+03 E0= -.55877943E+03  d E =-.511831E-03
 ZBRENT: can't locate minimum, use default step
 trial-energy change:   -0.000512  1 .order   -0.000509   -0.000538   -0.000480
 step:   3.4659(harm=  8.0049)  dis= 0.01256  next Energy=  -558.785184 (dE=-0.249E-02)
 bond charge predicted
       N       E                     dE             d eps       ncg     rms          rms(c)
DAV:   1    -0.558784360968E+03   -0.11506E-02   -0.75661E-02  8144   0.597E-01    0.908E-02
RMM:   2    -0.558784429293E+03   -0.68325E-04   -0.12965E-03  9885   0.107E-01    0.719E-02
RMM:   3    -0.558784575815E+03   -0.14652E-03   -0.53042E-04  9569   0.704E-02    0.122E-01
RMM:   4    -0.558784555226E+03    0.20589E-04   -0.34035E-04  9458   0.547E-02    0.102E-01
RMM:   5    -0.558784435761E+03    0.11946E-03   -0.14076E-04  9159   0.381E-02    0.551E-02
RMM:   6    -0.558784404667E+03    0.31094E-04   -0.55600E-05  9235   0.197E-02    0.298E-02
RMM:   7    -0.558784400357E+03    0.43104E-05   -0.27534E-05  8049   0.142E-02    0.179E-02
RMM:   8    -0.558784397443E+03    0.29139E-05   -0.10700E-05  7037   0.805E-03    0.786E-03
RMM:   9    -0.558784397120E+03    0.32259E-06   -0.40696E-06  5908   0.685E-03
  13 F= -.55878440E+03 E0= -.55878056E+03  d E =-.169877E-02
 curvature:  -2.68 expect dE=-0.164E-02 dE for cont linesearch -0.481E-03
 ZBRENT: increasing intervall
 opt :   8.6648  next Energy=  -558.785198 (dE=-0.250E-02)
 bond charge predicted
       N       E                     dE             d eps       ncg     rms          rms(c)
DAV:   1    -0.558785130862E+03   -0.73342E-03   -0.30355E-01  8128   0.119E+00    0.179E-01
RMM:   2    -0.558785356538E+03   -0.22568E-03   -0.50976E-03 10122   0.205E-01    0.133E-01
RMM:   3    -0.558785713564E+03   -0.35703E-03   -0.20788E-03 10335   0.120E-01    0.182E-01
RMM:   4    -0.558785809092E+03   -0.95528E-04   -0.11519E-03  8554   0.114E-01    0.216E-01
RMM:   5    -0.558785366706E+03    0.44239E-03   -0.45073E-04  9456   0.619E-02    0.961E-02
RMM:   6    -0.558785258895E+03    0.10781E-03   -0.17478E-04  9127   0.377E-02    0.336E-02
RMM:   7    -0.558785289948E+03   -0.31053E-04   -0.11827E-04  9653   0.264E-02    0.610E-02
RMM:   8    -0.558785249198E+03    0.40750E-04   -0.38251E-05  8417   0.190E-02    0.106E-02
RMM:   9    -0.558785251674E+03   -0.24768E-05   -0.26875E-05  8193   0.982E-03    0.133E-02
RMM:  10    -0.558785249797E+03    0.18776E-05   -0.59822E-06  6146   0.725E-03    0.600E-03
RMM:  11    -0.558785249678E+03    0.11829E-06   -0.24077E-06  5547   0.487E-03
  14 F= -.55878525E+03 E0= -.55878133E+03  d E =-.255133E-02
 curvature:  -4.46 expect dE=-0.119E-01 dE for cont linesearch -0.621E-05
 trial: gam= 4.36905 g(F)=  0.266E-02 g(S)=  0.000E+00 ort =-0.312E-04 (trialstep = 0.108E+00)
 search vector abs. value=  0.157E-01
 bond charge predicted
       N       E                     dE             d eps       ncg     rms          rms(c)
DAV:   1    -0.558785518468E+03   -0.26867E-03   -0.28967E-03  9280   0.118E-01    0.166E-02
RMM:   2    -0.558785523112E+03   -0.46444E-05   -0.55662E-05 10093   0.203E-02    0.145E-02
RMM:   3    -0.558785524152E+03   -0.10402E-05   -0.14010E-05  8357   0.105E-02    0.158E-02
RMM:   4    -0.558785527287E+03   -0.31346E-05   -0.11093E-05  6962   0.104E-02    0.206E-02
RMM:   5    -0.558785523350E+03    0.39375E-05   -0.50803E-06  5906   0.815E-03    0.129E-02
RMM:   6    -0.558785521721E+03    0.16288E-05   -0.18463E-06  5359   0.577E-03    0.514E-03
RMM:   7    -0.558785521746E+03   -0.25666E-07   -0.77864E-07  4843   0.288E-03
  15 F= -.55878552E+03 E0= -.55878159E+03  d E =-.272068E-03
 ZBRENT: can't locate minimum, use default step
 trial-energy change:   -0.000272  1 .order   -0.000271   -0.000272   -0.000270
 step:   0.4310(harm= 11.5149)  dis= 0.00785  next Energy=  -558.799806 (dE=-0.146E-01)
 bond charge predicted
       N       E                     dE             d eps       ncg     rms          rms(c)
DAV:   1    -0.558786294673E+03   -0.77295E-03   -0.25981E-02  8176   0.352E-01    0.503E-02
RMM:   2    -0.558786323800E+03   -0.29126E-04   -0.41232E-04 10191   0.595E-02    0.388E-02
RMM:   3    -0.558786354160E+03   -0.30360E-04   -0.14922E-04  9624   0.364E-02    0.519E-02
RMM:   4    -0.558786354361E+03   -0.20081E-06   -0.85472E-05  8602   0.308E-02    0.501E-02
RMM:   5    -0.558786328523E+03    0.25838E-04   -0.30956E-05  8488   0.177E-02    0.299E-02
RMM:   6    -0.558786317285E+03    0.11238E-04   -0.12229E-05  7155   0.101E-02    0.894E-03
RMM:   7    -0.558786319158E+03   -0.18724E-05   -0.83380E-06  6341   0.692E-03    0.154E-02
RMM:   8    -0.558786317177E+03    0.19805E-05   -0.24809E-06  5527   0.600E-03    0.286E-03
RMM:   9    -0.558786317338E+03   -0.16102E-06   -0.11771E-06  5280   0.291E-03
  16 F= -.55878632E+03 E0= -.55878236E+03  d E =-.106766E-02
 curvature:  -2.00 expect dE=-0.484E-02 dE for cont linesearch -0.738E-03
 ZBRENT: increasing intervall
 opt :   1.0775  next Energy=  -558.787811 (dE=-0.256E-02)
 bond charge predicted
       N       E                     dE             d eps       ncg     rms          rms(c)
DAV:   1    -0.558787736896E+03   -0.14197E-02   -0.10395E-01  8128   0.703E-01    0.993E-02
RMM:   2    -0.558787844542E+03   -0.10765E-03   -0.16038E-03 10257   0.115E-01    0.741E-02
RMM:   3    -0.558787966237E+03   -0.12169E-03   -0.63587E-04 10357   0.657E-02    0.975E-02
RMM:   4    -0.558787985950E+03   -0.19713E-04   -0.33938E-04  8551   0.611E-02    0.107E-01
RMM:   5    -0.558787853047E+03    0.13290E-03   -0.12339E-04  9283   0.338E-02    0.510E-02
RMM:   6    -0.558787823131E+03    0.29916E-04   -0.50867E-05  8820   0.196E-02    0.174E-02
RMM:   7    -0.558787830980E+03   -0.78488E-05   -0.33370E-05  8002   0.127E-02    0.306E-02
RMM:   8    -0.558787822300E+03    0.86798E-05   -0.90466E-06  6207   0.967E-03    0.540E-03
RMM:   9    -0.558787822713E+03   -0.41272E-06   -0.60249E-06  6182   0.504E-03
  17 F= -.55878782E+03 E0= -.55878381E+03  d E =-.257303E-02
 curvature:  -4.05 expect dE=-0.835E-02 dE for cont linesearch -0.128E-02
 ZBRENT: increasing intervall
 opt :   2.3705  next Energy=  -558.790471 (dE=-0.522E-02)
 bond charge predicted
       N       E                     dE             d eps       ncg     rms          rms(c)
DAV:   1    -0.558790146057E+03   -0.23238E-02   -0.41526E-01  8096   0.141E+00    0.196E-01
RMM:   2    -0.558790570103E+03   -0.42405E-03   -0.63088E-03 10276   0.226E-01    0.146E-01
RMM:   3    -0.558791029752E+03   -0.45965E-03   -0.24964E-03 10303   0.131E-01    0.194E-01
RMM:   4    -0.558790938534E+03    0.91218E-04   -0.13149E-03  8270   0.124E-01    0.193E-01
RMM:   5    -0.558790543355E+03    0.39518E-03   -0.45221E-04  9039   0.678E-02    0.823E-02
RMM:   6    -0.558790483945E+03    0.59410E-04   -0.18294E-04  9151   0.363E-02    0.256E-02
RMM:   7    -0.558790493664E+03   -0.97193E-05   -0.94230E-05  9810   0.156E-02    0.259E-02
RMM:   8    -0.558790488354E+03    0.53098E-05   -0.21023E-05  7024   0.107E-02    0.164E-02
RMM:   9    -0.558790486658E+03    0.16962E-05   -0.10372E-05  6878   0.755E-03    0.113E-02
RMM:  10    -0.558790485476E+03    0.11824E-05   -0.28538E-06  5636   0.559E-03    0.434E-03
RMM:  11    -0.558790485630E+03   -0.15429E-06   -0.17136E-06  5318   0.394E-03
  18 F= -.55879049E+03 E0= -.55878634E+03  d E =-.523595E-02
 curvature:  -8.38 expect dE=-0.118E-01 dE for cont linesearch -0.187E-02
 ZBRENT: increasing intervall
 opt :   4.9564  next Energy=  -558.794394 (dE=-0.914E-02)
 bond charge predicted
       N       E                     dE             d eps       ncg     rms          rms(c)
DAV:   1    -0.558793043817E+03   -0.25583E-02   -0.16550E+00  8096   0.281E+00    0.382E-01
RMM:   2    -0.558794739951E+03   -0.16961E-02   -0.24992E-02 10296   0.447E-01    0.287E-01
RMM:   3    -0.558796541129E+03   -0.18012E-02   -0.94892E-03 10190   0.261E-01    0.394E-01
RMM:   4    -0.558797425055E+03   -0.88393E-03   -0.51992E-03  8522   0.240E-01    0.490E-01
RMM:   5    -0.558794881899E+03    0.25432E-02   -0.19371E-03  9354   0.131E-01    0.198E-01
RMM:   6    -0.558794387474E+03    0.49443E-03   -0.75691E-04  9041   0.789E-02    0.572E-02
RMM:   7    -0.558794516357E+03   -0.12888E-03   -0.54201E-04 10212   0.488E-02    0.114E-01
RMM:   8    -0.558794391344E+03    0.12501E-03   -0.15596E-04  8648   0.361E-02    0.258E-02
RMM:   9    -0.558794394153E+03   -0.28087E-05   -0.10899E-04  9574   0.172E-02    0.191E-02
RMM:  10    -0.558794390763E+03    0.33903E-05   -0.19941E-05  8138   0.917E-03    0.102E-02
RMM:  11    -0.558794390701E+03    0.61518E-07   -0.75353E-06  6516   0.691E-03
  19 F= -.55879439E+03 E0= -.55879000E+03  d E =-.914102E-02
 curvature: -17.57 expect dE=-0.855E-02 dE for cont linesearch -0.137E-02
 ZBRENT: increasing intervall
 opt :  10.1284  next Energy=  -558.796170 (dE=-0.109E-01)
 bond charge predicted
       N       E                     dE             d eps       ncg     rms          rms(c)
DAV:   1    -0.558789983219E+03    0.44075E-02   -0.65470E+00  8096   0.558E+00    0.736E-01
RMM:   2    -0.558796742631E+03   -0.67594E-02   -0.98096E-02 10343   0.882E-01    0.557E-01
RMM:   3    -0.558807657111E+03   -0.10914E-01   -0.34311E-02 10042   0.511E-01    0.943E-01
RMM:   4    -0.558808917162E+03   -0.12601E-02   -0.20570E-02  9352   0.428E-01    0.987E-01
RMM:   5    -0.558796822048E+03    0.12095E-01   -0.90796E-03  9142   0.300E-01    0.351E-01
RMM:   6    -0.558795356874E+03    0.14652E-02   -0.33460E-03  9217   0.163E-01    0.102E-01
RMM:   7    -0.558795811703E+03   -0.45483E-03   -0.21496E-03 10290   0.939E-02    0.206E-01
RMM:   8    -0.558795412399E+03    0.39930E-03   -0.59843E-04  8466   0.714E-02    0.618E-02
RMM:   9    -0.558795419449E+03   -0.70491E-05   -0.42993E-04 10529   0.350E-02    0.464E-02
RMM:  10    -0.558795398586E+03    0.20863E-04   -0.91870E-05 10158   0.201E-02    0.219E-02
RMM:  11    -0.558795399195E+03   -0.60992E-06   -0.39072E-05  8996   0.139E-02    0.186E-02
RMM:  12    -0.558795398574E+03    0.62161E-06   -0.13931E-05  7225   0.111E-02    0.138E-02
RMM:  13    -0.558795399084E+03   -0.51014E-06   -0.86609E-06  6710   0.717E-03
  20 F= -.55879540E+03 E0= -.55879051E+03  d E =-.101494E-01
 curvature: -22.82 expect dE=-0.518E-01 dE for cont linesearch -0.116E-02
 ZBRENT: bracketing found
 ZBRENT: interpolating
 opt :   7.8168  next Energy=  -558.796433 (dE=-0.112E-01)
 bond charge predicted
       N       E                     dE             d eps       ncg     rms          rms(c)
DAV:   1    -0.558795184791E+03    0.21378E-03   -0.13198E+00  8096   0.251E+00    0.327E-01
RMM:   2    -0.558796523178E+03   -0.13384E-02   -0.19036E-02 10297   0.393E-01    0.249E-01
RMM:   3    -0.558799679866E+03   -0.31567E-02   -0.65562E-03 10050   0.226E-01    0.505E-01
RMM:   4    -0.558798299403E+03    0.13805E-02   -0.43346E-03  9683   0.182E-01    0.378E-01
RMM:   5    -0.558796468786E+03    0.18306E-02   -0.19410E-03  8973   0.142E-01    0.148E-01
RMM:   6    -0.558796235479E+03    0.23331E-03   -0.75620E-04  9563   0.706E-02    0.509E-02
RMM:   7    -0.558796330324E+03   -0.94845E-04   -0.41924E-04 10135   0.442E-02    0.976E-02
RMM:   8    -0.558796239469E+03    0.90854E-04   -0.12284E-04  8454   0.328E-02    0.290E-02
RMM:   9    -0.558796238935E+03    0.53455E-06   -0.86256E-05  9542   0.163E-02    0.197E-02
RMM:  10    -0.558796235037E+03    0.38984E-05   -0.16719E-05  7907   0.875E-03    0.846E-03
RMM:  11    -0.558796235184E+03   -0.14764E-06   -0.68712E-06  6545   0.625E-03
  21 F= -.55879624E+03 E0= -.55879156E+03  d E =-.109855E-01
 curvature: -20.30 expect dE=-0.134E-01 dE for cont linesearch -0.283E-04
 ZBRENT: interpolating
 opt :   8.1447  next Energy=  -558.796259 (dE=-0.110E-01)
 bond charge predicted
       N       E                     dE             d eps       ncg     rms          rms(c)
DAV:   1    -0.558796232370E+03    0.26670E-05   -0.26537E-02  8464   0.356E-01    0.480E-02
RMM:   2    -0.558796258819E+03   -0.26450E-04   -0.38757E-04 10289   0.572E-02    0.343E-02
RMM:   3    -0.558796350752E+03   -0.91933E-04   -0.14485E-04  9555   0.361E-02    0.824E-02
RMM:   4    -0.558796289016E+03    0.61736E-04   -0.80683E-05  9415   0.263E-02    0.504E-02
RMM:   5    -0.558796256867E+03    0.32149E-04   -0.36276E-05  8320   0.211E-02    0.163E-02
RMM:   6    -0.558796255335E+03    0.15322E-05   -0.17264E-05  7816   0.902E-03    0.835E-03
RMM:   7    -0.558796255709E+03   -0.37452E-06   -0.51924E-06  6072   0.676E-03
  22 F= -.55879626E+03 E0= -.55879156E+03  d E =-.110060E-01
 curvature: -17.42 expect dE=-0.138E-01 dE for cont linesearch -0.266E-06
 trial: gam= 0.60149 g(F)=  0.792E-03 g(S)=  0.000E+00 ort =-0.155E-04 (trialstep = 0.172E+01)
 search vector abs. value=  0.646E-02
 bond charge predicted
       N       E                     dE             d eps       ncg     rms          rms(c)
DAV:   1    -0.558797182001E+03   -0.92667E-03   -0.29947E-01  8096   0.120E+00    0.163E-01
RMM:   2    -0.558797538276E+03   -0.35627E-03   -0.44319E-03 10258   0.195E-01    0.132E-01
RMM:   3    -0.558798420378E+03   -0.88210E-03   -0.14625E-03 10182   0.105E-01    0.266E-01
RMM:   4    -0.558797799172E+03    0.62121E-03   -0.11846E-03  9690   0.929E-02    0.157E-01
RMM:   5    -0.558797490622E+03    0.30855E-03   -0.46894E-04  8942   0.698E-02    0.745E-02
RMM:   6    -0.558797434953E+03    0.55669E-04   -0.17834E-04  9668   0.338E-02    0.295E-02
RMM:   7    -0.558797453469E+03   -0.18516E-04   -0.91888E-05  9302   0.221E-02    0.464E-02
RMM:   8    -0.558797434435E+03    0.19034E-04   -0.27903E-05  7394   0.159E-02    0.159E-02
RMM:   9    -0.558797432782E+03    0.16527E-05   -0.18288E-05  6985   0.853E-03    0.657E-03
RMM:  10    -0.558797432900E+03   -0.11794E-06   -0.40116E-06  5899   0.518E-03
  23 F= -.55879743E+03 E0= -.55879263E+03  d E =-.117719E-02
 trial-energy change:   -0.001177  1 .order   -0.001159   -0.001342   -0.000976
 step:   4.3112(harm=  6.2821)  dis= 0.04583  next Energy=  -558.798235 (dE=-0.198E-02)
 bond charge predicted
       N       E                     dE             d eps       ncg     rms          rms(c)
DAV:   1    -0.558797998428E+03   -0.56565E-03   -0.68682E-01  8096   0.182E+00    0.247E-01
RMM:   2    -0.558798850136E+03   -0.85171E-03   -0.10157E-02 10310   0.291E-01    0.208E-01
RMM:   3    -0.558800610622E+03   -0.17605E-02   -0.31190E-03 10086   0.157E-01    0.387E-01
RMM:   4    -0.558799433156E+03    0.11775E-02   -0.28449E-03  9761   0.140E-01    0.244E-01
RMM:   5    -0.558798722979E+03    0.71018E-03   -0.11515E-03  8887   0.111E-01    0.123E-01
RMM:   6    -0.558798547746E+03    0.17523E-03   -0.41255E-04  9608   0.526E-02    0.352E-02
RMM:   7    -0.558798593403E+03   -0.45657E-04   -0.21431E-04  9918   0.329E-02    0.672E-02
RMM:   8    -0.558798556823E+03    0.36581E-04   -0.68876E-05  8289   0.238E-02    0.284E-02
RMM:   9    -0.558798550526E+03    0.62965E-05   -0.42202E-05  8082   0.131E-02    0.107E-02
RMM:  10    -0.558798550366E+03    0.16004E-06   -0.11137E-05  7080   0.674E-03    0.760E-03
RMM:  11    -0.558798549949E+03    0.41717E-06   -0.31548E-06  5711   0.538E-03
  24 F= -.55879855E+03 E0= -.55879361E+03  d E =-.229424E-02
 curvature: -21.10 expect dE=-0.141E-01 dE for cont linesearch -0.231E-03
 ZBRENT: increasing intervall
 opt :   9.5034  next Energy=  -558.798355 (dE=-0.210E-02)
 bond charge predicted
       N       E                     dE             d eps       ncg     rms          rms(c)
DAV:   1    -0.558796197268E+03    0.23531E-02   -0.27455E+00  8096   0.364E+00    0.496E-01
RMM:   2    -0.558799808794E+03   -0.36115E-02   -0.40757E-02 10361   0.571E-01    0.429E-01
RMM:   3    -0.558806124927E+03   -0.63161E-02   -0.11995E-02 10231   0.299E-01    0.749E-01
RMM:   4    -0.558801912578E+03    0.42123E-02   -0.11955E-02  9764   0.285E-01    0.486E-01
RMM:   5    -0.558799198931E+03    0.27136E-02   -0.46819E-03  8976   0.219E-01    0.263E-01
RMM:   6    -0.558798341382E+03    0.85755E-03   -0.16018E-03  9497   0.109E-01    0.641E-02
RMM:   7    -0.558798492895E+03   -0.15151E-03   -0.87026E-04 10164   0.626E-02    0.114E-01
RMM:   8    -0.558798392435E+03    0.10046E-03   -0.26676E-04  8689   0.462E-02    0.630E-02
RMM:   9    -0.558798358611E+03    0.33824E-04   -0.15090E-04 10008   0.251E-02    0.208E-02
RMM:  10    -0.558798357639E+03    0.97211E-06   -0.46201E-05  9280   0.122E-02    0.153E-02
RMM:  11    -0.558798355937E+03    0.17014E-05   -0.12936E-05  7074   0.880E-03    0.949E-03
RMM:  12    -0.558798355893E+03    0.44451E-07   -0.50871E-06  6198   0.564E-03
  25 F= -.55879836E+03 E0= -.55879312E+03  d E =-.210018E-02
 curvature:  17.82 expect dE= 0.425E-01 dE for cont linesearch  0.390E-03
 ZBRENT: bracketing found
 ZBRENT: interpolating
 opt :   6.4610  next Energy=  -558.798835 (dE=-0.258E-02)
 bond charge predicted
       N       E                     dE             d eps       ncg     rms          rms(c)
DAV:   1    -0.558798138859E+03    0.21708E-03   -0.94350E-01  8096   0.214E+00    0.292E-01
RMM:   2    -0.558799467591E+03   -0.13287E-02   -0.14091E-02 10377   0.338E-01    0.261E-01
RMM:   3    -0.558801401276E+03   -0.19337E-02   -0.39912E-03 10180   0.175E-01    0.438E-01
RMM:   4    -0.558800120266E+03    0.12810E-02   -0.41014E-03  9766   0.167E-01    0.288E-01
RMM:   5    -0.558799219530E+03    0.90074E-03   -0.16824E-03  8928   0.132E-01    0.168E-01
RMM:   6    -0.558798880017E+03    0.33951E-03   -0.59682E-04  9471   0.685E-02    0.538E-02
RMM:   7    -0.558798927809E+03   -0.47791E-04   -0.29512E-04  9905   0.396E-02    0.775E-02
RMM:   8    -0.558798883730E+03    0.44079E-04   -0.10459E-04  8838   0.291E-02    0.336E-02
RMM:   9    -0.558798871579E+03    0.12151E-04   -0.56134E-05  8544   0.160E-02    0.113E-02
RMM:  10    -0.558798871461E+03    0.11781E-06   -0.16198E-05  7716   0.714E-03    0.866E-03
RMM:  11    -0.558798871027E+03    0.43405E-06   -0.45869E-06  5981   0.609E-03
  26 F= -.55879887E+03 E0= -.55879380E+03  d E =-.261532E-02
 curvature: -13.04 expect dE=-0.152E-01 dE for cont linesearch -0.171E-05
 trial: gam= 1.30237 g(F)=  0.117E-02 g(S)=  0.000E+00 ort = 0.291E-04 (trialstep = 0.141E+01)
 search vector abs. value=  0.122E-01
 bond charge predicted
       N       E                     dE             d eps       ncg     rms          rms(c)
DAV:   1    -0.558800036297E+03   -0.11648E-02   -0.38460E-01  8096   0.136E+00    0.186E-01
RMM:   2    -0.558800591397E+03   -0.55510E-03   -0.57414E-03 10341   0.217E-01    0.171E-01
RMM:   3    -0.558801297932E+03   -0.70653E-03   -0.16069E-03 10211   0.111E-01    0.271E-01
RMM:   4    -0.558800809362E+03    0.48857E-03   -0.16380E-03  9712   0.107E-01    0.181E-01
RMM:   5    -0.558800441870E+03    0.36749E-03   -0.68081E-04  8979   0.839E-02    0.102E-01
RMM:   6    -0.558800316350E+03    0.12552E-03   -0.23382E-04  9494   0.428E-02    0.333E-02
RMM:   7    -0.558800332764E+03   -0.16414E-04   -0.11434E-04  9669   0.248E-02    0.466E-02
RMM:   8    -0.558800318279E+03    0.14485E-04   -0.40234E-05  8068   0.181E-02    0.234E-02
RMM:   9    -0.558800312205E+03    0.60743E-05   -0.20866E-05  7209   0.106E-02    0.717E-03
RMM:  10    -0.558800312610E+03   -0.40539E-06   -0.73138E-06  6503   0.598E-03
  27 F= -.55880031E+03 E0= -.55879516E+03  d E =-.144158E-02
 trial-energy change:   -0.001442  1 .order   -0.001432   -0.001702   -0.001161
 step:   3.7528(harm=  4.4418)  dis= 0.04987  next Energy=  -558.801323 (dE=-0.245E-02)
 bond charge predicted
       N       E                     dE             d eps       ncg     rms          rms(c)
DAV:   1    -0.558800742743E+03   -0.43054E-03   -0.10605E+00  8096   0.226E+00    0.309E-01
RMM:   2    -0.558802428814E+03   -0.16861E-02   -0.16251E-02 10388   0.361E-01    0.297E-01
RMM:   3    -0.558803909025E+03   -0.14802E-02   -0.42783E-03 10281   0.178E-01    0.429E-01
RMM:   4    -0.558802866505E+03    0.10425E-02   -0.46531E-03  9759   0.178E-01    0.302E-01
RMM:   5    -0.558801940182E+03    0.92632E-03   -0.20243E-03  9078   0.141E-01    0.187E-01
RMM:   6    -0.558801500975E+03    0.43921E-03   -0.67730E-04  9330   0.772E-02    0.611E-02
RMM:   7    -0.558801534781E+03   -0.33806E-04   -0.33133E-04  9960   0.422E-02    0.753E-02
RMM:   8    -0.558801503169E+03    0.31612E-04   -0.12410E-04  9113   0.312E-02    0.433E-02
RMM:   9    -0.558801481657E+03    0.21512E-04   -0.61157E-05  8835   0.188E-02    0.112E-02
RMM:  10    -0.558801483400E+03   -0.17431E-05   -0.25570E-05  8573   0.811E-03    0.931E-03
RMM:  11    -0.558801483996E+03   -0.59575E-06   -0.72350E-06  6374   0.732E-03
  28 F= -.55880148E+03 E0= -.55879620E+03  d E =-.261297E-02
 curvature: -21.29 expect dE=-0.267E-01 dE for cont linesearch -0.245E-04
 trial: gam= 0.82976 g(F)=  0.125E-02 g(S)=  0.000E+00 ort = 0.118E-03 (trialstep = 0.188E+01)
 search vector abs. value=  0.985E-02
 bond charge predicted
       N       E                     dE             d eps       ncg     rms          rms(c)
DAV:   1    -0.558803625950E+03   -0.21425E-02   -0.54907E-01  8168   0.160E+00    0.204E-01
RMM:   2    -0.558804485396E+03   -0.85945E-03   -0.75726E-03 10438   0.244E-01    0.197E-01
RMM:   3    -0.558805106610E+03   -0.62121E-03   -0.20085E-03 10374   0.118E-01    0.286E-01
RMM:   4    -0.558804715816E+03    0.39079E-03   -0.20473E-03  9662   0.120E-01    0.209E-01
RMM:   5    -0.558804227185E+03    0.48863E-03   -0.86678E-04  9046   0.937E-02    0.121E-01
RMM:   6    -0.558804050262E+03    0.17692E-03   -0.27456E-04  9357   0.498E-02    0.392E-02
RMM:   7    -0.558804068476E+03   -0.18214E-04   -0.14858E-04  9941   0.271E-02    0.512E-02
RMM:   8    -0.558804052980E+03    0.15496E-04   -0.52060E-05  8200   0.205E-02    0.257E-02
RMM:   9    -0.558804045783E+03    0.71967E-05   -0.26547E-05  7482   0.111E-02    0.637E-03
RMM:  10    -0.558804046944E+03   -0.11612E-05   -0.88508E-06  6905   0.489E-03    0.517E-03
RMM:  11    -0.558804047643E+03   -0.69874E-06   -0.18807E-06  5248   0.471E-03
  29 F= -.55880405E+03 E0= -.55879866E+03  d E =-.256365E-02
 ZBRENT: can't locate minimum, use default step
 trial-energy change:   -0.002564  1 .order   -0.002535   -0.002537   -0.002533
 step:   7.5159(harm=********)  dis= 0.10379  next Energy=  -559.745667 (dE=-0.944E+00)
 bond charge predicted
       N       E                     dE             d eps       ncg     rms          rms(c)
DAV:   1    -0.558807821101E+03   -0.37742E-02   -0.49130E+00  8096   0.480E+00    0.617E-01
RMM:   2    -0.558816442315E+03   -0.86212E-02   -0.68571E-02 10410   0.733E-01    0.648E-01
RMM:   3    -0.558819425034E+03   -0.29827E-02   -0.17219E-02 10208   0.355E-01    0.802E-01
RMM:   4    -0.558817672151E+03    0.17529E-02   -0.18937E-02  9732   0.362E-01    0.639E-01
RMM:   5    -0.558813088991E+03    0.45832E-02   -0.84703E-03  9005   0.295E-01    0.380E-01
RMM:   6    -0.558811366953E+03    0.17220E-02   -0.26188E-03  9350   0.155E-01    0.124E-01
RMM:   7    -0.558811454728E+03   -0.87775E-04   -0.12229E-03 10054   0.804E-02    0.139E-01
RMM:   8    -0.558811368183E+03    0.86544E-04   -0.47063E-04  9224   0.594E-02    0.804E-02
RMM:   9    -0.558811290793E+03    0.77390E-04   -0.23566E-04  9393   0.347E-02    0.197E-02
RMM:  10    -0.558811301235E+03   -0.10443E-04   -0.93489E-05 10398   0.145E-02    0.176E-02
RMM:  11    -0.558811303225E+03   -0.19896E-05   -0.25531E-05  8187   0.121E-02    0.129E-02
RMM:  12    -0.558811304304E+03   -0.10788E-05   -0.75707E-06  6335   0.775E-03    0.777E-03
RMM:  13    -0.558811307062E+03   -0.27582E-05   -0.40041E-06  5981   0.503E-03    0.529E-03
RMM:  14    -0.558811310283E+03   -0.32215E-05   -0.19926E-06  5371   0.475E-03    0.475E-03
RMM:  15    -0.558811311905E+03   -0.16217E-05   -0.10710E-06  4916   0.402E-03    0.207E-03
RMM:  16    -0.558811315014E+03   -0.31085E-05   -0.69940E-07  4923   0.244E-03    0.181E-03
RMM:  17    -0.558811316362E+03   -0.13480E-05   -0.43948E-07  4827   0.236E-03    0.131E-03
RMM:  18    -0.558811318002E+03   -0.16407E-05   -0.32167E-07  4588   0.158E-03    0.893E-04
RMM:  19    -0.558811320521E+03   -0.25182E-05   -0.35430E-07  4320   0.148E-03    0.611E-04
RMM:  20    -0.558811322542E+03   -0.20211E-05   -0.33692E-07  3942   0.124E-03    0.360E-04
RMM:  21    -0.558811324005E+03   -0.14638E-05   -0.26999E-07  3799   0.123E-03    0.455E-04
RMM:  22    -0.558811325305E+03   -0.12996E-05   -0.25953E-07  3558   0.112E-03    0.374E-04
RMM:  23    -0.558811326464E+03   -0.11589E-05   -0.27527E-07  3521   0.108E-03    0.308E-04
RMM:  24    -0.558811327049E+03   -0.58490E-06   -0.20870E-07  3311   0.104E-03
  30 F= -.55881133E+03 E0= -.55880567E+03  d E =-.984305E-02
 curvature: -41.08 expect dE=-0.115E+00 dE for cont linesearch -0.545E-02
 ZBRENT: increasing intervall
 opt :  18.7898  next Energy=  -558.821892 (dE=-0.204E-01)
 bond charge predicted
       N       E                     dE             d eps       ncg     rms          rms(c)
DAV:   1    -0.558802980617E+03    0.83458E-02   -0.19215E+01  8096   0.953E+00    0.125E+00
RMM:   2    -0.558844127598E+03   -0.41147E-01   -0.28431E-01 10419   0.148E+00    0.148E+00
RMM:   3    -0.558841254590E+03    0.28730E-02   -0.65519E-02 10083   0.711E-01    0.149E+00
RMM:   4    -0.558839889739E+03    0.13649E-02   -0.76872E-02  9805   0.721E-01    0.128E+00
RMM:   5    -0.558823959117E+03    0.15931E-01   -0.39634E-02  9008   0.631E-01    0.870E-01
RMM:   6    -0.558815022047E+03    0.89371E-02   -0.12388E-02  9216   0.351E-01    0.297E-01
RMM:   7    -0.558815074506E+03   -0.52459E-04   -0.51026E-03  9913   0.177E-01    0.284E-01
RMM:   8    -0.558814735172E+03    0.33933E-03   -0.21027E-03  9348   0.124E-01    0.169E-01
RMM:   9    -0.558814389539E+03    0.34563E-03   -0.99222E-04  9559   0.750E-02    0.481E-02
RMM:  10    -0.558814452029E+03   -0.62489E-04   -0.45997E-04 11127   0.338E-02    0.422E-02
RMM:  11    -0.558814457267E+03   -0.52384E-05   -0.14365E-04  9735   0.286E-02    0.323E-02
RMM:  12    -0.558814458854E+03   -0.15867E-05   -0.43323E-05  8798   0.175E-02    0.169E-02
RMM:  13    -0.558814471908E+03   -0.13054E-04   -0.29093E-05  8942   0.854E-03    0.112E-02
RMM:  14    -0.558814484498E+03   -0.12590E-04   -0.11990E-05  7214   0.825E-03    0.104E-02
RMM:  15    -0.558814491289E+03   -0.67911E-05   -0.42635E-06  5860   0.700E-03    0.527E-03
RMM:  16    -0.558814503437E+03   -0.12149E-04   -0.23891E-06  5637   0.380E-03    0.251E-03
RMM:  17    -0.558814511035E+03   -0.75980E-05   -0.10529E-06  5078   0.320E-03    0.281E-03
RMM:  18    -0.558814516840E+03   -0.58050E-05   -0.90077E-07  5067   0.305E-03    0.224E-03
RMM:  19    -0.558814527001E+03   -0.10161E-04   -0.13794E-06  5242   0.236E-03    0.129E-03
RMM:  20    -0.558814534249E+03   -0.72477E-05   -0.10361E-06  4888   0.198E-03    0.904E-04
RMM:  21    -0.558814541679E+03   -0.74303E-05   -0.11423E-06  4706   0.169E-03    0.620E-04
RMM:  22    -0.558814546863E+03   -0.51841E-05   -0.90397E-07  4697   0.185E-03    0.763E-04
RMM:  23    -0.558814549752E+03   -0.28884E-05   -0.62634E-07  4308   0.147E-03    0.343E-04
RMM:  24    -0.558814551657E+03   -0.19054E-05   -0.43131E-07  3952   0.143E-03    0.530E-04
RMM:  25    -0.558814552799E+03   -0.11423E-05   -0.32480E-07  3545   0.123E-03    0.161E-04
RMM:  26    -0.558814553382E+03   -0.58229E-06   -0.22255E-07  3218   0.111E-03
  31 F= -.55881455E+03 E0= -.55880844E+03  d E =-.130694E-01
 curvature: -79.67 expect dE=-0.977E+00 dE for cont linesearch -0.845E-02
 ZBRENT: bracketing found
 ZBRENT: interpolating
 opt :  13.4673  next Energy=  -558.817273 (dE=-0.158E-01)
 bond charge predicted
       N       E                     dE             d eps       ncg     rms          rms(c)
DAV:   1    -0.558813999199E+03    0.55360E-03   -0.43926E+00  8096   0.459E+00    0.595E-01
RMM:   2    -0.558823862464E+03   -0.98633E-02   -0.62842E-02 10462   0.687E-01    0.727E-01
RMM:   3    -0.558821719770E+03    0.21427E-02   -0.14477E-02 10007   0.339E-01    0.703E-01
RMM:   4    -0.558822131873E+03   -0.41210E-03   -0.16946E-02  9788   0.340E-01    0.632E-01
RMM:   5    -0.558818653338E+03    0.34785E-02   -0.95659E-03  8906   0.310E-01    0.450E-01
RMM:   6    -0.558816321998E+03    0.23313E-02   -0.31100E-03  9086   0.182E-01    0.175E-01
RMM:   7    -0.558816185427E+03    0.13657E-03   -0.12171E-03  9913   0.876E-02    0.119E-01
RMM:   8    -0.558816143857E+03    0.41570E-04   -0.55716E-04  9577   0.614E-02    0.786E-02
RMM:   9    -0.558816061649E+03    0.82208E-04   -0.22487E-04  9506   0.360E-02    0.216E-02
RMM:  10    -0.558816068067E+03   -0.64178E-05   -0.97165E-05 10605   0.163E-02    0.202E-02
RMM:  11    -0.558816066611E+03    0.14561E-05   -0.31033E-05  8371   0.146E-02    0.157E-02
RMM:  12    -0.558816065349E+03    0.12614E-05   -0.99360E-06  6628   0.817E-03    0.806E-03
RMM:  13    -0.558816066559E+03   -0.12099E-05   -0.55137E-06  6240   0.527E-03    0.670E-03
RMM:  14    -0.558816067977E+03   -0.14175E-05   -0.29011E-06  5701   0.590E-03    0.593E-03
RMM:  15    -0.558816068936E+03   -0.95957E-06   -0.13097E-06  5020   0.432E-03
  32 F= -.55881607E+03 E0= -.55881015E+03  d E =-.145849E-01
 curvature: -25.64 expect dE=-0.162E+00 dE for cont linesearch -0.303E-03
 trial: gam= 3.40288 g(F)=  0.631E-02 g(S)=  0.000E+00 ort = 0.341E-03 (trialstep = 0.337E+00)
 search vector abs. value=  0.123E+00
 bond charge predicted
       N       E                     dE             d eps       ncg     rms          rms(c)
DAV:   1    -0.558818371990E+03   -0.23040E-02   -0.21925E-01  8352   0.101E+00    0.122E-01
RMM:   2    -0.558818741714E+03   -0.36972E-03   -0.27069E-03 10496   0.145E-01    0.130E-01
RMM:   3    -0.558818838406E+03   -0.96692E-04   -0.64668E-04 10042   0.703E-02    0.158E-01
RMM:   4    -0.558818814899E+03    0.23508E-04   -0.70448E-04  9624   0.723E-02    0.135E-01
RMM:   5    -0.558818596976E+03    0.21792E-03   -0.32540E-04  8840   0.597E-02    0.715E-02
RMM:   6    -0.558818541757E+03    0.55219E-04   -0.99456E-05  9403   0.301E-02    0.287E-02
RMM:   7    -0.558818543244E+03   -0.14875E-05   -0.43616E-05  8670   0.161E-02    0.267E-02
RMM:   8    -0.558818540228E+03    0.30161E-05   -0.17527E-05  7138   0.118E-02    0.130E-02
RMM:   9    -0.558818538183E+03    0.20449E-05   -0.76753E-06  6287   0.664E-03    0.373E-03
RMM:  10    -0.558818538970E+03   -0.78652E-06   -0.20833E-06  5639   0.346E-03
  33 F= -.55881854E+03 E0= -.55881259E+03  d E =-.247003E-02
 ZBRENT: can't locate minimum, use default step
 trial-energy change:   -0.002470  1 .order   -0.002451   -0.002516   -0.002386
 step:   1.3477(harm=  6.5410)  dis= 0.06788  next Energy=  -558.840493 (dE=-0.244E-01)
 bond charge predicted
       N       E                     dE             d eps       ncg     rms          rms(c)
DAV:   1    -0.558823747627E+03   -0.52094E-02   -0.19694E+00  8112   0.304E+00    0.367E-01
RMM:   2    -0.558827008791E+03   -0.32612E-02   -0.24325E-02 10492   0.432E-01    0.390E-01
RMM:   3    -0.558827907836E+03   -0.89904E-03   -0.57949E-03  9999   0.212E-01    0.477E-01
RMM:   4    -0.558827567883E+03    0.33995E-03   -0.63412E-03  9621   0.218E-01    0.401E-01
RMM:   5    -0.558825646367E+03    0.19215E-02   -0.29123E-03  8872   0.178E-01    0.215E-01
RMM:   6    -0.558825147567E+03    0.49880E-03   -0.89778E-04  9435   0.902E-02    0.864E-02
RMM:   7    -0.558825152726E+03   -0.51587E-05   -0.39166E-04  9925   0.483E-02    0.793E-02
RMM:   8    -0.558825119064E+03    0.33662E-04   -0.16247E-04  9242   0.346E-02    0.394E-02
RMM:   9    -0.558825100004E+03    0.19059E-04   -0.75670E-05  9461   0.183E-02    0.116E-02
RMM:  10    -0.558825103459E+03   -0.34549E-05   -0.26394E-05  8763   0.796E-03    0.916E-03
RMM:  11    -0.558825105338E+03   -0.18784E-05   -0.78944E-06  6578   0.686E-03    0.843E-03
RMM:  12    -0.558825105800E+03   -0.46263E-06   -0.23859E-06  5392   0.625E-03
  34 F= -.55882511E+03 E0= -.55881907E+03  d E =-.903686E-02
 curvature: -16.07 expect dE=-0.107E+00 dE for cont linesearch -0.432E-02
 ZBRENT: increasing intervall
 opt :   3.3692  next Energy=  -558.834000 (dE=-0.179E-01)
 bond charge predicted
       N       E                     dE             d eps       ncg     rms          rms(c)
DAV:   1    -0.558827171770E+03   -0.20664E-02   -0.77924E+00  8096   0.607E+00    0.734E-01
RMM:   2    -0.558839771536E+03   -0.12600E-01   -0.97337E-02 10465   0.872E-01    0.781E-01
RMM:   3    -0.558843596796E+03   -0.38253E-02   -0.22950E-02  9933   0.427E-01    0.948E-01
RMM:   4    -0.558841959100E+03    0.16377E-02   -0.24982E-02  9644   0.433E-01    0.801E-01
RMM:   5    -0.558834320155E+03    0.76389E-02   -0.11722E-02  8868   0.361E-01    0.416E-01
RMM:   6    -0.558832457357E+03    0.18628E-02   -0.35576E-03  9481   0.177E-01    0.168E-01
RMM:   7    -0.558832499478E+03   -0.42121E-04   -0.15087E-03  9861   0.966E-02    0.164E-01
RMM:   8    -0.558832334973E+03    0.16451E-03   -0.59188E-04  9314   0.671E-02    0.735E-02
RMM:   9    -0.558832275939E+03    0.59034E-04   -0.30677E-04 10037   0.362E-02    0.263E-02
RMM:  10    -0.558832295210E+03   -0.19271E-04   -0.11021E-04 10657   0.167E-02    0.199E-02
RMM:  11    -0.558832303752E+03   -0.85422E-05   -0.35655E-05  9308   0.130E-02    0.168E-02
RMM:  12    -0.558832307489E+03   -0.37366E-05   -0.10537E-05  6634   0.988E-03    0.113E-02
RMM:  13    -0.558832315527E+03   -0.80383E-05   -0.69411E-06  6454   0.645E-03    0.666E-03
RMM:  14    -0.558832322577E+03   -0.70501E-05   -0.37756E-06  5897   0.584E-03    0.651E-03
RMM:  15    -0.558832327138E+03   -0.45609E-05   -0.17508E-06  5255   0.504E-03    0.298E-03
RMM:  16    -0.558832333305E+03   -0.61675E-05   -0.10671E-06  5118   0.283E-03    0.163E-03
RMM:  17    -0.558832337607E+03   -0.43020E-05   -0.60582E-07  4880   0.227E-03    0.159E-03
RMM:  18    -0.558832342288E+03   -0.46810E-05   -0.61087E-07  4868   0.223E-03    0.171E-03
RMM:  19    -0.558832349140E+03   -0.68514E-05   -0.10261E-06  5088   0.202E-03    0.961E-04
RMM:  20    -0.558832353269E+03   -0.41288E-05   -0.67241E-07  4589   0.166E-03    0.681E-04
RMM:  21    -0.558832356421E+03   -0.31528E-05   -0.48240E-07  4152   0.139E-03    0.445E-04
RMM:  22    -0.558832359876E+03   -0.34542E-05   -0.57978E-07  4278   0.141E-03    0.490E-04
RMM:  23    -0.558832362347E+03   -0.24716E-05   -0.55843E-07  4203   0.136E-03    0.297E-04
RMM:  24    -0.558832363171E+03   -0.82429E-06   -0.27642E-07  3552   0.127E-03
  35 F= -.55883236E+03 E0= -.55882618E+03  d E =-.162942E-01
 curvature: -33.09 expect dE=-0.297E+00 dE for cont linesearch -0.184E-03
 trial: gam= 0.33584 g(F)=  0.897E-02 g(S)=  0.000E+00 ort = 0.826E-03 (trialstep = 0.943E+00)
 search vector abs. value=  0.234E-01
 bond charge predicted
       N       E                     dE             d eps       ncg     rms          rms(c)
DAV:   1    -0.558840216823E+03   -0.78545E-02   -0.32821E-01  8448   0.126E+00    0.154E-01
RMM:   2    -0.558840470781E+03   -0.25396E-03   -0.37967E-03 10509   0.171E-01    0.116E-01
RMM:   3    -0.558841073958E+03   -0.60318E-03   -0.12909E-03 10405   0.891E-02    0.208E-01
RMM:   4    -0.558840880848E+03    0.19311E-03   -0.92340E-04  9697   0.851E-02    0.197E-01
RMM:   5    -0.558840447166E+03    0.43368E-03   -0.54357E-04  8524   0.797E-02    0.656E-02
RMM:   6    -0.558840406870E+03    0.40296E-04   -0.18380E-04  9624   0.368E-02    0.316E-02
RMM:   7    -0.558840414005E+03   -0.71349E-05   -0.79402E-05  9546   0.209E-02    0.388E-02
RMM:   8    -0.558840401672E+03    0.12332E-04   -0.24538E-05  7664   0.144E-02    0.172E-02
RMM:   9    -0.558840399351E+03    0.23215E-05   -0.13916E-05  6974   0.795E-03    0.807E-03
RMM:  10    -0.558840398805E+03    0.54569E-06   -0.34852E-06  5801   0.546E-03
  36 F= -.55884040E+03 E0= -.55883421E+03  d E =-.803563E-02
 ZBRENT: can't locate minimum, use default step
 trial-energy change:   -0.008036  1 .order   -0.008025   -0.008725   -0.007325
 step:   3.7735(harm=  5.8777)  dis= 0.06571  next Energy=  -558.859544 (dE=-0.272E-01)
 bond charge predicted
       N       E                     dE             d eps       ncg     rms          rms(c)
DAV:   1    -0.558854611015E+03   -0.14212E-01   -0.29459E+00  8096   0.377E+00    0.457E-01
RMM:   2    -0.558857033358E+03   -0.24223E-02   -0.33865E-02 10516   0.513E-01    0.346E-01
RMM:   3    -0.558862874770E+03   -0.58414E-02   -0.11281E-02 10407   0.263E-01    0.650E-01
RMM:   4    -0.558860381351E+03    0.24934E-02   -0.83610E-03  9682   0.257E-01    0.570E-01
RMM:   5    -0.558856760482E+03    0.36209E-02   -0.47951E-03  8536   0.237E-01    0.187E-01
RMM:   6    -0.558856460232E+03    0.30025E-03   -0.16226E-03  9666   0.107E-01    0.109E-01
RMM:   7    -0.558856485851E+03   -0.25619E-04   -0.66845E-04  9983   0.624E-02    0.112E-01
RMM:   8    -0.558856384608E+03    0.10124E-03   -0.23627E-04  9391   0.424E-02    0.474E-02
[...]
DAV:   1    -0.558891368551E+03   -0.16318E-03   -0.16419E-01  8144   0.902E-01    0.117E-01
RMM:   2    -0.558891515818E+03   -0.14727E-03   -0.26444E-03 10536   0.139E-01    0.936E-02
RMM:   3    -0.558892010878E+03   -0.49506E-03   -0.72228E-04  9732   0.796E-02    0.203E-01
RMM:   4    -0.558891582867E+03    0.42801E-03   -0.59168E-04  9887   0.654E-02    0.104E-01
RMM:   5    -0.558891477492E+03    0.10537E-03   -0.26027E-04  9145   0.514E-02    0.644E-02
RMM:   6    -0.558891436334E+03    0.41158E-04   -0.10860E-04  9648   0.286E-02    0.284E-02
RMM:   7    -0.558891444820E+03   -0.84870E-05   -0.53464E-05  8773   0.189E-02    0.401E-02
RMM:   8    -0.558891428608E+03    0.16213E-04   -0.19899E-05  7797   0.138E-02    0.114E-02
RMM:   9    -0.558891428730E+03   -0.12200E-06   -0.12042E-05  7178   0.887E-03    0.963E-03
RMM:  10    -0.558891428050E+03    0.67972E-06   -0.43595E-06  5960   0.644E-03
  53 F= -.55889143E+03 E0= -.55888533E+03  d E =-.222962E-03
 trial-energy change:   -0.000223  1 .order   -0.000213   -0.001135    0.000709
 step:   2.5054(harm=  2.4749)  dis= 0.00356  next Energy=  -558.891561 (dE=-0.356E-03)
 bond charge predicted
       N       E                     dE             d eps       ncg     rms          rms(c)
DAV:   1    -0.558891550116E+03   -0.12139E-03   -0.23269E-02  8400   0.340E-01    0.441E-02
RMM:   2    -0.558891571152E+03   -0.21036E-04   -0.37321E-04 10564   0.524E-02    0.347E-02
RMM:   3    -0.558891646876E+03   -0.75724E-04   -0.10894E-04  9375   0.330E-02    0.806E-02
RMM:   4    -0.558891584091E+03    0.62785E-04   -0.77169E-05  9783   0.236E-02    0.395E-02
RMM:   5    -0.558891566252E+03    0.17839E-04   -0.35106E-05  8524   0.202E-02    0.208E-02
RMM:   6    -0.558891562640E+03    0.36112E-05   -0.15996E-05  7804   0.102E-02    0.866E-03
RMM:   7    -0.558891562743E+03   -0.10240E-06   -0.42663E-06  5891   0.654E-03
  54 F= -.55889156E+03 E0= -.55888542E+03  d E =-.357655E-03
 curvature:  -2.75 expect dE=-0.216E-03 dE for cont linesearch -0.318E-07
 trial: gam= 0.30690 g(F)=  0.785E-04 g(S)=  0.000E+00 ort = 0.269E-05 (trialstep = 0.372E+01)
 search vector abs. value=  0.139E-03
 bond charge predicted
       N       E                     dE             d eps       ncg     rms          rms(c)
DAV:   1    -0.558891755712E+03   -0.19307E-03   -0.30392E-02  8160   0.390E-01    0.493E-02
RMM:   2    -0.558891793161E+03   -0.37449E-04   -0.39387E-04 10286   0.586E-02    0.455E-02
RMM:   3    -0.558891839684E+03   -0.46523E-04   -0.11676E-04  9897   0.319E-02    0.709E-02
RMM:   4    -0.558891807963E+03    0.31721E-04   -0.93282E-05  9617   0.267E-02    0.529E-02
RMM:   5    -0.558891796399E+03    0.11565E-04   -0.58063E-05  8316   0.242E-02    0.456E-02
RMM:   6    -0.558891777697E+03    0.18701E-04   -0.21399E-05  8282   0.137E-02    0.147E-02
RMM:   7    -0.558891775763E+03    0.19345E-05   -0.79249E-06  6523   0.814E-03    0.884E-03
RMM:   8    -0.558891775359E+03    0.40329E-06   -0.30321E-06  5598   0.650E-03
  55 F= -.55889178E+03 E0= -.55888566E+03  d E =-.212617E-03
 trial-energy change:   -0.000213  1 .order   -0.000212   -0.000295   -0.000130
 step:   6.6437(harm=  6.6437)  dis= 0.00818  next Energy=  -558.891826 (dE=-0.263E-03)
 reached required accuracy - stopping structural energy minimisation
 augmentation electrons   27.849625802880670     
 soft         electrons   240.27101250430471     
 augmentation electrons   27.849625802880670     
 soft         electrons   240.27101250430471     
 augmentation electrons   27.849625802880670     
 soft         electrons   240.27101250430471     
 augmentation electrons   27.849625802880670     
 soft         electrons   240.27101250430471     
 augmentation electrons   27.849625802880670     
 soft         electrons   240.27101250430471     
 augmentation electrons   27.849625802880670     
 soft         electrons   240.27101250430471     
 augmentation electrons   27.849625802880670     
 soft         electrons   240.27101250430471     
 augmentation electrons   27.849625802880670     
 soft         electrons   240.27101250430471     
 augmentation electrons   27.849625802880670     
 soft         electrons   240.27101250430471     
 augmentation electrons   27.849625802880670     
 soft         electrons   240.27101250430471     
 augmentation electrons   27.849625802880670     
 soft         electrons   240.27101250430471     
 augmentation electrons   27.849625802880670     
 soft         electrons   240.27101250430471     
 augmentation electrons   27.849625802880670     
 soft         electrons   240.27101250430471     
 augmentation electrons   27.849625802880670     
 soft         electrons   240.27101250430471     
 augmentation electrons   27.849625802880670     
 soft         electrons   240.27101250430471     
 augmentation electrons   27.849625802880670     
 soft         electrons   240.27101250430471     
 augmentation electrons   27.849625802880670     
 soft         electrons   240.27101250430471     
 augmentation electrons   27.849625802880670     
 soft         electrons   240.27101250430471     
 augmentation electrons   27.849625802880670     
 soft         electrons   240.27101250430471     
 augmentation electrons   27.849625802880670     
 soft         electrons   240.27101250430471     
 augmentation electrons   27.849625802880670     
 soft         electrons   240.27101250430471     
 augmentation electrons   27.849625802880670     
 soft         electrons   240.27101250430471     
 augmentation electrons   27.849625802880670     
 soft         electrons   240.27101250430471     
 augmentation electrons   27.849625802880670     
 soft         electrons   240.27101250430471     
 augmentation electrons   27.849625802880670     
 soft         electrons   240.27101250430471     
 augmentation electrons   27.849625802880670     
 soft         electrons   240.27101250430471     
 augmentation electrons   27.849625802880670     
 soft         electrons   240.27101250430471     
 augmentation electrons   27.849625802880670     
 soft         electrons   240.27101250430471     
 augmentation electrons   27.849625802880670     
 soft         electrons   240.27101250430471     
 augmentation electrons   27.849625802880670     
 soft         electrons   240.27101250430471     
 augmentation electrons   27.849625802880670     
 augmentation electrons   27.849625802880670     
 soft         electrons   240.27101250430471     
 augmentation electrons   27.849625802880670     
 soft         electrons   240.27101250430471     
 augmentation electrons   27.849625802880670     
 soft         electrons   240.27101250430471     
 augmentation electrons   27.849625802880670     
 soft         electrons   240.27101250430471     
 augmentation electrons   27.849625802880670     
 soft         electrons   240.27101250430471     
 augmentation electrons   27.849625802880670     
 soft         electrons   240.27101250430471     
 augmentation electrons   27.849625802880670     
 soft         electrons   240.27101250430471     
 augmentation electrons   27.849625802880670     
 soft         electrons   240.27101250430471     
 augmentation electrons   27.849625802880670     
 soft         electrons   240.27101250430471     
 augmentation electrons   27.849625802880670     
 soft         electrons   240.27101250430471     
 augmentation electrons   27.849625802880670     
 soft         electrons   240.27101250430471     
 augmentation electrons   27.849625802880670     
 soft         electrons   240.27101250430471     
 augmentation electrons   27.849625802880670     
 soft         electrons   240.27101250430471     
 augmentation electrons   27.849625802880670     
 soft         electrons   240.27101250430471     
 augmentation electrons   27.849625802880670     
 soft         electrons   240.27101250430471     
 augmentation electrons   27.849625802880670     
 soft         electrons   240.27101250430471     
 augmentation electrons   27.849625802880670     
 soft         electrons   240.27101250430471     
 augmentation electrons   27.849625802880670     
 soft         electrons   240.27101250430471     
 augmentation electrons   27.849625802880670     
 soft         electrons   240.27101250430471     
 augmentation electrons   27.849625802880670     
 soft         electrons   240.27101250430471     
 augmentation electrons   27.849625802880670     
 soft         electrons   240.27101250430471     
 augmentation electrons   27.849625802880670     
 soft         electrons   240.27101250430471     
 augmentation electrons   27.849625802880670     
 soft         electrons   240.27101250430471     
 augmentation electrons   27.849625802880670     
 soft         electrons   240.27101250430471     
 augmentation electrons   27.849625802880670     
 soft         electrons   240.27101250430471     
 augmentation electrons   27.849625802880670     
 soft         electrons   240.27101250430471     
 augmentation electrons   27.849625802880670     
 soft         electrons   240.27101250430471     
 augmentation electrons   27.849625802880670     
 soft         electrons   240.27101250430471     
 augmentation electrons   27.849625802880670     
 soft         electrons   240.27101250430471     
 augmentation electrons   27.849625802880670     
 soft         electrons   240.27101250430471     
 augmentation electrons   27.849625802880670     
 soft         electrons   240.27101250430471     
 augmentation electrons   27.849625802880670     
 soft         electrons   240.27101250430471     
 augmentation electrons   27.849625802880670     
 soft         electrons   240.27101250430471     
 augmentation electrons   27.849625802880670     
 soft         electrons   240.27101250430471     
 augmentation electrons   27.849625802880670     
 soft         electrons   240.27101250430471     
 augmentation electrons   27.849625802880670     
 soft         electrons   240.27101250430471     
 augmentation electrons   27.849625802880670     
 soft         electrons   240.27101250430471     
 augmentation electrons   27.849625802880670     
 soft         electrons   240.27101250430471     
 augmentation electrons   27.849625802880670     
 soft         electrons   240.27101250430471     
 augmentation electrons   27.849625802880670     
 soft         electrons   240.27101250430471     
 augmentation electrons   27.849625802880670     
 soft         electrons   240.27101250430471     
 soft         electrons   240.27101250430471     
 total        electrons   268.12063830718540     
 total        electrons   268.12063830718540     
 total        electrons   268.12063830718540     
 total        electrons   268.12063830718540     
 total        electrons   268.12063830718540     
 total        electrons   268.12063830718540     
 total        electrons   268.12063830718540     
 total        electrons   268.12063830718540     
 total        electrons   268.12063830718540     
 total        electrons   268.12063830718540     
 total        electrons   268.12063830718540     
 total        electrons   268.12063830718540     
 total        electrons   268.12063830718540     
 total        electrons   268.12063830718540     
 total        electrons   268.12063830718540     
 total        electrons   268.12063830718540     
 total        electrons   268.12063830718540     
 total        electrons   268.12063830718540     
 total        electrons   268.12063830718540     
 total        electrons   268.12063830718540     
 total        electrons   268.12063830718540     
 total        electrons   268.12063830718540     
 total        electrons   268.12063830718540     
 total        electrons   268.12063830718540     
 total        electrons   268.12063830718540     
 total        electrons   268.12063830718540     
 total        electrons   268.12063830718540     
 total        electrons   268.12063830718540     
 total        electrons   268.12063830718540     
 total        electrons   268.12063830718540     
 total        electrons   268.12063830718540     
 total        electrons   268.12063830718540     
 total        electrons   268.12063830718540     
 total        electrons   268.12063830718540     
 total        electrons   268.12063830718540     
 total        electrons   268.12063830718540     
 total        electrons   268.12063830718540     
 total        electrons   268.12063830718540     
 total        electrons   268.12063830718540     
 total        electrons   268.12063830718540     
 total        electrons   268.12063830718540     
 total        electrons   268.12063830718540     
 total        electrons   268.12063830718540     
 total        electrons   268.12063830718540     
 total        electrons   268.12063830718540     
 total        electrons   268.12063830718540     
 total        electrons   268.12063830718540     
 total        electrons   268.12063830718540     
 total        electrons   268.12063830718540     
 total        electrons   268.12063830718540     
 total        electrons   268.12063830718540     
 total        electrons   268.12063830718540     
 total        electrons   268.12063830718540     
 total        electrons   268.12063830718540     
 total        electrons   268.12063830718540     
 total        electrons   268.12063830718540     
 total        electrons   268.12063830718540     
 total        electrons   268.12063830718540     
 total        electrons   268.12063830718540     
 total        electrons   268.12063830718540     
 total        electrons   268.12063830718540     
 total        electrons   268.12063830718540     
 total        electrons   268.12063830718540     
 total        electrons   268.12063830718540     
 total        electrons   268.12063830718540     
 total        electrons   268.12063830718540     
 total        electrons   268.12063830718540     
 total        electrons   268.12063830718540     
 total        electrons   268.12063830718540     
 total        electrons   268.12063830718540     
 total        electrons   268.12063830718540     
 total        electrons   268.12063830718540     
Note: The following floating-point exceptions are signalling: IEEE_OVERFLOW_FLAG
Note: The following floating-point exceptions are signalling: IEEE_OVERFLOW_FLAG
Note: The following floating-point exceptions are signalling: IEEE_OVERFLOW_FLAG
Note: The following floating-point exceptions are signalling: IEEE_OVERFLOW_FLAG
Note: The following floating-point exceptions are signalling: IEEE_OVERFLOW_FLAG
Note: The following floating-point exceptions are signalling: IEEE_OVERFLOW_FLAG
Note: The following floating-point exceptions are signalling: IEEE_OVERFLOW_FLAG
Note: The following floating-point exceptions are signalling: IEEE_OVERFLOW_FLAG
Note: The following floating-point exceptions are signalling: IEEE_OVERFLOW_FLAG
Note: The following floating-point exceptions are signalling: IEEE_OVERFLOW_FLAG
Note: The following floating-point exceptions are signalling: IEEE_OVERFLOW_FLAG
Note: The following floating-point exceptions are signalling: IEEE_OVERFLOW_FLAG
Note: The following floating-point exceptions are signalling: IEEE_OVERFLOW_FLAG
Note: The following floating-point exceptions are signalling: IEEE_OVERFLOW_FLAG
Note: The following floating-point exceptions are signalling: IEEE_OVERFLOW_FLAG
Note: The following floating-point exceptions are signalling: IEEE_OVERFLOW_FLAG
Note: The following floating-point exceptions are signalling: IEEE_OVERFLOW_FLAG
Note: The following floating-point exceptions are signalling: IEEE_OVERFLOW_FLAG
Note: The following floating-point exceptions are signalling: IEEE_OVERFLOW_FLAG
Note: The following floating-point exceptions are signalling: IEEE_OVERFLOW_FLAG
Note: The following floating-point exceptions are signalling: IEEE_OVERFLOW_FLAG
Note: The following floating-point exceptions are signalling: IEEE_OVERFLOW_FLAG
Note: The following floating-point exceptions are signalling: IEEE_OVERFLOW_FLAG
Note: The following floating-point exceptions are signalling: IEEE_OVERFLOW_FLAG
Note: The following floating-point exceptions are signalling: IEEE_OVERFLOW_FLAG
Note: The following floating-point exceptions are signalling: IEEE_OVERFLOW_FLAG
Note: The following floating-point exceptions are signalling: IEEE_OVERFLOW_FLAG
Note: The following floating-point exceptions are signalling: IEEE_OVERFLOW_FLAG
Note: The following floating-point exceptions are signalling: IEEE_OVERFLOW_FLAG
Note: The following floating-point exceptions are signalling: IEEE_OVERFLOW_FLAG
Note: The following floating-point exceptions are signalling: IEEE_OVERFLOW_FLAG
Note: The following floating-point exceptions are signalling: IEEE_OVERFLOW_FLAG
Note: The following floating-point exceptions are signalling: IEEE_OVERFLOW_FLAG
Note: The following floating-point exceptions are signalling: IEEE_OVERFLOW_FLAG
Note: The following floating-point exceptions are signalling: IEEE_OVERFLOW_FLAG
Note: The following floating-point exceptions are signalling: IEEE_INVALID_FLAG IEEE_OVERFLOW_FLAG
Note: The following floating-point exceptions are signalling: IEEE_OVERFLOW_FLAG
Note: The following floating-point exceptions are signalling: IEEE_OVERFLOW_FLAG
Note: The following floating-point exceptions are signalling: IEEE_OVERFLOW_FLAG
Note: The following floating-point exceptions are signalling: IEEE_OVERFLOW_FLAG
Note: The following floating-point exceptions are signalling: IEEE_OVERFLOW_FLAG
Note: The following floating-point exceptions are signalling: IEEE_OVERFLOW_FLAG
Note: The following floating-point exceptions are signalling: IEEE_OVERFLOW_FLAG
Note: The following floating-point exceptions are signalling: IEEE_OVERFLOW_FLAG
Note: The following floating-point exceptions are signalling: IEEE_OVERFLOW_FLAG
Note: The following floating-point exceptions are signalling: IEEE_OVERFLOW_FLAG
Note: The following floating-point exceptions are signalling: IEEE_OVERFLOW_FLAG
Note: The following floating-point exceptions are signalling: IEEE_OVERFLOW_FLAG
Note: The following floating-point exceptions are signalling: IEEE_OVERFLOW_FLAG
Note: The following floating-point exceptions are signalling: IEEE_OVERFLOW_FLAG
Note: The following floating-point exceptions are signalling: IEEE_OVERFLOW_FLAG
Note: The following floating-point exceptions are signalling: IEEE_OVERFLOW_FLAG
Note: The following floating-point exceptions are signalling: IEEE_OVERFLOW_FLAG
Note: The following floating-point exceptions are signalling: IEEE_OVERFLOW_FLAG
Note: The following floating-point exceptions are signalling: IEEE_OVERFLOW_FLAG
Note: The following floating-point exceptions are signalling: IEEE_OVERFLOW_FLAG
Note: The following floating-point exceptions are signalling: IEEE_OVERFLOW_FLAG
Note: The following floating-point exceptions are signalling: IEEE_OVERFLOW_FLAG
Note: The following floating-point exceptions are signalling: IEEE_OVERFLOW_FLAG
Note: The following floating-point exceptions are signalling: IEEE_OVERFLOW_FLAG
Note: The following floating-point exceptions are signalling: IEEE_OVERFLOW_FLAG
Note: The following floating-point exceptions are signalling: IEEE_OVERFLOW_FLAG
Note: The following floating-point exceptions are signalling: IEEE_OVERFLOW_FLAG
Note: The following floating-point exceptions are signalling: IEEE_OVERFLOW_FLAG
Note: The following floating-point exceptions are signalling: IEEE_OVERFLOW_FLAG
Note: The following floating-point exceptions are signalling: IEEE_OVERFLOW_FLAG
Note: The following floating-point exceptions are signalling: IEEE_OVERFLOW_FLAG
Note: The following floating-point exceptions are signalling: IEEE_OVERFLOW_FLAG
Note: The following floating-point exceptions are signalling: IEEE_OVERFLOW_FLAG
Note: The following floating-point exceptions are signalling: IEEE_OVERFLOW_FLAG
Note: The following floating-point exceptions are signalling: IEEE_OVERFLOW_FLAG
Note: The following floating-point exceptions are signalling: IEEE_OVERFLOW_FLAG
