   58   58   85    1
  0.1231722E+02  0.6078000E-09  0.6078000E-09  0.2233000E-08  0.5000000E-15
   1.0000000000000000E-004
  CAR 
 Name                                    
    206     41    138

  0.3742002E-15  0.3742002E-15  0.1262379E-14  0.1234568E-01
    1      -10.916589   1.000000
    2      -10.352272   1.000000
    3       -9.627552   1.000000
    4       -8.947861   1.000000
    5       -8.084698   1.000000
    6       -8.035141   1.000000
    7       -7.668128   1.000000
    8       -7.576755   1.000000
    9       -7.450979   1.000000
   10       -7.321007   1.000000
   11       -7.171527   1.000000
   12       -7.158125   1.000000
   13       -7.117094   1.000000
   14       -7.112695   1.000000
   15       -6.848623   1.000000
   16       -6.801667   1.000000
   17       -6.758514   1.000000
   18       -6.678779   1.000000
   19       -6.630707   1.000000
   20       -6.473124   1.000000
   21       -6.417693   1.000000
   22       -6.289081   1.000000
   23       -6.140050   1.000000
   24       -5.589341   1.000000
   25       -5.506529   1.000000
   26       -5.304341   1.000000
   27       -5.302746   1.000000
   28       -5.249826   1.000000
   29       -5.222446   1.000000
   30       -4.992751   1.000000
   31       -4.902274   1.000000
   32       -4.101533   1.000000
   33       -3.998528   1.000000
   34       -3.981969   1.000000
   35       -3.907110   1.000000
   36       -3.826938   1.000000
   37       -3.623308   1.000000
   38       -2.990505   1.000000
   39       -2.814877   1.000000
   40       -2.760653   1.000000
   41       -2.646692   1.000000
   42       -2.473378   1.000000
   43       -2.286811   1.000000
   44       -2.179983   1.000000
   45       -2.064138   1.000000
   46       -2.004996   1.000000
   47       -1.911056   1.000000
   48       -1.790071   1.000000
   49       -1.765184   1.000000
   50       -1.762580   1.000000
   51       -1.520530   1.000000
   52       -1.476452   1.000000
   53       -1.432170   1.000000
   54       -1.366519   1.000000
   55       -1.325653   1.000000
   56       -1.288423   1.000000
   57       -1.209973   1.000000
   58       -1.186089   1.000000
   59       -1.089433   1.000000
   60       -1.034086   1.000000
   61       -0.999885   1.000000
   62       -0.972991   1.000000
   63       -0.876326   1.000000
   64       -0.845514   1.000000
   65       -0.776701   1.000000
   66       -0.682208   1.000000
   67       -0.553606   1.000000
   68       -0.502668   1.000000
   69       -0.493028   1.000000
   70       -0.333961   1.000000
   71       -0.231828   1.000000
   72       -0.212713   1.000000
   73       -0.174893   1.000000
   74       -0.131637   1.000000
   75       -0.086092   1.000000
   76        0.138601   1.000000
   77        0.334673   1.000000
   78        0.402504   1.000000
   79        0.431308   1.000000
   80        0.592806   1.000000
   81        0.814382   1.000000
   82        0.894885   1.000000
   83        0.944322   1.000000
   84        0.962365   1.000000
   85        1.170750   1.000000
   86        1.600055   1.000000
   87        1.799567   1.000000
   88        1.800338   1.000000
   89        1.839772   1.000000
   90        1.879077   1.000000
   91        1.883695   1.000000
   92        2.011714   1.000000
   93        2.067105   1.000000
   94        2.161838   1.000000
   95        2.169911   1.000000
   96        2.212664   1.000000
   97        2.224961   1.000000
   98        2.547285   1.000000
   99        2.764113   1.000168
  100        3.145008   1.023906
  101        3.246002   0.860990
  102        3.331497   0.547464
  103        3.425692   0.180220
  104        3.520508  -0.009422
  105        3.630736  -0.030222
  106        3.703025  -0.014375
  107        3.758577  -0.006138
  108        3.801359  -0.002775
  109        4.131540  -0.000000
  110        4.163663  -0.000000
  111        4.203489  -0.000000
  112        4.236427  -0.000000
  113        4.308960  -0.000000
  114        4.466501  -0.000000
  115        4.466601  -0.000000
  116        4.513847  -0.000000
  117        4.520496  -0.000000
  118        4.595342  -0.000000
  119        4.654165  -0.000000
  120        4.678308  -0.000000
  121        4.687615  -0.000000
  122        4.768880  -0.000000
  123        4.819269  -0.000000
  124        4.871247  -0.000000
  125        4.884820  -0.000000
  126        4.941219  -0.000000
  127        4.949503  -0.000000
  128        5.139347  -0.000000
  129        5.394559  -0.000000
  130        5.487485  -0.000000
  131        5.492303  -0.000000
  132        5.612738  -0.000000
  133        5.718237  -0.000000
  134        5.734850  -0.000000
  135        5.857754  -0.000000
  136        6.104543  -0.000000
  137        6.143322  -0.000000
  138        6.162992  -0.000000

  0.1111111E+00  0.3687552E-15  0.1262379E-14  0.2469136E-01
    1      -10.859001   1.000000
    2      -10.299864   1.000000
    3       -9.584760   1.000000
    4       -8.913854   1.000000
    5       -8.070314   1.000000
    6       -8.046045   1.000000
    7       -7.762708   1.000000
    8       -7.726743   1.000000
    9       -7.621514   1.000000
   10       -7.519210   1.000000
   11       -7.414072   1.000000
   12       -7.356909   1.000000
   13       -7.234392   1.000000
   14       -7.211887   1.000000
   15       -7.025072   1.000000
   16       -6.691037   1.000000
   17       -6.590628   1.000000
   18       -6.537144   1.000000
   19       -6.447272   1.000000
   20       -6.303736   1.000000
   21       -6.220897   1.000000
   22       -6.129791   1.000000
   23       -5.962068   1.000000
   24       -5.571097   1.000000
   25       -5.464950   1.000000
   26       -5.372537   1.000000
   27       -5.269380   1.000000
   28       -5.221123   1.000000
   29       -5.090703   1.000000
   30       -4.887519   1.000000
   31       -4.825212   1.000000
   32       -3.986560   1.000000
   33       -3.944638   1.000000
   34       -3.870019   1.000000
   35       -3.798137   1.000000
   36       -3.748591   1.000000
   37       -3.498499   1.000000
   38       -2.977973   1.000000
   39       -2.808523   1.000000
   40       -2.719985   1.000000
   41       -2.615479   1.000000
   42       -2.522327   1.000000
   43       -2.392128   1.000000
   44       -2.141365   1.000000
   45       -2.115798   1.000000
   46       -2.026821   1.000000
   47       -1.961914   1.000000
   48       -1.936720   1.000000
   49       -1.830538   1.000000
   50       -1.733809   1.000000
   51       -1.657731   1.000000
   52       -1.555988   1.000000
   53       -1.457530   1.000000
   54       -1.395883   1.000000
   55       -1.328267   1.000000
   56       -1.317051   1.000000
   57       -1.258538   1.000000
   58       -1.102642   1.000000
   59       -1.080872   1.000000
   60       -1.010988   1.000000
   61       -0.975276   1.000000
   62       -0.967855   1.000000
   63       -0.887029   1.000000
   64       -0.857238   1.000000
   65       -0.791424   1.000000
   66       -0.660383   1.000000
   67       -0.592450   1.000000
   68       -0.585174   1.000000
   69       -0.508972   1.000000
   70       -0.448581   1.000000
   71       -0.366817   1.000000
   72       -0.260317   1.000000
   73       -0.198243   1.000000
   74       -0.073970   1.000000
   75       -0.021672   1.000000
   76        0.119794   1.000000
   77        0.254489   1.000000
   78        0.324554   1.000000
   79        0.391553   1.000000
   80        0.564002   1.000000
   81        0.587346   1.000000
   82        0.678909   1.000000
   83        0.988220   1.000000
   84        1.019785   1.000000
   85        1.059315   1.000000
   86        1.464609   1.000000
   87        1.546437   1.000000
   88        1.653953   1.000000
   89        1.739530   1.000000
   90        1.820700   1.000000
   91        1.846184   1.000000
   92        2.040995   1.000000
   93        2.063396   1.000000
   94        2.127844   1.000000
   95        2.198829   1.000000
   96        2.235456   1.000000
   97        2.342237   1.000000
   98        2.664736   1.000009
   99        2.966247   1.011470
  100        3.127730   1.031263
  101        3.218980   0.928259
  102        3.349342   0.472054
  103        3.368326   0.392685
  104        3.447065   0.118241
  105        3.502029   0.010859
  106        3.735162  -0.009017
  107        3.907484  -0.000242
  108        4.016892  -0.000010
  109        4.138218  -0.000000
  110        4.145357  -0.000000
  111        4.195952  -0.000000
  112        4.259125  -0.000000
  113        4.312558  -0.000000
  114        4.380576  -0.000000
  115        4.450643  -0.000000
  116        4.483942  -0.000000
  117        4.526817  -0.000000
  118        4.547391  -0.000000
  119        4.589766  -0.000000
  120        4.601683  -0.000000
  121        4.678745  -0.000000
  122        4.738917  -0.000000
  123        4.772191  -0.000000
  124        4.839434  -0.000000
  125        4.853906  -0.000000
  126        4.926258  -0.000000
  127        4.936131  -0.000000
  128        5.114355  -0.000000
  129        5.326488  -0.000000
  130        5.395432  -0.000000
  131        5.547016  -0.000000
  132        5.552492  -0.000000
  133        5.602371  -0.000000
  134        5.767068  -0.000000
  135        5.799439  -0.000000
  136        5.915050  -0.000000
  137        5.997253  -0.000000
  138        6.225533  -0.000000

  0.2222222E+00  0.3503827E-15  0.1262379E-14  0.2469136E-01
    1      -10.688416   1.000000
    2      -10.145165   1.000000
    3       -9.460040   1.000000
    4       -8.814794   1.000000
    5       -8.373964   1.000000
    6       -8.225308   1.000000
    7       -8.101311   1.000000
    8       -7.931734   1.000000
    9       -7.737117   1.000000
   10       -7.618554   1.000000
   11       -7.562543   1.000000
   12       -7.539071   1.000000
   13       -7.448236   1.000000
   14       -7.386511   1.000000
   15       -7.337164   1.000000
   16       -6.754557   1.000000
   17       -6.530028   1.000000
   18       -6.418323   1.000000
   19       -6.191580   1.000000
   20       -6.129995   1.000000
   21       -5.950905   1.000000
   22       -5.874800   1.000000
   23       -5.467998   1.000000
   24       -5.384699   1.000000
   25       -5.303872   1.000000
   26       -5.272586   1.000000
   27       -5.142066   1.000000
   28       -5.058246   1.000000
   29       -4.684882   1.000000
   30       -4.626840   1.000000
   31       -4.599326   1.000000
   32       -3.826523   1.000000
   33       -3.785542   1.000000
   34       -3.754483   1.000000
   35       -3.647205   1.000000
   36       -3.332370   1.000000
   37       -3.112134   1.000000
   38       -2.959449   1.000000
   39       -2.829935   1.000000
   40       -2.716514   1.000000
   41       -2.675533   1.000000
   42       -2.578273   1.000000
   43       -2.541428   1.000000
   44       -2.503994   1.000000
   45       -2.435156   1.000000
   46       -2.091231   1.000000
   47       -2.048325   1.000000
   48       -1.956536   1.000000
   49       -1.829077   1.000000
   50       -1.699786   1.000000
   51       -1.675909   1.000000
   52       -1.583119   1.000000
   53       -1.568712   1.000000
   54       -1.489416   1.000000
   55       -1.382799   1.000000
   56       -1.316761   1.000000
   57       -1.306567   1.000000
   58       -1.234680   1.000000
   59       -1.199588   1.000000
   60       -1.072061   1.000000
   61       -0.979492   1.000000
   62       -0.956663   1.000000
   63       -0.922908   1.000000
   64       -0.888448   1.000000
   65       -0.872543   1.000000
   66       -0.848132   1.000000
   67       -0.748140   1.000000
   68       -0.703326   1.000000
   69       -0.591797   1.000000
   70       -0.563776   1.000000
   71       -0.472464   1.000000
   72       -0.319022   1.000000
   73       -0.256970   1.000000
   74       -0.111792   1.000000
   75       -0.076982   1.000000
   76       -0.020673   1.000000
   77        0.031904   1.000000
   78        0.126288   1.000000
   79        0.294275   1.000000
   80        0.493423   1.000000
   81        0.522189   1.000000
   82        0.673971   1.000000
   83        0.772779   1.000000
   84        0.918793   1.000000
   85        1.058108   1.000000
   86        1.147767   1.000000
   87        1.295063   1.000000
   88        1.506853   1.000000
   89        1.583260   1.000000
   90        1.677960   1.000000
   91        1.840127   1.000000
   92        1.846577   1.000000
   93        2.008885   1.000000
   94        2.011904   1.000000
   95        2.243788   1.000000
   96        2.366725   1.000000
   97        2.412568   1.000000
   98        2.486003   1.000000
   99        2.841828   1.001135
  100        2.986987   1.015262
  101        3.263779   0.806969
  102        3.312211   0.627498
  103        3.536656  -0.021680
  104        3.619911  -0.032276
  105        3.726852  -0.010245
  106        3.816310  -0.002047
  107        3.928381  -0.000139
  108        3.956097  -0.000064
  109        4.024851  -0.000008
  110        4.042451  -0.000004
  111        4.102755  -0.000001
  112        4.156602  -0.000000
  113        4.227189  -0.000000
  114        4.298175  -0.000000
  115        4.339624  -0.000000
  116        4.370723  -0.000000
  117        4.430948  -0.000000
  118        4.457072  -0.000000
  119        4.484292  -0.000000
  120        4.596363  -0.000000
  121        4.638234  -0.000000
  122        4.691345  -0.000000
  123        4.771326  -0.000000
  124        4.851303  -0.000000
  125        4.893437  -0.000000
  126        4.941916  -0.000000
  127        5.037112  -0.000000
  128        5.072646  -0.000000
  129        5.125138  -0.000000
  130        5.340564  -0.000000
  131        5.387815  -0.000000
  132        5.543268  -0.000000
  133        5.559803  -0.000000
  134        5.632583  -0.000000
  135        5.692163  -0.000000
  136        5.815121  -0.000000
  137        5.829727  -0.000000
  138        6.158068  -0.000000

  0.3333333E+00  0.3767071E-15  0.1262379E-14  0.2469136E-01
    1      -10.412040   1.000000
    2       -9.896304   1.000000
    3       -9.266719   1.000000
    4       -8.987574   1.000000
    5       -8.664287   1.000000
    6       -8.627558   1.000000
    7       -8.377545   1.000000
    8       -7.844028   1.000000
    9       -7.777027   1.000000
   10       -7.746677   1.000000
   11       -7.741208   1.000000
   12       -7.646266   1.000000
   13       -7.579628   1.000000
   14       -7.541697   1.000000
   15       -7.472312   1.000000
   16       -6.804361   1.000000
   17       -6.775765   1.000000
   18       -6.600348   1.000000
   19       -5.982681   1.000000
   20       -5.887124   1.000000
   21       -5.570220   1.000000
   22       -5.446865   1.000000
   23       -5.299489   1.000000
   24       -5.286027   1.000000
   25       -5.247120   1.000000
   26       -5.064677   1.000000
   27       -4.549578   1.000000
   28       -4.457176   1.000000
   29       -4.314688   1.000000
   30       -4.255290   1.000000
   31       -4.103827   1.000000
   32       -3.662598   1.000000
   33       -3.614717   1.000000
   34       -3.527440   1.000000
   35       -3.452030   1.000000
   36       -3.197042   1.000000
   37       -3.100734   1.000000
   38       -3.068749   1.000000
   39       -3.038693   1.000000
   40       -2.991688   1.000000
   41       -2.920526   1.000000
   42       -2.766486   1.000000
   43       -2.627158   1.000000
   44       -2.411230   1.000000
   45       -2.307953   1.000000
   46       -2.204656   1.000000
   47       -2.046367   1.000000
   48       -1.970258   1.000000
   49       -1.896092   1.000000
   50       -1.776559   1.000000
   51       -1.753231   1.000000
   52       -1.712031   1.000000
   53       -1.632356   1.000000
   54       -1.600977   1.000000
   55       -1.541513   1.000000
   56       -1.462614   1.000000
   57       -1.391741   1.000000
   58       -1.368412   1.000000
   59       -1.259613   1.000000
   60       -1.212004   1.000000
   61       -1.161796   1.000000
   62       -1.106291   1.000000
   63       -1.085853   1.000000
   64       -1.000117   1.000000
   65       -0.967717   1.000000
   66       -0.902789   1.000000
   67       -0.801003   1.000000
   68       -0.771564   1.000000
   69       -0.701101   1.000000
   70       -0.610993   1.000000
   71       -0.537108   1.000000
   72       -0.407832   1.000000
   73       -0.321164   1.000000
   74       -0.239762   1.000000
   75       -0.192018   1.000000
   76       -0.097967   1.000000
   77        0.000236   1.000000
   78        0.033602   1.000000
   79        0.144590   1.000000
   80        0.241335   1.000000
   81        0.448788   1.000000
   82        0.649247   1.000000
   83        0.722865   1.000000
   84        0.882759   1.000000
   85        0.956620   1.000000
   86        1.117233   1.000000
   87        1.251542   1.000000
   88        1.425476   1.000000
   89        1.511333   1.000000
   90        1.656303   1.000000
   91        1.684488   1.000000
   92        1.701361   1.000000
   93        1.893726   1.000000
   94        1.983359   1.000000
   95        2.061756   1.000000
   96        2.294052   1.000000
   97        2.332483   1.000000
   98        2.608791   1.000001
   99        2.696006   1.000024
  100        2.786747   1.000303
  101        3.172330   1.002185
  102        3.292812   0.704114
  103        3.377071   0.357056
  104        3.438313   0.142281
  105        3.598342  -0.035051
  106        3.655074  -0.024838
  107        3.730749  -0.009656
  108        3.811187  -0.002275
  109        3.876345  -0.000529
  110        3.947120  -0.000083
  111        4.022744  -0.000008
  112        4.066912  -0.000002
  113        4.128330  -0.000000
  114        4.200514  -0.000000
  115        4.251850  -0.000000
  116        4.360347  -0.000000
  117        4.374315  -0.000000
  118        4.452767  -0.000000
  119        4.472123  -0.000000
  120        4.572662  -0.000000
  121        4.593712  -0.000000
  122        4.685557  -0.000000
  123        4.852814  -0.000000
  124        4.888194  -0.000000
  125        4.930552  -0.000000
  126        5.030405  -0.000000
  127        5.066041  -0.000000
  128        5.149938  -0.000000
  129        5.216293  -0.000000
  130        5.278296  -0.000000
  131        5.387371  -0.000000
  132        5.531122  -0.000000
  133        5.556863  -0.000000
  134        5.678698  -0.000000
  135        5.801387  -0.000000
  136        5.815547  -0.000000
  137        5.868523  -0.000000
  138        6.104605  -0.000000

  0.4444444E+00  0.3698634E-15  0.1262379E-14  0.2469136E-01
    1      -10.053356   1.000000
    2       -9.591957   1.000000
    3       -9.487534   1.000000
    4       -9.152729   1.000000
    5       -8.980618   1.000000
    6       -8.657771   1.000000
    7       -8.407682   1.000000
    8       -8.090385   1.000000
    9       -7.887849   1.000000
   10       -7.838270   1.000000
   11       -7.730831   1.000000
   12       -7.610787   1.000000
   13       -7.591883   1.000000
   14       -7.512982   1.000000
   15       -7.464866   1.000000
   16       -7.147721   1.000000
   17       -6.821420   1.000000
   18       -6.654763   1.000000
   19       -5.892415   1.000000
   20       -5.785416   1.000000
   21       -5.391125   1.000000
   22       -5.182507   1.000000
   23       -5.176613   1.000000
   24       -5.060478   1.000000
   25       -5.008476   1.000000
   26       -4.957408   1.000000
   27       -4.118927   1.000000
   28       -3.969559   1.000000
   29       -3.884625   1.000000
   30       -3.731649   1.000000
   31       -3.675374   1.000000
   32       -3.653306   1.000000
   33       -3.571851   1.000000
   34       -3.544285   1.000000
   35       -3.439820   1.000000
   36       -3.298694   1.000000
   37       -3.220376   1.000000
   38       -3.197749   1.000000
   39       -3.140067   1.000000
   40       -3.123835   1.000000
   41       -3.016037   1.000000
   42       -2.911791   1.000000
   43       -2.864930   1.000000
   44       -2.682398   1.000000
   45       -2.411582   1.000000
   46       -2.211342   1.000000
   47       -2.054694   1.000000
   48       -2.033183   1.000000
   49       -1.927753   1.000000
   50       -1.875173   1.000000
   51       -1.757110   1.000000
   52       -1.734569   1.000000
   53       -1.698756   1.000000
   54       -1.594836   1.000000
   55       -1.528195   1.000000
   56       -1.476635   1.000000
   57       -1.445104   1.000000
   58       -1.411806   1.000000
   59       -1.293245   1.000000
   60       -1.275128   1.000000
   61       -1.255631   1.000000
   62       -1.196333   1.000000
   63       -1.149562   1.000000
   64       -1.117028   1.000000
   65       -1.075546   1.000000
   66       -1.035456   1.000000
   67       -0.877164   1.000000
   68       -0.791886   1.000000
   69       -0.679356   1.000000
   70       -0.657932   1.000000
   71       -0.628148   1.000000
   72       -0.455246   1.000000
   73       -0.355758   1.000000
   74       -0.310127   1.000000
   75       -0.200870   1.000000
   76       -0.149508   1.000000
   77       -0.022452   1.000000
   78       -0.001320   1.000000
   79        0.047743   1.000000
   80        0.124715   1.000000
   81        0.221601   1.000000
   82        0.672592   1.000000
   83        0.721557   1.000000
   84        0.771305   1.000000
   85        1.032493   1.000000
   86        1.079706   1.000000
   87        1.252431   1.000000
   88        1.447307   1.000000
   89        1.474322   1.000000
   90        1.570735   1.000000
   91        1.690946   1.000000
   92        1.751133   1.000000
   93        1.912665   1.000000
   94        1.933252   1.000000
   95        2.026408   1.000000
   96        2.146669   1.000000
   97        2.335217   1.000000
   98        2.633595   1.000003
   99        2.674646   1.000012
  100        2.787787   1.000311
  101        2.865524   1.001898
  102        2.993102   1.016501
  103        3.165664   1.008777
  104        3.298347   0.682783
  105        3.390971   0.302323
  106        3.519669  -0.008653
  107        3.576070  -0.034896
  108        3.724518  -0.010610
  109        3.786347  -0.003714
  110        3.814840  -0.002111
  111        3.903073  -0.000271
  112        3.990789  -0.000023
  113        4.000684  -0.000017
  114        4.115270  -0.000000
  115        4.157129  -0.000000
  116        4.272751  -0.000000
  117        4.349231  -0.000000
  118        4.376018  -0.000000
  119        4.438480  -0.000000
  120        4.536189  -0.000000
  121        4.650339  -0.000000
  122        4.859694  -0.000000
  123        4.900656  -0.000000
  124        4.916451  -0.000000
  125        5.051846  -0.000000
  126        5.111047  -0.000000
  127        5.210375  -0.000000
  128        5.284620  -0.000000
  129        5.323630  -0.000000
  130        5.379536  -0.000000
  131        5.527441  -0.000000
  132        5.591887  -0.000000
  133        5.731886  -0.000000
  134        5.773304  -0.000000
  135        5.793806  -0.000000
  136        5.886469  -0.000000
  137        5.917047  -0.000000
  138        5.957879  -0.000000

  0.3742002E-15  0.1111111E+00  0.1262379E-14  0.2469136E-01
    1      -10.859001   1.000000
    2      -10.299867   1.000000
    3       -9.584773   1.000000
    4       -8.913881   1.000000
    5       -8.070273   1.000000
    6       -8.046056   1.000000
    7       -7.762759   1.000000
    8       -7.726773   1.000000
    9       -7.621549   1.000000
   10       -7.519083   1.000000
   11       -7.414039   1.000000
   12       -7.357233   1.000000
   13       -7.234062   1.000000
   14       -7.211918   1.000000
   15       -7.024751   1.000000
   16       -6.691275   1.000000
   17       -6.590924   1.000000
   18       -6.537055   1.000000
   19       -6.446929   1.000000
   20       -6.303556   1.000000
   21       -6.220725   1.000000
   22       -6.130253   1.000000
   23       -5.962205   1.000000
   24       -5.570713   1.000000
   25       -5.464947   1.000000
   26       -5.372795   1.000000
   27       -5.269115   1.000000
   28       -5.221560   1.000000
   29       -5.090517   1.000000
   30       -4.888114   1.000000
   31       -4.825228   1.000000
   32       -3.986520   1.000000
   33       -3.944576   1.000000
   34       -3.871029   1.000000
   35       -3.797177   1.000000
   36       -3.747489   1.000000
   37       -3.499151   1.000000
   38       -2.978058   1.000000
   39       -2.808560   1.000000
   40       -2.719827   1.000000
   41       -2.615498   1.000000
   42       -2.522433   1.000000
   43       -2.391974   1.000000
   44       -2.141418   1.000000
   45       -2.115838   1.000000
   46       -2.027168   1.000000
   47       -1.961845   1.000000
   48       -1.936422   1.000000
   49       -1.830521   1.000000
   50       -1.733704   1.000000
   51       -1.657680   1.000000
   52       -1.556059   1.000000
   53       -1.457520   1.000000
   54       -1.395719   1.000000
   55       -1.328001   1.000000
   56       -1.316703   1.000000
   57       -1.258354   1.000000
   58       -1.102495   1.000000
   59       -1.081585   1.000000
   60       -1.011087   1.000000
   61       -0.975422   1.000000
   62       -0.968640   1.000000
   63       -0.886575   1.000000
   64       -0.857775   1.000000
   65       -0.792271   1.000000
   66       -0.659992   1.000000
   67       -0.592560   1.000000
   68       -0.584658   1.000000
   69       -0.509128   1.000000
   70       -0.447533   1.000000
   71       -0.367196   1.000000
   72       -0.260269   1.000000
   73       -0.198657   1.000000
   74       -0.074012   1.000000
   75       -0.021926   1.000000
   76        0.120196   1.000000
   77        0.254683   1.000000
   78        0.325457   1.000000
   79        0.390473   1.000000
   80        0.564739   1.000000
   81        0.587584   1.000000
   82        0.678437   1.000000
   83        0.988521   1.000000
   84        1.019527   1.000000
   85        1.058954   1.000000
   86        1.464371   1.000000
   87        1.546960   1.000000
   88        1.653476   1.000000
   89        1.739421   1.000000
   90        1.820912   1.000000
   91        1.846447   1.000000
   92        2.041175   1.000000
   93        2.062925   1.000000
   94        2.128161   1.000000
   95        2.198580   1.000000
   96        2.235288   1.000000
   97        2.342079   1.000000
   98        2.664947   1.000009
   99        2.966718   1.011549
  100        3.127845   1.031228
  101        3.219075   0.928054
  102        3.348802   0.474334
  103        3.368855   0.390510
  104        3.447249   0.117756
  105        3.501854   0.011086
  106        3.735753  -0.008934
  107        3.907211  -0.000244
  108        4.018676  -0.000010
  109        4.135079  -0.000000
  110        4.145104  -0.000000
  111        4.196329  -0.000000
  112        4.259741  -0.000000
  113        4.312136  -0.000000
  114        4.380759  -0.000000
  115        4.450695  -0.000000
  116        4.483529  -0.000000
  117        4.526456  -0.000000
  118        4.548009  -0.000000
  119        4.589570  -0.000000
  120        4.601804  -0.000000
  121        4.678688  -0.000000
  122        4.740169  -0.000000
  123        4.772240  -0.000000
  124        4.839372  -0.000000
  125        4.854359  -0.000000
  126        4.926617  -0.000000
  127        4.935511  -0.000000
  128        5.114810  -0.000000
  129        5.325792  -0.000000
  130        5.395198  -0.000000
  131        5.546960  -0.000000
  132        5.553270  -0.000000
  133        5.602125  -0.000000
  134        5.767261  -0.000000
  135        5.799821  -0.000000
  136        5.914500  -0.000000
  137        5.997493  -0.000000
  138        6.226188  -0.000000

  0.1111111E+00  0.1111111E+00  0.1262379E-14  0.2469136E-01
    1      -10.744608   1.000000
    2      -10.196098   1.000000
    3       -9.500965   1.000000
    4       -8.848526   1.000000
    5       -8.135077   1.000000
    6       -8.112663   1.000000
    7       -8.006076   1.000000
    8       -7.966376   1.000000
    9       -7.825797   1.000000
   10       -7.750908   1.000000
   11       -7.665879   1.000000
   12       -7.525530   1.000000
   13       -7.292086   1.000000
   14       -7.184404   1.000000
   15       -6.926643   1.000000
   16       -6.806868   1.000000
   17       -6.748295   1.000000
   18       -6.389224   1.000000
   19       -6.309190   1.000000
   20       -6.171049   1.000000
   21       -6.083665   1.000000
   22       -5.749378   1.000000
   23       -5.575918   1.000000
   24       -5.452116   1.000000
   25       -5.428322   1.000000
   26       -5.276972   1.000000
   27       -5.166012   1.000000
   28       -5.064293   1.000000
   29       -4.885501   1.000000
   30       -4.865827   1.000000
   31       -4.678516   1.000000
   32       -4.078482   1.000000
   33       -3.763835   1.000000
   34       -3.599713   1.000000
   35       -3.558424   1.000000
   36       -3.482406   1.000000
   37       -3.330355   1.000000
   38       -2.992922   1.000000
   39       -2.845901   1.000000
   40       -2.697548   1.000000
   41       -2.629144   1.000000
   42       -2.585477   1.000000
   43       -2.519469   1.000000
   44       -2.442517   1.000000
   45       -2.143874   1.000000
   46       -2.063650   1.000000
   47       -1.993519   1.000000
   48       -1.960209   1.000000
   49       -1.784410   1.000000
   50       -1.760690   1.000000
   51       -1.689138   1.000000
   52       -1.588658   1.000000
   53       -1.531891   1.000000
   54       -1.471284   1.000000
   55       -1.429808   1.000000
   56       -1.337608   1.000000
   57       -1.300558   1.000000
   58       -1.173440   1.000000
   59       -1.112453   1.000000
   60       -1.051929   1.000000
   61       -1.034045   1.000000
   62       -0.986359   1.000000