   72   72    1    1
  0.2168974E+02  0.1053953E-08  0.6141200E-09  0.2412750E-08  0.5000000E-15
   1.0000000000000000E-004
  CAR 
 Name                                    
    267     23    176

  0.3742002E-15  0.3742002E-15  0.1262379E-14  0.2222222E-01
    1      -13.895593   1.000000
    2      -12.904052   1.000000
    3      -12.757202   1.000000
    4      -12.362535   1.000000
    5      -11.788062   1.000000
    6      -11.621858   1.000000
    7      -11.566209   1.000000
    8      -11.548519   1.000000
    9      -11.387627   1.000000
   10      -11.153750   1.000000
   11      -11.020484   1.000000
   12      -10.977613   1.000000
   13      -10.760620   1.000000
   14      -10.379563   1.000000
   15      -10.245215   1.000000
   16      -10.159898   1.000000
   17      -10.077118   1.000000
   18      -10.029760   1.000000
   19       -9.796141   1.000000
   20       -9.582618   1.000000
   21       -9.541303   1.000000
   22       -9.451368   1.000000
   23       -9.329864   1.000000
   24       -8.923749   1.000000
   25       -8.856237   1.000000
   26       -8.718004   1.000000
   27       -8.579167   1.000000
   28       -8.365681   1.000000
   29       -8.253714   1.000000
   30       -8.062253   1.000000
   31       -7.971187   1.000000
   32       -7.772937   1.000000
   33       -7.442101   1.000000
   34       -7.404830   1.000000
   35       -7.251647   1.000000
   36       -7.116726   1.000000
   37       -7.012056   1.000000
   38       -6.871468   1.000000
   39       -6.865403   1.000000
   40       -6.697513   1.000000
   41       -6.672335   1.000000
   42       -6.593571   1.000000
   43       -6.445502   1.000000
   44       -6.398198   1.000000
   45       -6.321554   1.000000
   46       -6.215424   1.000000
   47       -6.067245   1.000000
   48       -5.967095   1.000000
   49       -5.929225   1.000000
   50       -5.918830   1.000000
   51       -5.745987   1.000000
   52       -5.678297   1.000000
   53       -5.650555   1.000000
   54       -5.592076   1.000000
   55       -5.519566   1.000000
   56       -5.479683   1.000000
   57       -5.367049   1.000000
   58       -5.290662   1.000000
   59       -5.179475   1.000000
   60       -5.111563   1.000000
   61       -5.081515   1.000000
   62       -4.996625   1.000000
   63       -4.910379   1.000000
   64       -4.756549   1.000000
   65       -4.649752   1.000000
   66       -4.605142   1.000000
   67       -4.531170   1.000000
   68       -4.490497   1.000000
   69       -4.445197   1.000000
   70       -4.407827   1.000000
   71       -4.373137   1.000000
   72       -4.282829   1.000000
   73       -4.181535   1.000000
   74       -4.134552   1.000000
   75       -4.096815   1.000000
   76       -4.048061   1.000000
   77       -3.959807   1.000000
   78       -3.849196   1.000000
   79       -3.808650   1.000000
   80       -3.711237   1.000000
   81       -3.647461   1.000000
   82       -3.636258   1.000000
   83       -3.522178   1.000000
   84       -3.511529   1.000000
   85       -3.356767   1.000000
   86       -3.280358   1.000000
   87       -3.265190   1.000000
   88       -3.228471   1.000000
   89       -3.205543   1.000000
   90       -3.139951   1.000000
   91       -3.114279   1.000000
   92       -3.056796   1.000000
   93       -2.951916   1.000000
   94       -2.870757   1.000000
   95       -2.792959   1.000000
   96       -2.752282   1.000000
   97       -2.629495   1.000000
   98       -2.579648   1.000000
   99       -2.561442   1.000000
  100       -2.455727   1.000000
  101       -2.367296   1.000000
  102       -2.326082   1.000000
  103       -2.251615   1.000000
  104       -2.228387   1.000000
  105       -2.087182   1.000000
  106       -2.080653   1.000000
  107       -2.062638   1.000000
  108       -2.037835   1.000000
  109       -1.908658   1.000000
  110       -1.904112   1.000000
  111       -1.898618   1.000000
  112       -1.717166   1.000000
  113       -1.680968   1.000000
  114       -1.632800   1.000000
  115       -1.353946   1.000000
  116       -1.247123   1.000000
  117       -1.225587   1.000000
  118       -1.162102   1.000000
  119       -1.044197   1.000000
  120       -0.947348   1.000000
  121       -0.853991   1.000000
  122       -0.809895   1.000000
  123       -0.639548   1.000000
  124       -0.548804   1.000001
  125       -0.425300   1.000042
  126       -0.383503   1.000136
  127       -0.249276   1.003160
  128       -0.226869   1.004814
  129       -0.089866   1.029264
  130       -0.085110   1.030253
  131        0.038296   0.995517
  132        0.086290   0.911892
  133        0.137172   0.761608
  134        0.203687   0.495996
  135        0.279338   0.200739
  136        0.286028   0.179186
  137        0.340217   0.044610
  138        0.383308  -0.011885
  139        0.448921  -0.035452
  140        0.512138  -0.025517
  141        0.590894  -0.009635
  142        0.733302  -0.000570
  143        0.737094  -0.000520
  144        0.774308  -0.000202
  145        0.873713  -0.000011
  146        0.965599  -0.000000
  147        1.045072  -0.000000
  148        1.133387  -0.000000
  149        1.155633  -0.000000
  150        1.208876  -0.000000
  151        1.264341  -0.000000
  152        1.268797  -0.000000
  153        1.291968  -0.000000
  154        1.330641  -0.000000
  155        1.367515  -0.000000
  156        1.409764  -0.000000
  157        1.432031  -0.000000
  158        1.455881  -0.000000
  159        1.498727  -0.000000
  160        1.528949  -0.000000
  161        1.545911  -0.000000
  162        1.587584  -0.000000
  163        1.609133  -0.000000
  164        1.685258  -0.000000
  165        1.708226  -0.000000
  166        1.736134  -0.000000
  167        1.828929  -0.000000
  168        1.868229  -0.000000
  169        1.903773  -0.000000
  170        1.973206  -0.000000
  171        2.064243  -0.000000
  172        2.171308  -0.000000
  173        2.242133  -0.000000
  174        2.715943  -0.000000
  175        3.625518  -0.000000
  176        4.572742  -0.000000

  0.2000000E+00  0.3742002E-15  0.1262379E-14  0.4444444E-01
    1      -13.855449   1.000000
    2      -13.142355   1.000000
    3      -12.645298   1.000000
    4      -12.121619   1.000000
    5      -11.935672   1.000000
    6      -11.779469   1.000000
    7      -11.597325   1.000000
    8      -11.355551   1.000000
    9      -11.229285   1.000000
   10      -11.164142   1.000000
   11      -10.987117   1.000000
   12      -10.886411   1.000000
   13      -10.752074   1.000000
   14      -10.563264   1.000000
   15      -10.425331   1.000000
   16      -10.265986   1.000000
   17      -10.154578   1.000000
   18      -10.071422   1.000000
   19       -9.741849   1.000000
   20       -9.637836   1.000000
   21       -9.410582   1.000000
   22       -9.365925   1.000000
   23       -9.282090   1.000000
   24       -9.008057   1.000000
   25       -8.879409   1.000000
   26       -8.765169   1.000000
   27       -8.348091   1.000000
   28       -8.242399   1.000000
   29       -8.097960   1.000000
   30       -8.012145   1.000000
   31       -7.977543   1.000000
   32       -7.909483   1.000000
   33       -7.443440   1.000000
   34       -7.388530   1.000000
   35       -7.359879   1.000000
   36       -7.199384   1.000000
   37       -7.072915   1.000000
   38       -7.020471   1.000000
   39       -6.805924   1.000000
   40       -6.750049   1.000000
   41       -6.654664   1.000000
   42       -6.580711   1.000000
   43       -6.533977   1.000000
   44       -6.471356   1.000000
   45       -6.336888   1.000000
   46       -6.156498   1.000000
   47       -6.021102   1.000000
   48       -5.944075   1.000000
   49       -5.911412   1.000000
   50       -5.844920   1.000000
   51       -5.793888   1.000000
   52       -5.694175   1.000000
   53       -5.616409   1.000000
   54       -5.608523   1.000000
   55       -5.448388   1.000000
   56       -5.376720   1.000000
   57       -5.336657   1.000000
   58       -5.281150   1.000000
   59       -5.166179   1.000000
   60       -5.139406   1.000000
   61       -5.079136   1.000000
   62       -4.999951   1.000000
   63       -4.930676   1.000000
   64       -4.736909   1.000000
   65       -4.688983   1.000000
   66       -4.598299   1.000000
   67       -4.539003   1.000000
   68       -4.459246   1.000000
   69       -4.438940   1.000000
   70       -4.383387   1.000000
   71       -4.334654   1.000000
   72       -4.279907   1.000000
   73       -4.219372   1.000000
   74       -4.172461   1.000000
   75       -4.086745   1.000000
   76       -4.031219   1.000000
   77       -3.941340   1.000000
   78       -3.831322   1.000000
   79       -3.783900   1.000000
   80       -3.750587   1.000000
   81       -3.704179   1.000000
   82       -3.653430   1.000000
   83       -3.536090   1.000000
   84       -3.442802   1.000000
   85       -3.354176   1.000000
   86       -3.338433   1.000000
   87       -3.314668   1.000000
   88       -3.250451   1.000000
   89       -3.205832   1.000000
   90       -3.176399   1.000000
   91       -3.066130   1.000000
   92       -3.038880   1.000000
   93       -2.933767   1.000000
   94       -2.911293   1.000000
   95       -2.882720   1.000000
   96       -2.741009   1.000000
   97       -2.651481   1.000000
   98       -2.612080   1.000000
   99       -2.477092   1.000000
  100       -2.444415   1.000000
  101       -2.416232   1.000000
  102       -2.335293   1.000000
  103       -2.221043   1.000000
  104       -2.181936   1.000000
  105       -2.098364   1.000000
  106       -2.064381   1.000000
  107       -2.016352   1.000000
  108       -1.980905   1.000000
  109       -1.909506   1.000000
  110       -1.874149   1.000000
  111       -1.808860   1.000000
  112       -1.743693   1.000000
  113       -1.669907   1.000000
  114       -1.557710   1.000000
  115       -1.381657   1.000000
  116       -1.276697   1.000000
  117       -1.242912   1.000000
  118       -1.169633   1.000000
  119       -1.087944   1.000000
  120       -0.993108   1.000000
  121       -0.903469   1.000000
  122       -0.842155   1.000000
  123       -0.679191   1.000000
  124       -0.594821   1.000000
  125       -0.412448   1.000061
  126       -0.359544   1.000258
  127       -0.268522   1.002148
  128       -0.255425   1.002800
  129       -0.161675   1.013597
  130       -0.141139   1.017710
  131       -0.030134   1.034849
  132        0.064196   0.957308
  133        0.118141   0.824928
  134        0.196797   0.525141
  135        0.293484   0.156371
  136        0.342494   0.040558
  137        0.347166   0.032640
  138        0.448184  -0.035457
  139        0.483167  -0.031694
  140        0.539239  -0.019317
  141        0.578530  -0.011587
  142        0.700777  -0.001210
  143        0.779935  -0.000174
  144        0.831118  -0.000041
  145        0.912161  -0.000003
  146        1.031807  -0.000000
  147        1.047241  -0.000000
  148        1.107945  -0.000000
  149        1.156912  -0.000000
  150        1.189189  -0.000000
  151        1.229866  -0.000000
  152        1.284206  -0.000000
  153        1.315513  -0.000000
  154        1.356534  -0.000000
  155        1.399641  -0.000000
  156        1.429251  -0.000000
  157        1.455326  -0.000000
  158        1.486075  -0.000000
  159        1.509545  -0.000000
  160        1.540521  -0.000000
  161        1.587803  -0.000000
  162        1.600778  -0.000000
  163        1.652781  -0.000000
  164        1.680999  -0.000000
  165        1.720075  -0.000000
  166        1.775615  -0.000000
  167        1.830573  -0.000000
  168        1.880491  -0.000000
  169        1.934331  -0.000000
  170        2.001109  -0.000000
  171        2.134861  -0.000000
  172        2.165985  -0.000000
  173        2.267117  -0.000000
  174        2.390961  -0.000000
  175        3.391332  -0.000000
  176        4.445554  -0.000000

  0.4000000E+00  0.3742002E-15  0.1262379E-14  0.4444444E-01
    1      -13.755652   1.000000
    2      -13.394494   1.000000
    3      -12.527704   1.000000
    4      -12.196952   1.000000
    5      -11.762193   1.000000
    6      -11.651674   1.000000
    7      -11.635830   1.000000
    8      -11.317988   1.000000
    9      -11.177792   1.000000
   10      -11.098119   1.000000
   11      -11.011584   1.000000
   12      -10.916404   1.000000
   13      -10.741454   1.000000
   14      -10.638060   1.000000
   15      -10.544752   1.000000
   16      -10.449052   1.000000
   17      -10.140142   1.000000
   18      -10.055815   1.000000
   19       -9.956673   1.000000
   20       -9.781749   1.000000
   21       -9.401693   1.000000
   22       -9.321800   1.000000
   23       -9.135994   1.000000
   24       -8.920615   1.000000
   25       -8.801174   1.000000
   26       -8.660131   1.000000
   27       -8.329903   1.000000
   28       -8.144599   1.000000
   29       -8.001352   1.000000
   30       -7.874053   1.000000
   31       -7.787154   1.000000
   32       -7.714619   1.000000
   33       -7.641916   1.000000
   34       -7.572937   1.000000
   35       -7.446177   1.000000
   36       -7.328294   1.000000
   37       -7.228103   1.000000
   38       -7.132128   1.000000
   39       -7.051858   1.000000
   40       -6.822215   1.000000
   41       -6.663613   1.000000
   42       -6.563770   1.000000
   43       -6.464752   1.000000
   44       -6.401074   1.000000
   45       -6.289984   1.000000
   46       -6.117589   1.000000
   47       -6.032343   1.000000
   48       -5.952168   1.000000
   49       -5.935991   1.000000
   50       -5.809601   1.000000
   51       -5.748371   1.000000
   52       -5.715789   1.000000
   53       -5.583912   1.000000
   54       -5.510208   1.000000
   55       -5.470187   1.000000
   56       -5.391383   1.000000
   57       -5.332005   1.000000
   58       -5.227700   1.000000
   59       -5.181767   1.000000
   60       -5.094877   1.000000
   61       -5.027455   1.000000
   62       -4.946648   1.000000
   63       -4.896662   1.000000
   64       -4.765992   1.000000
   65       -4.653336   1.000000
   66       -4.616146   1.000000
   67       -4.552123   1.000000
   68       -4.490581   1.000000
   69       -4.434053   1.000000
   70       -4.385991   1.000000
   71       -4.327272   1.000000
   72       -4.248988   1.000000
   73       -4.215699   1.000000
   74       -4.142871   1.000000
   75       -4.056510   1.000000
   76       -3.975312   1.000000
   77       -3.883397   1.000000
   78       -3.865536   1.000000
   79       -3.833071   1.000000
   80       -3.807111   1.000000
   81       -3.736145   1.000000
   82       -3.624160   1.000000
   83       -3.559052   1.000000
   84       -3.480765   1.000000
   85       -3.429984   1.000000
   86       -3.396204   1.000000
   87       -3.338584   1.000000
   88       -3.278256   1.000000
   89       -3.161310   1.000000
   90       -3.138151   1.000000
   91       -3.057921   1.000000
   92       -3.047481   1.000000
   93       -3.020530   1.000000
   94       -2.879774   1.000000
   95       -2.862947   1.000000
   96       -2.806032   1.000000
   97       -2.781557   1.000000
   98       -2.599606   1.000000
   99       -2.541327   1.000000
  100       -2.475043   1.000000
  101       -2.429336   1.000000
  102       -2.204855   1.000000
  103       -2.180066   1.000000
  104       -2.110098   1.000000
  105       -2.076883   1.000000
  106       -1.974956   1.000000
  107       -1.933352   1.000000
  108       -1.904714   1.000000
  109       -1.883430   1.000000
  110       -1.798155   1.000000
  111       -1.757197   1.000000
  112       -1.667948   1.000000
  113       -1.635632   1.000000
  114       -1.529424   1.000000
  115       -1.487611   1.000000
  116       -1.374496   1.000000
  117       -1.298578   1.000000
  118       -1.233876   1.000000
  119       -1.052176   1.000000
  120       -1.029836   1.000000
  121       -0.950786   1.000000
  122       -0.894254   1.000000
  123       -0.761369   1.000000
  124       -0.692413   1.000000
  125       -0.438223   1.000028
  126       -0.412134   1.000061
  127       -0.311952   1.000829
  128       -0.272445   1.001980
  129       -0.244138   1.003490
  130       -0.215766   1.005862
  131       -0.073765   1.032392
  132        0.060719   0.963354
  133        0.174070   0.619947
  134        0.229276   0.388811
  135        0.262362   0.259720
  136        0.334124   0.056078
  137        0.399461  -0.023340
  138        0.425890  -0.033344
  139        0.492310  -0.029901
  140        0.556112  -0.015737
  141        0.680935  -0.001859
  142        0.741972  -0.000461
  143        0.828232  -0.000045
  144        0.893415  -0.000006
  145        0.927130  -0.000002
  146        0.958680  -0.000001
  147        1.058305  -0.000000
  148        1.159114  -0.000000
  149        1.208234  -0.000000
  150        1.241915  -0.000000
  151        1.274893  -0.000000
  152        1.294330  -0.000000
  153        1.341808  -0.000000
  154        1.376061  -0.000000
  155        1.407398  -0.000000
  156        1.436778  -0.000000
  157        1.468635  -0.000000
  158        1.496482  -0.000000
  159        1.530738  -0.000000
  160        1.569217  -0.000000
  161        1.611672  -0.000000
  162        1.671134  -0.000000
  163        1.694309  -0.000000
  164        1.749744  -0.000000
  165        1.763967  -0.000000
  166        1.804384  -0.000000
  167        1.896334  -0.000000
  168        1.958892  -0.000000
  169        1.987314  -0.000000
  170        2.068000  -0.000000
  171        2.093532  -0.000000
  172        2.231086  -0.000000
  173        2.421681  -0.000000
  174        2.878582  -0.000000
  175        4.461485  -0.000000
  176        4.850757  -0.000000

  0.3742002E-15  0.1111111E+00  0.1262379E-14  0.4444444E-01
    1      -13.849935   1.000000
    2      -12.865002   1.000000
    3      -12.722666   1.000000
    4      -12.331670   1.000000
    5      -11.883079   1.000000
    6      -11.605065   1.000000
    7      -11.580831   1.000000
    8      -11.529381   1.000000
    9      -11.433319   1.000000
   10      -11.177552   1.000000
   11      -11.030297   1.000000
   12      -10.950307   1.000000
   13      -10.789445   1.000000
   14      -10.378505   1.000000
   15      -10.225380   1.000000
   16      -10.175421   1.000000
   17      -10.072166   1.000000
   18      -10.024264   1.000000
   19       -9.764797   1.000000
   20       -9.609570   1.000000
   21       -9.528680   1.000000
   22       -9.459054   1.000000
   23       -9.321912   1.000000
   24       -8.958237   1.000000
   25       -8.870643   1.000000
   26       -8.702440   1.000000
   27       -8.560667   1.000000
   28       -8.385832   1.000000
   29       -8.253107   1.000000
   30       -8.083535   1.000000
   31       -7.832380   1.000000
   32       -7.782341   1.000000
   33       -7.531041   1.000000
   34       -7.378059   1.000000
   35       -7.336367   1.000000
   36       -7.172315   1.000000
   37       -7.071162   1.000000
   38       -6.860320   1.000000
   39       -6.828650   1.000000
   40       -6.682783   1.000000
   41       -6.633964   1.000000
   42       -6.573363   1.000000
   43       -6.416241   1.000000
   44       -6.387235   1.000000
   45       -6.291313   1.000000
   46       -6.210738   1.000000
   47       -6.075938   1.000000
   48       -5.971650   1.000000
   49       -5.938327   1.000000
   50       -5.877537   1.000000
   51       -5.761679   1.000000
   52       -5.673565   1.000000
   53       -5.637173   1.000000
   54       -5.592496   1.000000
   55       -5.533760   1.000000
   56       -5.444296   1.000000
   57       -5.284451   1.000000
   58       -5.243388   1.000000
   59       -5.183152   1.000000
   60       -5.104331   1.000000
   61       -5.082172   1.000000
   62       -4.955060   1.000000
   63       -4.884935   1.000000
   64       -4.748985   1.000000
   65       -4.655888   1.000000
   66       -4.598528   1.000000
   67       -4.565366   1.000000
   68       -4.510424   1.000000
   69       -4.462092   1.000000
   70       -4.404269   1.000000
   71       -4.375704   1.000000
   72       -4.260700   1.000000
   73       -4.178006   1.000000
   74       -4.105973   1.000000
   75       -4.087209   1.000000
   76       -4.042780   1.000000
   77       -3.969435   1.000000
   78       -3.849506   1.000000
   79       -3.814235   1.000000
   80       -3.743963   1.000000
   81       -3.719360   1.000000
   82       -3.634288   1.000000
   83       -3.577135   1.000000
   84       -3.513955   1.000000
   85       -3.409392   1.000000
   86       -3.391149   1.000000
   87       -3.307120   1.000000
   88       -3.208692   1.000000
   89       -3.174863   1.000000
   90       -3.137829   1.000000
   91       -3.084064   1.000000
   92       -3.040575   1.000000
   93       -2.975608   1.000000
   94       -2.935203   1.000000
   95       -2.840008   1.000000
   96       -2.766184   1.000000
   97       -2.639164   1.000000
   98       -2.596400   1.000000
   99       -2.546663   1.000000
  100       -2.461093   1.000000
  101       -2.424167   1.000000
  102       -2.319648   1.000000
  103       -2.271580   1.000000
  104       -2.213990   1.000000
  105       -2.177990   1.000000
  106       -2.072224   1.000000
  107       -2.060553   1.000000
  108       -2.009245   1.000000
  109       -1.901766   1.000000
  110       -1.875429   1.000000
  111       -1.831125   1.000000
  112       -1.754515   1.000000
  113       -1.607752   1.000000
  114       -1.572790   1.000000
  115       -1.363113   1.000000
  116       -1.284360   1.000000
  117       -1.263578   1.000000
  118       -1.138366   1.000000
  119       -1.102067   1.000000
  120       -0.934376   1.000000
  121       -0.840127   1.000000
  122       -0.770301   1.000000
  123       -0.662623   1.000000
  124       -0.582280   1.000000
  125       -0.478697   1.000008
  126       -0.364202   1.000228
  127       -0.234675   1.004172
  128       -0.200475   1.007587
  129       -0.172017   1.011761
  130       -0.107299   1.025369
  131       -0.020997   1.033465
  132        0.052391   0.976653
  133        0.169372   0.639042
  134        0.232930   0.373858
  135        0.260349   0.267091
  136        0.331889   0.060515
  137        0.366265   0.005581
  138        0.417053  -0.031048
  139        0.520021  -0.023695
  140        0.548385  -0.017335
  141        0.644830  -0.003823
  142        0.695148  -0.001370
  143        0.801232  -0.000097
  144        0.845342  -0.000027
  145        0.883020  -0.000008
  146        0.960217  -0.000001
  147        1.006351  -0.000000
  148        1.060412  -0.000000
  149        1.146095  -0.000000
  150        1.202035  -0.000000
  151        1.238661  -0.000000
  152        1.271575  -0.000000
  153        1.282681  -0.000000
  154        1.331502  -0.000000
  155        1.372634  -0.000000
  156        1.395451  -0.000000
  157        1.414166  -0.000000
  158        1.473089  -0.000000
  159        1.489744  -0.000000
  160        1.505256  -0.000000
  161        1.575339  -0.000000
  162        1.580624  -0.000000
  163        1.587921  -0.000000
  164        1.637495  -0.000000
  165        1.686729  -0.000000
  166        1.762871  -0.000000
  167        1.792456  -0.000000
  168        1.832914  -0.000000
  169        1.910970  -0.000000
  170        1.962420  -0.000000
  171        1.988542  -0.000000
  172        2.090530  -0.000000
  173        2.145035  -0.000000
  174        2.335206  -0.000000
  175        2.508578  -0.000000
  176        4.692482  -0.000000

  0.2000000E+00  0.1111111E+00  0.1262379E-14  0.4444444E-01
    1      -13.810096   1.000000
    2      -13.103188   1.000000
    3      -12.608039   1.000000
    4      -12.098134   1.000000
    5      -11.910261   1.000000
    6      -11.862687   1.000000
    7      -11.643412   1.000000
    8      -11.393249   1.000000
    9      -11.213889   1.000000
   10      -11.172698   1.000000
   11      -11.001972   1.000000
   12      -10.863486   1.000000
   13      -10.773896   1.000000
   14      -10.552180   1.000000
   15      -10.415782   1.000000
   16      -10.251221   1.000000
   17      -10.171947   1.000000
   18      -10.072187   1.000000
   19       -9.742584   1.000000
   20       -9.622715   1.000000
   21       -9.426994   1.000000
   22       -9.356408   1.000000
   23       -9.276325   1.000000
   24       -9.012379   1.000000
   25       -8.908819   1.000000
   26       -8.751841   1.000000
   27       -8.366033   1.000000
   28       -8.235057   1.000000
   29       -8.114008   1.000000
   30       -8.028253   1.000000
   31       -7.973832   1.000000
   32       -7.776081   1.000000
   33       -7.495079   1.000000
   34       -7.442586   1.000000
   35       -7.373993   1.000000
   36       -7.248788   1.000000
   37       -7.083485   1.000000
   38       -6.961131   1.000000
   39       -6.802850   1.000000
   40       -6.744824   1.000000
   41       -6.661078   1.000000
   42       -6.594187   1.000000
   43       -6.517016   1.000000
   44       -6.466037   1.000000
   45       -6.322367   1.000000
   46       -6.268307   1.000000
   47       -6.051378   1.000000
   48       -5.943806   1.000000
   49       -5.851923   1.000000
   50       -5.798912   1.000000
   51       -5.722374   1.000000
   52       -5.679942   1.000000
   53       -5.633751   1.000000
   54       -5.551604   1.000000
   55       -5.434168   1.000000
   56       -5.367045   1.000000
   57       -5.320102   1.000000
   58       -5.217931   1.000000
   59       -5.184336   1.000000
   60       -5.125026   1.000000
   61       -5.054214   1.000000
   62       -4.970449   1.000000
   63       -4.902727   1.000000
   64       -4.724754   1.000000
   65       -4.674691   1.000000
   66       -4.604171   1.000000
   67       -4.529367   1.000000
   68       -4.493472   1.000000
   69       -4.454408   1.000000
   70       -4.409483   1.000000
   71       -4.302647   1.000000
   72       -4.244432   1.000000
   73       -4.223332   1.000000
   74       -4.170053   1.000000
   75       -4.097103   1.000000
   76       -4.014817   1.000000
   77       -3.934945   1.000000
   78       -3.864007   1.000000
   79       -3.807686   1.000000
   80       -3.787346   1.000000
   81       -3.714102   1.000000
   82       -3.641076   1.000000
   83       -3.570154   1.000000
   84       -3.515177   1.000000
   85       -3.424703   1.000000
   86       -3.386190   1.000000
   87       -3.331428   1.000000
   88       -3.265189   1.000000
   89       -3.183247   1.000000
   90       -3.129938   1.000000
   91       -3.098345   1.000000
   92       -3.056784   1.000000
   93       -2.995762   1.000000
   94       -2.957664   1.000000
   95       -2.885954   1.000000
   96       -2.710148   1.000000
   97       -2.683762   1.000000
   98       -2.595554   1.000000
   99       -2.502942   1.000000
  100       -2.472612   1.000000
  101       -2.380006   1.000000
  102       -2.361049   1.000000
  103       -2.247643   1.000000
  104       -2.182904   1.000000
  105       -2.152600   1.000000
  106       -2.138623   1.000000
  107       -2.000501   1.000000
  108       -1.972470   1.000000
  109       -1.879368   1.000000
  110       -1.843541   1.000000
  111       -1.780346   1.000000
  112       -1.743967   1.000000
  113       -1.640516   1.000000
  114       -1.557098   1.000000
  115       -1.385701   1.000000
  116       -1.319709   1.000000
  117       -1.243829   1.000000
  118       -1.166274   1.000000
  119       -1.118752   1.000000
  120       -1.018909   1.000000
  121       -0.849931   1.000000
  122       -0.788424   1.000000
  123       -0.645326   1.000000
  124       -0.609003   1.000000
  125       -0.539824   1.000001
  126       -0.347210   1.000353
  127       -0.285355   1.001504
  128       -0.211921   1.006263
  129       -0.160412   1.013833
  130       -0.137858   1.018417
  131       -0.058395   1.034556
  132        0.055708   0.971553
  133        0.173399   0.622689
  134        0.211189   0.464288
  135        0.283909   0.185902
  136        0.320098   0.086003
  137        0.402960  -0.025240
  138        0.469285  -0.033913
  139        0.489513  -0.030471
  140        0.611809  -0.006886
  141        0.629715  -0.005048
  142        0.705796  -0.001081
  143        0.798277  -0.000106
  144        0.852551  -0.000022
  145        0.929166  -0.000002
  146        0.992849  -0.000000
  147        1.059682  -0.000000
  148        1.080229  -0.000000
  149        1.117111  -0.000000
  150        1.210930  -0.000000
  151        1.240714  -0.000000
  152        1.286229  -0.000000
  153        1.314933  -0.000000
  154        1.336063  -0.000000
  155        1.382690  -0.000000
  156        1.408935  -0.000000
  157        1.440166  -0.000000
  158        1.464694  -0.000000
  159        1.495925  -0.000000
  160        1.520685  -0.000000
  161        1.556935  -0.000000
  162        1.609610  -0.000000
  163        1.651916  -0.000000
  164        1.671629  -0.000000
  165        1.725667  -0.000000
  166        1.752067  -0.000000
  167        1.793734  -0.000000
  168        1.840519  -0.000000
  169        1.890204  -0.000000
  170        1.956769  -0.000000
  171        2.019661  -0.000000
  172        2.104056  -0.000000
  173        2.193535  -0.000000
  174        2.265146  -0.000000
  175        2.355317  -0.000000
  176        4.708257  -0.000000

  0.4000000E+00  0.1111111E+00  0.1262379E-14  0.4444444E-01
    1      -13.711061   1.000000
    2      -13.353313   1.000000
    3      -12.491071   1.000000
    4      -12.165468   1.000000
    5      -11.851655   1.000000
    6      -11.710070   1.000000
    7      -11.610366   1.000000
    8      -11.347623   1.000000
    9      -11.199542   1.000000
   10      -11.073117   1.000000
   11      -10.993678   1.000000