 running on   72 total cores
 distrk:  each k-point on   72 cores,    1 groups
 distr:  one band on    9 cores,    8 groups
 using from now: INCAR     
 vasp.5.4.4.18Apr17-6-g9f103f2a35 (build Dec  7 2020 12:43:57) complex           
 POSCAR found type information on POSCAR  Mo V  B  H 
 POSCAR found :  4 types and      72 ions
 scaLAPACK will be used

 ----------------------------------------------------------------------------- 
|                                                                             |
|  ADVICE TO THIS USER RUNNING 'VASP/VAMP'   (HEAR YOUR MASTER'S VOICE ...):  |
|                                                                             |
|      You enforced a specific xc-type in the INCAR file,                     |
|      a different type was found on the POTCAR file                          |
|          I HOPE YOU KNOW, WHAT YOU ARE  DOING                               |
|                                                                             |
 ----------------------------------------------------------------------------- 

 LDA part: xc-table for Pade appr. of Perdew
 POSCAR, INCAR and KPOINTS ok, starting setup
 resort distribution
 resort distribution
 resort distribution
 resort distribution
 resort distribution
 resort distribution
 resort distribution
 resort distribution
 resort distribution
 resort distribution
 resort distribution
 resort distribution
 resort distribution
 resort distribution
 resort distribution
 resort distribution
 resort distribution
 resort distribution
 resort distribution
 resort distribution
 resort distribution
 resort distribution
 resort distribution
 resort distribution
 resort distribution
 resort distribution
 resort distribution
 resort distribution
 resort distribution
 resort distribution
 resort distribution
 resort distribution
 resort distribution
 resort distribution
 resort distribution
 resort distribution
 resort distribution
 resort distribution
 resort distribution
 resort distribution
 resort distribution
 resort distribution
 resort distribution
 resort distribution
 resort distribution
 resort distribution
 resort distribution
 resort distribution
 resort distribution
 resort distribution
 resort distribution
 resort distribution
 resort distribution
 resort distribution
 resort distribution
 resort distribution
 resort distribution
 resort distribution
 resort distribution
 resort distribution
 resort distribution
 resort distribution
 resort distribution
 resort distribution
 resort distribution
 resort distribution
 resort distribution
 resort distribution
 resort distribution
 resort distribution
 resort distribution
 resort distribution
 FFT: planning ...
 WAVECAR not read
 augmentation electrons   267.05814666472401     
 soft         electrons   0.0000000000000000     
 augmentation electrons   267.05814666472401     
 soft         electrons   0.0000000000000000     
 augmentation electrons   267.05814666472401     
 soft         electrons   0.0000000000000000     
 augmentation electrons   267.05814666472401     
 soft         electrons   0.0000000000000000     
 augmentation electrons   267.05814666472401     
 soft         electrons   0.0000000000000000     
 augmentation electrons   267.05814666472401     
 soft         electrons   0.0000000000000000     
 augmentation electrons   267.05814666472401     
 soft         electrons   0.0000000000000000     
 augmentation electrons   267.05814666472401     
 soft         electrons   0.0000000000000000     
 augmentation electrons   267.05814666472401     
 soft         electrons   0.0000000000000000     
 augmentation electrons   267.05814666472401     
 soft         electrons   0.0000000000000000     
 augmentation electrons   267.05814666472401     
 soft         electrons   0.0000000000000000     
 augmentation electrons   267.05814666472401     
 soft         electrons   0.0000000000000000     
 augmentation electrons   267.05814666472401     
 soft         electrons   0.0000000000000000     
 augmentation electrons   267.05814666472401     
 soft         electrons   0.0000000000000000     
 augmentation electrons   267.05814666472401     
 soft         electrons   0.0000000000000000     
 augmentation electrons   267.05814666472401     
 soft         electrons   0.0000000000000000     
 augmentation electrons   267.05814666472401     
 soft         electrons   0.0000000000000000     
 augmentation electrons   267.05814666472401     
 soft         electrons   0.0000000000000000     
 augmentation electrons   267.05814666472401     
 soft         electrons   0.0000000000000000     
 augmentation electrons   267.05814666472401     
 soft         electrons   0.0000000000000000     
 augmentation electrons   267.05814666472401     
 soft         electrons   0.0000000000000000     
 augmentation electrons   267.05814666472401     
 soft         electrons   0.0000000000000000     
 augmentation electrons   267.05814666472401     
 soft         electrons   0.0000000000000000     
 augmentation electrons   267.05814666472401     
 soft         electrons   0.0000000000000000     
 augmentation electrons   267.05814666472401     
 soft         electrons   0.0000000000000000     
 augmentation electrons   267.05814666472401     
 soft         electrons   0.0000000000000000     
 augmentation electrons   267.05814666472401     
 soft         electrons   0.0000000000000000     
 augmentation electrons   267.05814666472401     
 soft         electrons   0.0000000000000000     
 augmentation electrons   267.05814666472401     
 soft         electrons   0.0000000000000000     
 augmentation electrons   267.05814666472401     
 soft         electrons   0.0000000000000000     
 augmentation electrons   267.05814666472401     
 soft         electrons   0.0000000000000000     
 augmentation electrons   267.05814666472401     
 soft         electrons   0.0000000000000000     
 augmentation electrons   267.05814666472401     
 soft         electrons   0.0000000000000000     
 augmentation electrons   267.05814666472401     
 soft         electrons   0.0000000000000000     
 augmentation electrons   267.05814666472401     
 soft         electrons   0.0000000000000000     
 augmentation electrons   267.05814666472401     
 soft         electrons   0.0000000000000000     
 augmentation electrons   267.05814666472401     
 soft         electrons   0.0000000000000000     
 augmentation electrons   267.05814666472401     
 soft         electrons   0.0000000000000000     
 augmentation electrons   267.05814666472401     
 soft         electrons   0.0000000000000000     
 augmentation electrons   267.05814666472401     
 soft         electrons   0.0000000000000000     
 augmentation electrons   267.05814666472401     
 soft         electrons   0.0000000000000000     
 augmentation electrons   267.05814666472401     
 soft         electrons   0.0000000000000000     
 augmentation electrons   267.05814666472401     
 soft         electrons   0.0000000000000000     
 augmentation electrons   267.05814666472401     
 soft         electrons   0.0000000000000000     
 augmentation electrons   267.05814666472401     
 soft         electrons   0.0000000000000000     
 augmentation electrons   267.05814666472401     
 soft         electrons   0.0000000000000000     
 augmentation electrons   267.05814666472401     
 soft         electrons   0.0000000000000000     
 augmentation electrons   267.05814666472401     
 soft         electrons   0.0000000000000000     
 augmentation electrons   267.05814666472401     
 soft         electrons   0.0000000000000000     
 augmentation electrons   267.05814666472401     
 soft         electrons   0.0000000000000000     
 augmentation electrons   267.05814666472401     
 soft         electrons   0.0000000000000000     
 augmentation electrons   267.05814666472401     
 soft         electrons   0.0000000000000000     
 augmentation electrons   267.05814666472401     
 soft         electrons   0.0000000000000000     
 augmentation electrons   267.05814666472401     
 soft         electrons   0.0000000000000000     
 augmentation electrons   267.05814666472401     
 soft         electrons   0.0000000000000000     
 augmentation electrons   267.05814666472401     
 soft         electrons   0.0000000000000000     
 augmentation electrons   267.05814666472401     
 soft         electrons   0.0000000000000000     
 augmentation electrons   267.05814666472401     
 soft         electrons   0.0000000000000000     
 augmentation electrons   267.05814666472401     
 soft         electrons   0.0000000000000000     
 augmentation electrons   267.05814666472401     
 soft         electrons   0.0000000000000000     
 augmentation electrons   267.05814666472401     
 soft         electrons   0.0000000000000000     
 augmentation electrons   267.05814666472401     
 soft         electrons   0.0000000000000000     
 augmentation electrons   267.05814666472401     
 soft         electrons   0.0000000000000000     
 augmentation electrons   267.05814666472401     
 soft         electrons   0.0000000000000000     
 augmentation electrons   267.05814666472401     
 soft         electrons   0.0000000000000000     
 augmentation electrons   267.05814666472401     
 soft         electrons   0.0000000000000000     
 augmentation electrons   267.05814666472401     
 soft         electrons   0.0000000000000000     
 augmentation electrons   267.05814666472401     
 soft         electrons   0.0000000000000000     
 augmentation electrons   267.05814666472401     
 soft         electrons   0.0000000000000000     
 augmentation electrons   267.05814666472401     
 soft         electrons   0.0000000000000000     
 augmentation electrons   267.05814666472401     
 soft         electrons   0.0000000000000000     
 augmentation electrons   267.05814666472401     
 soft         electrons   0.0000000000000000     
 total        electrons   267.05814666472401     
 total        electrons   267.05814666472401     
 total        electrons   267.05814666472401     
 total        electrons   267.05814666472401     
 total        electrons   267.05814666472401     
 total        electrons   267.05814666472401     
 total        electrons   267.05814666472401     
 total        electrons   267.05814666472401     
 total        electrons   267.05814666472401     
 total        electrons   267.05814666472401     
 total        electrons   267.05814666472401     
 total        electrons   267.05814666472401     
 total        electrons   267.05814666472401     
 total        electrons   267.05814666472401     
 total        electrons   267.05814666472401     
 total        electrons   267.05814666472401     
 total        electrons   267.05814666472401     
 total        electrons   267.05814666472401     
 total        electrons   267.05814666472401     
 total        electrons   267.05814666472401     
 total        electrons   267.05814666472401     
 total        electrons   267.05814666472401     
 total        electrons   267.05814666472401     
 total        electrons   267.05814666472401     
 total        electrons   267.05814666472401     
 total        electrons   267.05814666472401     
 total        electrons   267.05814666472401     
 total        electrons   267.05814666472401     
 total        electrons   267.05814666472401     
 total        electrons   267.05814666472401     
 total        electrons   267.05814666472401     
 total        electrons   267.05814666472401     
 total        electrons   267.05814666472401     
 total        electrons   267.05814666472401     
 total        electrons   267.05814666472401     
 total        electrons   267.05814666472401     
 total        electrons   267.05814666472401     
 total        electrons   267.05814666472401     
 total        electrons   267.05814666472401     
 total        electrons   267.05814666472401     
 total        electrons   267.05814666472401     
 total        electrons   267.05814666472401     
 total        electrons   267.05814666472401     
 total        electrons   267.05814666472401     
 total        electrons   267.05814666472401     
 total        electrons   267.05814666472401     
 total        electrons   267.05814666472401     
 total        electrons   267.05814666472401     
 total        electrons   267.05814666472401     
 total        electrons   267.05814666472401     
 total        electrons   267.05814666472401     
 total        electrons   267.05814666472401     
 total        electrons   267.05814666472401     
 total        electrons   267.05814666472401     
 total        electrons   267.05814666472401     
 total        electrons   267.05814666472401     
 total        electrons   267.05814666472401     
 total        electrons   267.05814666472401     
 total        electrons   267.05814666472401     
 total        electrons   267.05814666472401     
 total        electrons   267.05814666472401     
 total        electrons   267.05814666472401     
 total        electrons   267.05814666472401     
 total        electrons   267.05814666472401     
 total        electrons   267.05814666472401     
 total        electrons   267.05814666472401     
 total        electrons   267.05814666472401     
 total        electrons   267.05814666472401     
 total        electrons   267.05814666472401     
 total        electrons   267.05814666472401     
 total        electrons   267.05814666472401     
 total        electrons   267.05814666472401     
 augmentation electrons   1134.5113766423656     
 soft         electrons   0.0000000000000000     
 augmentation electrons   1134.5113766423656     
 soft         electrons   0.0000000000000000     
 augmentation electrons   1134.5113766423656     
 soft         electrons   0.0000000000000000     
 augmentation electrons   1134.5113766423656     
 soft         electrons   0.0000000000000000     
 augmentation electrons   1134.5113766423656     
 soft         electrons   0.0000000000000000     
 augmentation electrons   1134.5113766423656     
 soft         electrons   0.0000000000000000     
 augmentation electrons   1134.5113766423656     
 soft         electrons   0.0000000000000000     
 augmentation electrons   1134.5113766423656     
 soft         electrons   0.0000000000000000     
 augmentation electrons   1134.5113766423656     
 soft         electrons   0.0000000000000000     
 augmentation electrons   1134.5113766423656     
 soft         electrons   0.0000000000000000     
 augmentation electrons   1134.5113766423656     
 soft         electrons   0.0000000000000000     
 augmentation electrons   1134.5113766423656     
 soft         electrons   0.0000000000000000     
 augmentation electrons   1134.5113766423656     
 soft         electrons   0.0000000000000000     
 augmentation electrons   1134.5113766423656     
 soft         electrons   0.0000000000000000     
 augmentation electrons   1134.5113766423656     
 soft         electrons   0.0000000000000000     
 augmentation electrons   1134.5113766423656     
 soft         electrons   0.0000000000000000     
 augmentation electrons   1134.5113766423656     
 soft         electrons   0.0000000000000000     
 augmentation electrons   1134.5113766423656     
 soft         electrons   0.0000000000000000     
 augmentation electrons   1134.5113766423656     
 soft         electrons   0.0000000000000000     
 augmentation electrons   1134.5113766423656     
 soft         electrons   0.0000000000000000     
 augmentation electrons   1134.5113766423656     
 soft         electrons   0.0000000000000000     
 augmentation electrons   1134.5113766423656     
 soft         electrons   0.0000000000000000     
 augmentation electrons   1134.5113766423656     
 soft         electrons   0.0000000000000000     
 augmentation electrons   1134.5113766423656     
 soft         electrons   0.0000000000000000     
 augmentation electrons   1134.5113766423656     
 soft         electrons   0.0000000000000000     
 augmentation electrons   1134.5113766423656     
 soft         electrons   0.0000000000000000     
 augmentation electrons   1134.5113766423656     
 soft         electrons   0.0000000000000000     
 augmentation electrons   1134.5113766423656     
 soft         electrons   0.0000000000000000     
 augmentation electrons   1134.5113766423656     
 soft         electrons   0.0000000000000000     
 augmentation electrons   1134.5113766423656     
 soft         electrons   0.0000000000000000     
 augmentation electrons   1134.5113766423656     
 soft         electrons   0.0000000000000000     
 augmentation electrons   1134.5113766423656     
 soft         electrons   0.0000000000000000     
 augmentation electrons   1134.5113766423656     
 soft         electrons   0.0000000000000000     
 augmentation electrons   1134.5113766423656     
 soft         electrons   0.0000000000000000     
 augmentation electrons   1134.5113766423656     
 soft         electrons   0.0000000000000000     
 augmentation electrons   1134.5113766423656     
 soft         electrons   0.0000000000000000     
 augmentation electrons   1134.5113766423656     
 soft         electrons   0.0000000000000000     
 augmentation electrons   1134.5113766423656     
 soft         electrons   0.0000000000000000     
 augmentation electrons   1134.5113766423656     
 soft         electrons   0.0000000000000000     
 augmentation electrons   1134.5113766423656     
 soft         electrons   0.0000000000000000     
 augmentation electrons   1134.5113766423656     
 soft         electrons   0.0000000000000000     
 augmentation electrons   1134.5113766423656     
 soft         electrons   0.0000000000000000     
 augmentation electrons   1134.5113766423656     
 soft         electrons   0.0000000000000000     
 augmentation electrons   1134.5113766423656     
 soft         electrons   0.0000000000000000     
 augmentation electrons   1134.5113766423656     
 soft         electrons   0.0000000000000000     
 augmentation electrons   1134.5113766423656     
 soft         electrons   0.0000000000000000     
 augmentation electrons   1134.5113766423656     
 soft         electrons   0.0000000000000000     
 augmentation electrons   1134.5113766423656     
 soft         electrons   0.0000000000000000     
 augmentation electrons   1134.5113766423656     
 soft         electrons   0.0000000000000000     
 augmentation electrons   1134.5113766423656     
 soft         electrons   0.0000000000000000     
 augmentation electrons   1134.5113766423656     
 soft         electrons   0.0000000000000000     
 augmentation electrons   1134.5113766423656     
 soft         electrons   0.0000000000000000     
 augmentation electrons   1134.5113766423656     
 soft         electrons   0.0000000000000000     
 augmentation electrons   1134.5113766423656     
 soft         electrons   0.0000000000000000     
 augmentation electrons   1134.5113766423656     
 soft         electrons   0.0000000000000000     
 augmentation electrons   1134.5113766423656     
 soft         electrons   0.0000000000000000     
 augmentation electrons   1134.5113766423656     
 soft         electrons   0.0000000000000000     
 augmentation electrons   1134.5113766423656     
 soft         electrons   0.0000000000000000     
 augmentation electrons   1134.5113766423656     
 soft         electrons   0.0000000000000000     
 augmentation electrons   1134.5113766423656     
 soft         electrons   0.0000000000000000     
 augmentation electrons   1134.5113766423656     
 soft         electrons   0.0000000000000000     
 augmentation electrons   1134.5113766423656     
 soft         electrons   0.0000000000000000     
 augmentation electrons   1134.5113766423656     
 soft         electrons   0.0000000000000000     
 augmentation electrons   1134.5113766423656     
 soft         electrons   0.0000000000000000     
 augmentation electrons   1134.5113766423656     
 soft         electrons   0.0000000000000000     
 augmentation electrons   1134.5113766423656     
 soft         electrons   0.0000000000000000     
 augmentation electrons   1134.5113766423656     
 soft         electrons   0.0000000000000000     
 augmentation electrons   1134.5113766423656     
 soft         electrons   0.0000000000000000     
 augmentation electrons   1134.5113766423656     
 soft         electrons   0.0000000000000000     
 augmentation electrons   1134.5113766423656     
 soft         electrons   0.0000000000000000     
 augmentation electrons   1134.5113766423656     
 augmentation electrons   1134.5113766423656     
 soft         electrons   0.0000000000000000     
 soft         electrons   0.0000000000000000     
 total        electrons   1134.5113766423656     
 total        electrons   1134.5113766423656     
 total        electrons   1134.5113766423656     
 total        electrons   1134.5113766423656     
 total        electrons   1134.5113766423656     
 total        electrons   1134.5113766423656     
 total        electrons   1134.5113766423656     
 total        electrons   1134.5113766423656     
 total        electrons   1134.5113766423656     
 total        electrons   1134.5113766423656     
 total        electrons   1134.5113766423656     
 total        electrons   1134.5113766423656     
 total        electrons   1134.5113766423656     
 total        electrons   1134.5113766423656     
 total        electrons   1134.5113766423656     
 total        electrons   1134.5113766423656     
 total        electrons   1134.5113766423656     
 total        electrons   1134.5113766423656     
 total        electrons   1134.5113766423656     
 total        electrons   1134.5113766423656     
 total        electrons   1134.5113766423656     
 total        electrons   1134.5113766423656     
 total        electrons   1134.5113766423656     
 total        electrons   1134.5113766423656     
 total        electrons   1134.5113766423656     
 total        electrons   1134.5113766423656     
 total        electrons   1134.5113766423656     
 total        electrons   1134.5113766423656     
 total        electrons   1134.5113766423656     
 total        electrons   1134.5113766423656     
 total        electrons   1134.5113766423656     
 total        electrons   1134.5113766423656     
 total        electrons   1134.5113766423656     
 total        electrons   1134.5113766423656     
 total        electrons   1134.5113766423656     
 total        electrons   1134.5113766423656     
 total        electrons   1134.5113766423656     
 total        electrons   1134.5113766423656     
 total        electrons   1134.5113766423656     
 total        electrons   1134.5113766423656     
 total        electrons   1134.5113766423656     
 total        electrons   1134.5113766423656     
 total        electrons   1134.5113766423656     
 total        electrons   1134.5113766423656     
 total        electrons   1134.5113766423656     
 total        electrons   1134.5113766423656     
 total        electrons   1134.5113766423656     
 total        electrons   1134.5113766423656     
 total        electrons   1134.5113766423656     
 total        electrons   1134.5113766423656     
 total        electrons   1134.5113766423656     
 total        electrons   1134.5113766423656     
 total        electrons   1134.5113766423656     
 total        electrons   1134.5113766423656     
 total        electrons   1134.5113766423656     
 total        electrons   1134.5113766423656     
 total        electrons   1134.5113766423656     
 total        electrons   1134.5113766423656     
 total        electrons   1134.5113766423656     
 total        electrons   1134.5113766423656     
 total        electrons   1134.5113766423656     
 total        electrons   1134.5113766423656     
 total        electrons   1134.5113766423656     
 total        electrons   1134.5113766423656     
 total        electrons   1134.5113766423656     
 total        electrons   1134.5113766423656     
 total        electrons   1134.5113766423656     
 total        electrons   1134.5113766423656     
 total        electrons   1134.5113766423656     
 total        electrons   1134.5113766423656     
 total        electrons   1134.5113766423656     
 total        electrons   1134.5113766423656     
 entering main loop
       N       E                     dE             d eps       ncg     rms          rms(c)
RMM:   1     0.269122789353E+04    0.26912E+04   -0.80930E+04  4048   0.108E+03
RMM:   2     0.588481799042E+03   -0.21027E+04   -0.23989E+04  4048   0.263E+02
RMM:   3    -0.365865499813E+02   -0.62507E+03   -0.78191E+03  4048   0.161E+02
RMM:   4    -0.293239776803E+03   -0.25665E+03   -0.25788E+03  4048   0.192E+02
RMM:   5    -0.439521284720E+03   -0.14628E+03   -0.11944E+03  4048   0.110E+02
RMM:   6    -0.514950450979E+03   -0.75429E+02   -0.58734E+02  4048   0.101E+02
RMM:   7    -0.557641166533E+03   -0.42691E+02   -0.37980E+02  4048   0.600E+01
RMM:   8    -0.582741235901E+03   -0.25100E+02   -0.21487E+02  4048   0.616E+01
RMM:   9    -0.625112149935E+03   -0.42371E+02   -0.40927E+02 12960   0.345E+01
RMM:  10    -0.631755973101E+03   -0.66438E+01   -0.59784E+01 12948   0.938E+00
RMM:  11    -0.633051325382E+03   -0.12954E+01   -0.87576E+00 13085   0.306E+00
RMM:  12    -0.633320336451E+03   -0.26901E+00   -0.19048E+00 12727   0.107E+00    0.136E+02
RMM:  13    -0.584298328692E+03    0.49022E+02   -0.11101E+03 13031   0.897E+01    0.719E+01
RMM:  14    -0.627621574007E+03   -0.43323E+02   -0.39185E+02  9600   0.742E+01    0.504E+01
RMM:  15    -0.552901356156E+03    0.74720E+02   -0.10593E+02 10658   0.254E+01    0.329E+01
RMM:  16    -0.550036623559E+03    0.28647E+01   -0.72104E+01 12300   0.169E+01    0.269E+01
RMM:  17    -0.533541132457E+03    0.16495E+02   -0.16212E+01 11091   0.102E+01    0.204E+01
RMM:  18    -0.531620577130E+03    0.19206E+01   -0.64559E+00  9359   0.859E+00    0.169E+01
RMM:  19    -0.531544397059E+03    0.76180E-01   -0.39837E+00 12742   0.236E+00    0.153E+01
RMM:  20    -0.531340854448E+03    0.20354E+00   -0.43755E-01 10480   0.149E+00    0.146E+01
RMM:  21    -0.531005166107E+03    0.33569E+00   -0.76372E-01 10449   0.257E+00    0.126E+01
RMM:  22    -0.530915381910E+03    0.89784E-01   -0.40409E+00  9323   0.654E+00    0.915E+00
RMM:  23    -0.529963662194E+03    0.95172E+00   -0.16990E+00  8871   0.453E+00    0.400E+00
RMM:  24    -0.529876727632E+03    0.86935E-01   -0.12398E+00 12453   0.193E+00    0.230E+00
RMM:  25    -0.529887002083E+03   -0.10274E-01   -0.30150E-01 11869   0.120E+00    0.221E+00
RMM:  26    -0.529861628286E+03    0.25374E-01   -0.12016E-01 11371   0.938E-01    0.151E+00
RMM:  27    -0.529838476065E+03    0.23152E-01   -0.11213E-01 10964   0.801E-01    0.992E-01
RMM:  28    -0.529828333002E+03    0.10143E-01   -0.36854E-02 11440   0.452E-01    0.647E-01
RMM:  29    -0.529823541093E+03    0.47919E-02   -0.16556E-02 10608   0.342E-01    0.416E-01
RMM:  30    -0.529821126487E+03    0.24146E-02   -0.13984E-02 12578   0.188E-01    0.300E-01
RMM:  31    -0.529820853543E+03    0.27294E-03   -0.31845E-03 12620   0.945E-02    0.160E-01
RMM:  32    -0.529820640213E+03    0.21333E-03   -0.17332E-03 11427   0.998E-02    0.106E-01
RMM:  33    -0.529820628949E+03    0.11264E-04   -0.67851E-04 11297   0.527E-02    0.754E-02
RMM:  34    -0.529820937646E+03   -0.30870E-03   -0.49543E-04 11381   0.433E-02    0.535E-02
RMM:  35    -0.529821591367E+03   -0.65372E-03   -0.65553E-04 11622   0.498E-02    0.475E-02
RMM:  36    -0.529822022267E+03   -0.43090E-03   -0.34342E-04 11034   0.295E-02    0.547E-02
RMM:  37    -0.529822182231E+03   -0.15996E-03   -0.19372E-04 11724   0.211E-02    0.377E-02
RMM:  38    -0.529822241525E+03   -0.59294E-04   -0.56047E-05 11255   0.120E-02    0.224E-02
RMM:  39    -0.529822315174E+03   -0.73650E-04   -0.40197E-05 10771   0.105E-02    0.103E-02
RMM:  40    -0.529822374053E+03   -0.58879E-04   -0.28009E-05  9819   0.775E-03    0.645E-03
RMM:  41    -0.529822496025E+03   -0.12197E-03   -0.10874E-05  8678   0.693E-03    0.113E-02
RMM:  42    -0.529822644204E+03   -0.14818E-03   -0.10149E-05  7910   0.708E-03    0.758E-03
RMM:  43    -0.529822740141E+03   -0.95936E-04   -0.86701E-06  8041   0.713E-03    0.947E-03
RMM:  44    -0.529822794446E+03   -0.54305E-04   -0.70637E-06  7855   0.667E-03    0.437E-03
RMM:  45    -0.529822854738E+03   -0.60292E-04   -0.74870E-06  7680   0.445E-03    0.322E-03
RMM:  46    -0.529822867058E+03   -0.12321E-04   -0.14564E-06  6631   0.376E-03    0.225E-03
RMM:  47    -0.529822870051E+03   -0.29921E-05   -0.60863E-07  5636   0.178E-03    0.139E-03
RMM:  48    -0.529822870688E+03   -0.63762E-06   -0.21731E-07  4873   0.149E-03
   1 F= -.52982287E+03 E0= -.52981655E+03  d E =-.189557E-01
 augmentation electrons   27.772420236653783     
 augmentation electrons   27.772420236653783     
 soft         electrons   239.34805296902101     
 augmentation electrons   27.772420236653783     
 soft         electrons   239.34805296902101     
 augmentation electrons   27.772420236653783     
 soft         electrons   239.34805296902101     
 augmentation electrons   27.772420236653783     
 soft         electrons   239.34805296902101     
 augmentation electrons   27.772420236653783     
 soft         electrons   239.34805296902101     
 augmentation electrons   27.772420236653783     
 soft         electrons   239.34805296902101     
 augmentation electrons   27.772420236653783     
 soft         electrons   239.34805296902101     
 augmentation electrons   27.772420236653783     
 soft         electrons   239.34805296902101     
 augmentation electrons   27.772420236653783     
 soft         electrons   239.34805296902101     
 augmentation electrons   27.772420236653783     
 soft         electrons   239.34805296902101     
 augmentation electrons   27.772420236653783     
 soft         electrons   239.34805296902101     
 augmentation electrons   27.772420236653783     
 soft         electrons   239.34805296902101     
 augmentation electrons   27.772420236653783     
 soft         electrons   239.34805296902101     
 augmentation electrons   27.772420236653783     
 soft         electrons   239.34805296902101     
 augmentation electrons   27.772420236653783     
 soft         electrons   239.34805296902101     
 augmentation electrons   27.772420236653783     
 soft         electrons   239.34805296902101     
 augmentation electrons   27.772420236653783     
 soft         electrons   239.34805296902101     
 augmentation electrons   27.772420236653783     
 soft         electrons   239.34805296902101     
 augmentation electrons   27.772420236653783     
 soft         electrons   239.34805296902101     
 augmentation electrons   27.772420236653783     
 soft         electrons   239.34805296902101     
 augmentation electrons   27.772420236653783     
 soft         electrons   239.34805296902101     
 augmentation electrons   27.772420236653783     
 soft         electrons   239.34805296902101     
 augmentation electrons   27.772420236653783     
 soft         electrons   239.34805296902101     
 augmentation electrons   27.772420236653783     
 soft         electrons   239.34805296902101     
 augmentation electrons   27.772420236653783     
 soft         electrons   239.34805296902101     
 augmentation electrons   27.772420236653783     
 soft         electrons   239.34805296902101     
 augmentation electrons   27.772420236653783     
 soft         electrons   239.34805296902101     
 augmentation electrons   27.772420236653783     
 soft         electrons   239.34805296902101     
 augmentation electrons   27.772420236653783     
 soft         electrons   239.34805296902101     
 augmentation electrons   27.772420236653783     
 soft         electrons   239.34805296902101     
 augmentation electrons   27.772420236653783     
 soft         electrons   239.34805296902101     
 augmentation electrons   27.772420236653783     
 soft         electrons   239.34805296902101     
 augmentation electrons   27.772420236653783     
 soft         electrons   239.34805296902101     
 augmentation electrons   27.772420236653783     
 soft         electrons   239.34805296902101     
 augmentation electrons   27.772420236653783     
 soft         electrons   239.34805296902101     
 augmentation electrons   27.772420236653783     
 soft         electrons   239.34805296902101     
 augmentation electrons   27.772420236653783     
 soft         electrons   239.34805296902101     
 augmentation electrons   27.772420236653783     
 soft         electrons   239.34805296902101     
 augmentation electrons   27.772420236653783     
 soft         electrons   239.34805296902101     
 augmentation electrons   27.772420236653783     
 soft         electrons   239.34805296902101     
 augmentation electrons   27.772420236653783     
 soft         electrons   239.34805296902101     
 augmentation electrons   27.772420236653783     
 soft         electrons   239.34805296902101     
 augmentation electrons   27.772420236653783     
 soft         electrons   239.34805296902101     
 augmentation electrons   27.772420236653783     
 soft         electrons   239.34805296902101     
 augmentation electrons   27.772420236653783     
 soft         electrons   239.34805296902101     
 augmentation electrons   27.772420236653783     
 soft         electrons   239.34805296902101     
 augmentation electrons   27.772420236653783     
 soft         electrons   239.34805296902101     
 augmentation electrons   27.772420236653783     
 soft         electrons   239.34805296902101     
 augmentation electrons   27.772420236653783     
 soft         electrons   239.34805296902101     
 augmentation electrons   27.772420236653783     
 soft         electrons   239.34805296902101     
 augmentation electrons   27.772420236653783     
 soft         electrons   239.34805296902101     
 augmentation electrons   27.772420236653783     
 soft         electrons   239.34805296902101     
 augmentation electrons   27.772420236653783     
 soft         electrons   239.34805296902101     
 augmentation electrons   27.772420236653783     
 soft         electrons   239.34805296902101     
 augmentation electrons   27.772420236653783     
 soft         electrons   239.34805296902101     
 augmentation electrons   27.772420236653783     
 soft         electrons   239.34805296902101     
 augmentation electrons   27.772420236653783     
 soft         electrons   239.34805296902101     
 augmentation electrons   27.772420236653783     
 soft         electrons   239.34805296902101     
 augmentation electrons   27.772420236653783     
 soft         electrons   239.34805296902101     
 augmentation electrons   27.772420236653783     
 soft         electrons   239.34805296902101     
 augmentation electrons   27.772420236653783     
 soft         electrons   239.34805296902101     
 augmentation electrons   27.772420236653783     
 soft         electrons   239.34805296902101     
 augmentation electrons   27.772420236653783     
 soft         electrons   239.34805296902101     
 augmentation electrons   27.772420236653783     
 soft         electrons   239.34805296902101     
 augmentation electrons   27.772420236653783     
 soft         electrons   239.34805296902101     
 augmentation electrons   27.772420236653783     
 soft         electrons   239.34805296902101     
 augmentation electrons   27.772420236653783     
 soft         electrons   239.34805296902101     
 augmentation electrons   27.772420236653783     
 soft         electrons   239.34805296902101     
 augmentation electrons   27.772420236653783     
 soft         electrons   239.34805296902101     
 augmentation electrons   27.772420236653783     
 soft         electrons   239.34805296902101     
 augmentation electrons   27.772420236653783     
 soft         electrons   239.34805296902101     
 soft         electrons   239.34805296902101     
 total        electrons   267.12047320567478     
 total        electrons   267.12047320567478     
 total        electrons   267.12047320567478     
 total        electrons   267.12047320567478     
 total        electrons   267.12047320567478     
 total        electrons   267.12047320567478     
 total        electrons   267.12047320567478     
 total        electrons   267.12047320567478     
 total        electrons   267.12047320567478     
 total        electrons   267.12047320567478     
 total        electrons   267.12047320567478     
 total        electrons   267.12047320567478     
 total        electrons   267.12047320567478     
 total        electrons   267.12047320567478     
 total        electrons   267.12047320567478     
 total        electrons   267.12047320567478     
 total        electrons   267.12047320567478     
 total        electrons   267.12047320567478     
 total        electrons   267.12047320567478     
 total        electrons   267.12047320567478     
 total        electrons   267.12047320567478     
 total        electrons   267.12047320567478     
 total        electrons   267.12047320567478     
 total        electrons   267.12047320567478     
 total        electrons   267.12047320567478     
 total        electrons   267.12047320567478     
 total        electrons   267.12047320567478     
 total        electrons   267.12047320567478     
 total        electrons   267.12047320567478     
 total        electrons   267.12047320567478     
 total        electrons   267.12047320567478     
 total        electrons   267.12047320567478     
 total        electrons   267.12047320567478     
 total        electrons   267.12047320567478     
 total        electrons   267.12047320567478     
 total        electrons   267.12047320567478     
 total        electrons   267.12047320567478     
 total        electrons   267.12047320567478     
 total        electrons   267.12047320567478     
 total        electrons   267.12047320567478     
 total        electrons   267.12047320567478     
 total        electrons   267.12047320567478     
 total        electrons   267.12047320567478     
 total        electrons   267.12047320567478     
 total        electrons   267.12047320567478     
 total        electrons   267.12047320567478     
 total        electrons   267.12047320567478     
 total        electrons   267.12047320567478     
 total        electrons   267.12047320567478     
 total        electrons   267.12047320567478     
 total        electrons   267.12047320567478     
 total        electrons   267.12047320567478     
 total        electrons   267.12047320567478     
 total        electrons   267.12047320567478     
 total        electrons   267.12047320567478     
 total        electrons   267.12047320567478     
 total        electrons   267.12047320567478     
 total        electrons   267.12047320567478     
 total        electrons   267.12047320567478     
 total        electrons   267.12047320567478     
 total        electrons   267.12047320567478     
 total        electrons   267.12047320567478     
 total        electrons   267.12047320567478     
 total        electrons   267.12047320567478     
 total        electrons   267.12047320567478     
 total        electrons   267.12047320567478     
 total        electrons   267.12047320567478     
 total        electrons   267.12047320567478     
 total        electrons   267.12047320567478     
 total        electrons   267.12047320567478     
 total        electrons   267.12047320567478     
 total        electrons   267.12047320567478     
Note: The following floating-point exceptions are signalling: IEEE_OVERFLOW_FLAG
Note: The following floating-point exceptions are signalling: IEEE_OVERFLOW_FLAG
Note: The following floating-point exceptions are signalling: IEEE_OVERFLOW_FLAG
Note: The following floating-point exceptions are signalling: IEEE_OVERFLOW_FLAG
Note: The following floating-point exceptions are signalling: IEEE_OVERFLOW_FLAG
Note: The following floating-point exceptions are signalling: IEEE_OVERFLOW_FLAG
Note: The following floating-point exceptions are signalling: IEEE_OVERFLOW_FLAG
Note: The following floating-point exceptions are signalling: IEEE_OVERFLOW_FLAG
Note: The following floating-point exceptions are signalling: IEEE_OVERFLOW_FLAG
Note: The following floating-point exceptions are signalling: IEEE_OVERFLOW_FLAG
Note: The following floating-point exceptions are signalling: IEEE_OVERFLOW_FLAG
Note: The following floating-point exceptions are signalling: IEEE_OVERFLOW_FLAG
Note: The following floating-point exceptions are signalling: IEEE_OVERFLOW_FLAG
Note: The following floating-point exceptions are signalling: IEEE_OVERFLOW_FLAG
Note: The following floating-point exceptions are signalling: IEEE_OVERFLOW_FLAG
Note: The following floating-point exceptions are signalling: IEEE_OVERFLOW_FLAG
Note: The following floating-point exceptions are signalling: IEEE_OVERFLOW_FLAG
Note: The following floating-point exceptions are signalling: IEEE_OVERFLOW_FLAG
Note: The following floating-point exceptions are signalling: IEEE_OVERFLOW_FLAG
Note: The following floating-point exceptions are signalling: IEEE_OVERFLOW_FLAG
Note: The following floating-point exceptions are signalling: IEEE_OVERFLOW_FLAG
Note: The following floating-point exceptions are signalling: IEEE_OVERFLOW_FLAG
Note: The following floating-point exceptions are signalling: IEEE_OVERFLOW_FLAG
Note: The following floating-point exceptions are signalling: IEEE_OVERFLOW_FLAG
Note: The following floating-point exceptions are signalling: IEEE_OVERFLOW_FLAG
Note: The following floating-point exceptions are signalling: IEEE_OVERFLOW_FLAG
Note: The following floating-point exceptions are signalling: IEEE_OVERFLOW_FLAG
Note: The following floating-point exceptions are signalling: IEEE_OVERFLOW_FLAG
Note: The following floating-point exceptions are signalling: IEEE_OVERFLOW_FLAG
Note: The following floating-point exceptions are signalling: IEEE_OVERFLOW_FLAG
Note: The following floating-point exceptions are signalling: IEEE_OVERFLOW_FLAG
Note: The following floating-point exceptions are signalling: IEEE_OVERFLOW_FLAG
Note: The following floating-point exceptions are signalling: IEEE_OVERFLOW_FLAG
Note: The following floating-point exceptions are signalling: IEEE_OVERFLOW_FLAG
Note: The following floating-point exceptions are signalling: IEEE_OVERFLOW_FLAG
Note: The following floating-point exceptions are signalling: IEEE_OVERFLOW_FLAG
Note: The following floating-point exceptions are signalling: IEEE_OVERFLOW_FLAG
Note: The following floating-point exceptions are signalling: IEEE_OVERFLOW_FLAG
Note: The following floating-point exceptions are signalling: IEEE_OVERFLOW_FLAG
Note: The following floating-point exceptions are signalling: IEEE_OVERFLOW_FLAG
Note: The following floating-point exceptions are signalling: IEEE_OVERFLOW_FLAG
Note: The following floating-point exceptions are signalling: IEEE_OVERFLOW_FLAG
Note: The following floating-point exceptions are signalling: IEEE_OVERFLOW_FLAG
Note: The following floating-point exceptions are signalling: IEEE_OVERFLOW_FLAG
Note: The following floating-point exceptions are signalling: IEEE_OVERFLOW_FLAG
Note: The following floating-point exceptions are signalling: IEEE_OVERFLOW_FLAG
Note: The following floating-point exceptions are signalling: IEEE_OVERFLOW_FLAG
Note: The following floating-point exceptions are signalling: IEEE_OVERFLOW_FLAG
Note: The following floating-point exceptions are signalling: IEEE_OVERFLOW_FLAG
Note: The following floating-point exceptions are signalling: IEEE_OVERFLOW_FLAG
Note: The following floating-point exceptions are signalling: IEEE_OVERFLOW_FLAG
Note: The following floating-point exceptions are signalling: IEEE_OVERFLOW_FLAG
Note: The following floating-point exceptions are signalling: IEEE_OVERFLOW_FLAG
Note: The following floating-point exceptions are signalling: IEEE_OVERFLOW_FLAG
Note: The following floating-point exceptions are signalling: IEEE_OVERFLOW_FLAG
Note: The following floating-point exceptions are signalling: IEEE_OVERFLOW_FLAG
Note: The following floating-point exceptions are signalling: IEEE_OVERFLOW_FLAG
Note: The following floating-point exceptions are signalling: IEEE_OVERFLOW_FLAG
Note: The following floating-point exceptions are signalling: IEEE_OVERFLOW_FLAG
Note: The following floating-point exceptions are signalling: IEEE_OVERFLOW_FLAG
Note: The following floating-point exceptions are signalling: IEEE_OVERFLOW_FLAG
Note: The following floating-point exceptions are signalling: IEEE_OVERFLOW_FLAG
Note: The following floating-point exceptions are signalling: IEEE_OVERFLOW_FLAG
Note: The following floating-point exceptions are signalling: IEEE_OVERFLOW_FLAG
Note: The following floating-point exceptions are signalling: IEEE_OVERFLOW_FLAG
Note: The following floating-point exceptions are signalling: IEEE_OVERFLOW_FLAG
Note: The following floating-point exceptions are signalling: IEEE_OVERFLOW_FLAG
Note: The following floating-point exceptions are signalling: IEEE_OVERFLOW_FLAG
Note: The following floating-point exceptions are signalling: IEEE_OVERFLOW_FLAG
Note: The following floating-point exceptions are signalling: IEEE_OVERFLOW_FLAG
Note: The following floating-point exceptions are signalling: IEEE_OVERFLOW_FLAG
Note: The following floating-point exceptions are signalling: IEEE_OVERFLOW_FLAG
