    3    3    1    1
  0.8604740E+01  0.3002604E-09  0.3002604E-09  0.3306224E-09  0.5000000E-15
   1.0000000000000000E-004
  CAR 
 Name                                    
     12    297     10

  0.3742002E-15  0.3742002E-15  0.3742002E-15  0.2035416E-03
    1       -5.674147   1.000000
    2        4.220171   1.000000
    3        4.629612   1.000000
    4        4.629619   1.000000
    5        5.501578   1.000000
    6        9.331584   0.159124
    7        9.331590   0.014933
    8       11.556139   0.000000
    9       11.556160   0.000000
   10       14.084330   0.000000

  0.5882353E-01  0.3706497E-15  0.3742002E-15  0.1221250E-02
    1       -5.604822   1.000000
    2        4.276966   1.000000
    3        4.458437   1.000000
    4        4.660004   1.000000
    5        5.353365   1.000000
    6        9.299102   0.589033
    7        9.544186  -0.010349
    8       11.213605   0.000000
    9       11.281654   0.000000
   10       14.344566   0.000000

  0.1176471E+00  0.3767996E-15  0.3742002E-15  0.1221250E-02
    1       -5.399239   1.000000
    2        3.980405   1.000000
    3        4.438515   1.000000
    4        4.739590   1.000000
    5        4.995917   1.000000
    6        9.207487   0.995112
    7       10.076646   0.000000
    8       10.526448   0.000000
    9       10.788590   0.000000
   10       14.777875   0.000000

  0.1764706E+00  0.3607731E-15  0.3742002E-15  0.1221250E-02
    1       -5.064285   1.000000
    2        3.307830   1.000000
    3        4.569589   1.000000
    4        4.625539   1.000000
    5        4.836940   1.000000
    6        9.072621   1.000000
    7        9.896088   0.000000
    8       10.389749   0.000000
    9       10.724374   0.000000
   10       15.096236   0.000000

  0.2352941E+00  0.3655633E-15  0.3742002E-15  0.1221250E-02
    1       -4.610475   1.000000
    2        2.520844   1.000000
    3        4.161376   1.000000
    4        4.734097   1.000000
    5        4.912402   1.000000
    6        8.915992   1.000000
    7        9.568608   0.000000
    8       10.188863   0.000000
    9       11.264503   0.000000
   10       15.290121   0.000000

  0.2941176E+00  0.3668569E-15  0.3742002E-15  0.1221250E-02
    1       -4.050993   1.000000
    2        1.675141   1.000000
    3        3.813134   1.000000
    4        4.675360   1.000000
    5        4.939575   1.000000
    6        8.760002   1.000000
    7        9.680785   0.000000
    8       10.197582   0.000000
    9       11.493827   0.000000
   10       15.391473   0.000000

  0.3529412E+00  0.3820644E-15  0.3742002E-15  0.1221250E-02
    1       -3.401468   1.000000
    2        0.803772   1.000000
    3        3.543964   1.000000
    4        4.486151   1.000000
    5        4.922055   1.000000
    6        8.624725   1.000000
    7       10.184536   0.000000
    8       10.359360   0.000000
    9       11.422089   0.000000
   10       15.438190   0.000000

  0.4117647E+00  0.3552411E-15  0.3742002E-15  0.1221250E-02
    1       -2.683114   1.000000
    2       -0.065663   1.000000
    3        3.362176   1.000000
    4        4.284144   1.000000
    5        4.886084   1.000000
    6        8.525776   1.000000
    7       10.569258   0.000000
    8       10.868244   0.000000
    9       11.249950   0.000000
   10       15.440522   0.000000

  0.4705882E+00  0.3565347E-15  0.3742002E-15  0.1221250E-02
    1       -1.959928   1.000000
    2       -0.865466   1.000000
    3        3.270810   1.000000
    4        4.162160   1.000000
    5        4.859906   1.000000
    6        8.473668   1.000000
    7       10.712476   0.000000
    8       11.132016   0.000000
    9       11.400118   0.000000
   10       15.413238   0.000000

  0.5882353E-01  0.5882353E-01  0.3742002E-15  0.1221250E-02
    1       -5.467348   1.000000
    2        4.144891   1.000000
    3        4.374310   1.000000
    4        4.715783   1.000000
    5        5.104307   1.000000
    6        9.222719   0.980608
    7        9.928492   0.000000
    8       10.748414   0.000000
    9       10.885205   0.000000
   10       14.744864   0.000000

  0.1176471E+00  0.5882353E-01  0.3742002E-15  0.2442499E-02
    1       -5.196990   1.000000
    2        3.595253   1.000000
    3        4.482320   1.000000
    4        4.726690   1.000000
    5        4.846240   1.000000
    6        9.070205   1.000000
    7       10.111492   0.000000
    8       10.487692   0.000000
    9       10.554444   0.000000
   10       15.146048   0.000000

  0.1764706E+00  0.5882353E-01  0.3742002E-15  0.2442499E-02
    1       -4.802287   1.000000
    2        2.891749   1.000000
    3        4.329558   1.000000
    4        4.480395   1.000000
    5        5.064185   1.000000
    6        8.866698   1.000000
    7        9.581032  -0.005936
    8       10.291841   0.000000
    9       11.220434   0.000000
   10       15.390193   0.000000

  0.2352941E+00  0.5882353E-01  0.3742002E-15  0.2442499E-02
    1       -4.294909   1.000000
    2        2.098978   1.000000
    3        3.972637   1.000000
    4        4.350145   1.000000
    5        5.263460   1.000000
    6        8.639881   1.000000
    7        9.355593   0.060314
    8       10.340510   0.000000
    9       11.700922   0.000000
   10       15.515461   0.000000

  0.2941176E+00  0.5882353E-01  0.3742002E-15  0.2442499E-02
    1       -3.688931   1.000000
    2        1.256945   1.000000
    3        3.683754   1.000000
    4        4.137311   1.000000
    5        5.350092   1.000000
    6        8.419268   1.000000
    7        9.507947  -0.007181
    8       10.594857   0.000000
    9       11.843848   0.000000
   10       15.575273   0.000000

  0.3529412E+00  0.5882353E-01  0.3742002E-15  0.2442499E-02
    1       -3.001542   1.000000
    2        0.394008   1.000000
    3        3.474476   1.000000
    4        3.915072   1.000000
    5        5.337405   1.000000
    6        8.234225   1.000000
    7        9.930068  -0.015944
    8       10.952146   0.000000
    9       11.759202   0.000000
   10       15.602840   0.000000

  0.4117647E+00  0.5882353E-01  0.3742002E-15  0.2442499E-02
    1       -2.262144   1.000000
    2       -0.453926   1.000000
    3        3.348639   1.000000
    4        3.752968   1.000000
    5        5.295539   1.000000
    6        8.110822   1.000000
    7       10.373644   0.000000
    8       11.274199   0.000000
    9       11.641353   0.000000
   10       15.633398   0.000000

  0.4705882E+00  0.5882353E-01  0.3742002E-15  0.1221250E-02
    1       -1.704524   1.000000
    2       -1.048355   1.000000
    3        3.306700   1.000000
    4        3.694269   1.000000
    5        5.276066   1.000000
    6        8.067456   1.000000
    7       10.563839   0.000000
    8       11.409548   0.000000
    9       11.592933   0.000000
   10       15.657639   0.000000

  0.1176471E+00  0.1176471E+00  0.3742002E-15  0.1221250E-02
    1       -4.866633   1.000000
    2        3.062037   1.000000
    3        4.337230   1.000000
    4        4.398863   1.000000
    5        5.119580   1.000000
    6        8.794787   1.000000
    7        9.590248  -0.015019
    8       10.340300   0.000000
    9       11.260304   0.000000
   10       15.634146   0.000000

  0.1764706E+00  0.1176471E+00  0.3742002E-15  0.2442499E-02
    1       -4.417567   1.000000
    2        2.417360   1.000000
    3        4.042568   1.000000
    4        4.086436   1.000000
    5        5.475215   1.000000
    6        8.438511   1.000000
    7        9.130990   0.537067
    8       10.470682   0.000000
    9       12.000737   0.000000
   10       15.383137   0.000000

  0.2352941E+00  0.1176471E+00  0.3742002E-15  0.2442499E-02
    1       -3.861875   1.000000
    2        1.684878   1.000000
    3        3.686783   1.000000
    4        3.827477   1.000000
    5        5.786299   1.000000
    6        8.059029   1.000000
    7        8.934270   1.035764
    8       10.788107   0.000000
    9       12.528074   0.000000
   10       15.382167   0.000000

  0.2941176E+00  0.1176471E+00  0.3742002E-15  0.2442499E-02
    1       -3.214142   1.000000
    2        0.886501   1.000000
    3        3.355697   1.000000
    4        3.636397   1.000000
    5        5.941738   1.000000
    6        7.711707   1.000000
    7        9.112809   0.649790
    8       11.127789   0.000000
    9       12.692786   0.000000
   10       15.887876   0.000000

  0.3529412E+00  0.1176471E+00  0.3742002E-15  0.2442499E-02
    1       -2.493652   1.000000
    2        0.053321   1.000000
    3        3.109611   1.000000
    4        3.514101   1.000000
    5        5.956931   1.000000
    6        7.446804   1.000000
    7        9.584247   0.014946
    8       11.296719   0.000000
    9       12.658305   0.000000
   10       16.110457   0.000000

  0.4117647E+00  0.1176471E+00  0.3742002E-15  0.2442499E-02
    1       -1.751240   1.000000
    2       -0.749983   1.000000
    3        2.980308   1.000000
    4        3.455355   1.000000
    5        5.932773   1.000000
    6        7.303443   1.000000
    7       10.063941   0.000000
    8       11.228753   0.000000
    9       12.606681   0.000000
   10       16.280206   0.000000

  0.1764706E+00  0.1764706E+00  0.3742002E-15  0.1221250E-02
    1       -3.919571   1.000000
    2        1.893836   1.000000
    3        3.469993   1.000000
    4        3.890299   1.000000
    5        5.961911   1.000000
    6        7.903721   1.000000
    7        8.706806   1.094613
    8       10.855049   0.000000
    9       12.882520   0.000000
   10       15.137920   0.000000

  0.2352941E+00  0.1764706E+00  0.3742002E-15  0.2442499E-02
    1       -3.320350   1.000000
    2        1.290889   1.000000
    3        2.912306   1.000000
    4        3.762150   1.000000
    5        6.407634   1.000000
    6        7.363884   1.000000
    7        8.512647   1.016432
    8       11.223937   0.000000
    9       13.565262   0.000000
   10       15.250720   0.000000

  0.2941176E+00  0.1764706E+00  0.3742002E-15  0.2442499E-02
    1       -2.635057   1.000000
    2        0.580283   1.000000
    3        2.490430   1.000000
    4        3.699878   1.000000
    5        6.633462   1.000000
    6        6.900534   1.000000
    7        8.735638   1.070810
    8       11.339612   0.000000
    9       13.775531   0.000000
   10       15.885858   0.000000

  0.3529412E+00  0.1764706E+00  0.3742002E-15  0.2442499E-02
    1       -1.885969   1.000000
    2       -0.207239   1.000000
    3        2.243911   1.000000
    4        3.682872   1.000000
    5        6.584129   1.000000
    6        6.657138   1.000000
    7        9.280928   0.424165
    8       11.108185   0.000000
    9       13.768766   0.000000
   10       16.607119   0.000000

  0.4117647E+00  0.1764706E+00  0.3742002E-15  0.1221250E-02
    1       -1.245924   1.000000
    2       -0.865057   1.000000
    3        2.164071   1.000000
    4        3.682020   1.000000
    5        6.470859   1.000000
    6        6.644365   1.000000
    7        9.653260  -0.078416
    8       10.850960   0.000000
    9       13.752459   0.000000
   10       16.924134   0.000000

  0.2352941E+00  0.2352941E+00  0.3742002E-15  0.1221250E-02
    1       -2.682408   1.000000
    2        0.879166   1.000000
    3        2.159609   1.000000
    4        3.787606   1.000000
    5        6.686011   1.000000
    6        7.057131   1.000000
    7        8.241733   1.000000
    8       11.356622   0.000000
    9       14.599721   0.000000
   10       15.219612   0.000000

  0.2941176E+00  0.2352941E+00  0.3742002E-15  0.2442499E-02
    1       -1.964370   1.000000
    2        0.335990   1.000000
    3        1.610272   1.000000
    4        3.885446   1.000000
    5        6.120377   1.000000
    6        7.417144   1.000000
    7        8.438587   1.023086
    8       11.058415   0.000000
    9       14.902530   0.000000
   10       15.880506   0.000000

  0.3529412E+00  0.2352941E+00  0.3742002E-15  0.2442499E-02
    1       -1.193207   1.000000
    2       -0.382474   1.000000
    3        1.363978   1.000000
    4        3.987937   1.000000
    5        5.775058   1.000000
    6        7.423525   1.000000
    7        9.033065   0.952522
    8       10.533574   0.000000
    9       14.884471   0.000000
   10       16.559227   0.000000

  0.2941176E+00  0.2941176E+00  0.3742002E-15  0.1221250E-02
    1       -1.223343   1.000000
    2        0.083938   1.000000
    3        0.837918   1.000000
    4        4.179121   1.000000
    5        5.450426   1.000000
    6        8.231315   1.000000
    7        8.258620   1.000000
    8       10.430457   0.000000
    9       15.719924   0.000000
   10       16.018125   0.000000

  0.3529412E+00  0.2941176E+00  0.3742002E-15  0.1221250E-02
    1       -0.492028   1.000000
    2       -0.439264   1.000000
    3        0.533636   1.000000
    4        4.413111   1.000000
    5        5.088082   1.000000
    6        8.186712   1.000000
    7        8.761344   1.000000
    8        9.952392   0.000000
    9       15.792384   0.000000
   10       16.358498   0.000000

  0.3742002E-15  0.3742002E-15  0.5882353E-01  0.4070832E-03
    1       -5.625875   1.000000
    2        3.971759   1.000000
    3        4.668428   1.000000
    4        4.668435   1.000000
    5        5.707887   1.000000
    6        9.191946   0.983373
    7        9.191952   0.519065
    8       11.451987   0.000000
    9       11.451992   0.000000
   10       14.305352   0.000000

  0.5882353E-01  0.3706497E-15  0.5882353E-01  0.2442499E-02
    1       -5.557149   1.000000
    2        4.015623   1.000000
    3        4.492234   1.000000
    4        4.695757   1.000000
    5        5.568595   1.000000
    6        9.144006   1.033416
    7        9.385914   0.092300
    8       11.189852   0.000000
    9       11.256753   0.000000
   10       14.499949   0.000000

  0.1176471E+00  0.3767996E-15  0.5882353E-01  0.2442499E-02
    1       -5.353404   1.000000
    2        4.006889   1.000000
    3        4.115474   1.000000
    4        4.765093   1.000000
    5        5.265366   1.000000
    6        9.020976   1.006536
    7        9.757862  -0.022490
    8       10.750000   0.000000
    9       10.885792   0.000000
   10       14.824206   0.000000

  0.1764706E+00  0.3607731E-15  0.5882353E-01  0.2442499E-02
    1       -5.021582   1.000000
    2        3.313697   1.000000
    3        4.160419   1.000000
    4        4.842286   1.000000
    5        4.992824   1.000000
    6        8.879774   1.000000
    7        9.678783  -0.002927
    8       10.566290   0.000000
    9       10.901066   0.000000
   10       15.027196   0.000000

  0.2352941E+00  0.3655633E-15  0.5882353E-01  0.2442499E-02
    1       -4.572228   1.000000
    2        2.508333   1.000000
    3        4.027573   1.000000
    4        4.847230   1.000000
    5        4.886595   1.000000
    6        8.779899   1.000000
    7        9.469259  -0.001411
    8       10.372576   0.000000
    9       11.341798   0.000000
   10       15.129268   0.000000

  0.2941176E+00  0.3668569E-15  0.5882353E-01  0.2442499E-02
    1       -4.018359   1.000000
    2        1.650398   1.000000
    3        3.796738   1.000000
    4        4.702784   1.000000
    5        4.876751   1.000000
    6        8.733419   1.000000
    7        9.597166  -0.001228
    8       10.329632   0.000000
    9       11.543610   0.000000
   10       15.402143   0.000000

  0.3529412E+00  0.3820644E-15  0.5882353E-01  0.2442499E-02
    1       -3.374976   1.000000
    2        0.773050   1.000000
    3        3.584026   1.000000
    4        4.492305   1.000000
    5        4.825383   1.000000
    6        8.707631   1.000000
    7       10.041116   0.000000
    8       10.428778   0.000000
    9       11.517017   0.000000
   10       15.689240   0.000000

  0.4117647E+00  0.3552411E-15  0.5882353E-01  0.2442499E-02
    1       -2.661023   1.000000
    2       -0.098919   1.000000
    3        3.432648   1.000000
    4        4.287488   1.000000
    5        4.765445   1.000000
    6        8.681925   1.000000
    7       10.500766   0.000000
    8       10.597140   0.000000
    9       11.571627   0.000000
   10       15.440579   0.000000

  0.4705882E+00  0.3565347E-15  0.5882353E-01  0.2442499E-02
    1       -1.927652   1.000000
    2       -0.911933   1.000000
    3        3.355348   1.000000
    4        4.165813   1.000000
    5        4.727217   1.000000
    6        8.663656   1.000000
    7       10.654230   0.000000
    8       10.722172   0.000000
    9       11.851201   0.000000
   10       15.256298   0.000000

  0.5882353E-01  0.5882353E-01  0.5882353E-01  0.2442499E-02
    1       -5.420892   1.000000
    2        4.087983   1.000000
    3        4.176199   1.000000
    4        4.716320   1.000000
    5        5.366323   1.000000
    6        9.024598   1.019428
    7        9.717849  -0.038270
    8       10.815929   0.000000
    9       10.996810   0.000000
   10       14.831193   0.000000

  0.1176471E+00  0.5882353E-01  0.5882353E-01  0.4884999E-02
    1       -5.153028   1.000000
    2        3.616095   1.000000
    3        4.162493   1.000000
    4        4.658787   1.000000
    5        5.202684   1.000000
    6        8.804749   1.000000
    7        9.977663   0.000000
    8       10.443393   0.000000
    9       10.889530   0.000000
   10       15.156034   0.000000

  0.1764706E+00  0.5882353E-01  0.5882353E-01  0.4884999E-02
    1       -4.762147   1.000000
    2        2.894440   1.000000
    3        4.101347   1.000000
    4        4.509148   1.000000
    5        5.231921   1.000000
    6        8.570846   1.000000
    7        9.712388  -0.006917
    8       10.345642   0.000000
    9       11.305676   0.000000
   10       15.244177   0.000000

  0.2352941E+00  0.5882353E-01  0.5882353E-01  0.4884999E-02
    1       -4.259884   1.000000
    2        2.084584   1.000000
    3        3.895426   1.000000
    4        4.342805   1.000000
    5        5.309462   1.000000
    6        8.419107   1.000000
    7        9.556873  -0.011521
    8       10.367535   0.000000
    9       11.725200   0.000000
   10       15.286294   0.000000

  0.2941176E+00  0.5882353E-01  0.5882353E-01  0.4884999E-02
    1       -3.660009   1.000000
    2        1.231591   1.000000
    3        3.679866   1.000000
    4        4.130326   1.000000
    5        5.306989   1.000000
    6        8.374985   1.000000
    7        9.650490  -0.023176
    8       10.557396   0.000000
    9       11.865365   0.000000
   10       15.646439   0.000000

  0.3529412E+00  0.5882353E-01  0.5882353E-01  0.4884999E-02
    1       -2.978582   1.000000
    2        0.363848   1.000000
    3        3.516478   1.000000
    4        3.910460   1.000000
    5        5.231994   1.000000
    6        8.345060   1.000000
    7        9.985866  -0.007148
    8       10.814576   0.000000
    9       11.866124   0.000000
   10       15.643070   0.000000

  0.4117647E+00  0.5882353E-01  0.5882353E-01  0.4884999E-02
    1       -2.240328   1.000000
    2       -0.488443   1.000000
    3        3.420307   1.000000
    4        3.746454   1.000000
    5        5.154417   1.000000
    6        8.302079   1.000000
    7       10.384682   0.000000
    8       10.950559   0.000000
    9       11.949801   0.000000
   10       15.512857   0.000000

  0.4705882E+00  0.5882353E-01  0.5882353E-01  0.2442499E-02
    1       -1.653689   1.000000
    2       -1.113517   1.000000
    3        3.389604   1.000000
    4        3.685633   1.000000
    5        5.123494   1.000000
    6        8.282030   1.000000
    7       10.576859   0.000000
    8       10.953113   0.000000
    9       12.034401   0.000000
   10       15.439342   0.000000

  0.1176471E+00  0.1176471E+00  0.5882353E-01  0.2442499E-02
    1       -4.825877   1.000000
    2        3.080689   1.000000
    3        4.116236   1.000000
    4        4.346116   1.000000
    5        5.371146   1.000000
    6        8.413492   1.000000
    7        9.938510  -0.014478
    8       10.229701   0.000000
    9       11.341139   0.000000
   10       15.642654   0.000000

  0.1764706E+00  0.1176471E+00  0.5882353E-01  0.4884999E-02
    1       -4.381376   1.000000
    2        2.424464   1.000000
    3        3.857506   1.000000
    4        4.112488   1.000000
    5        5.630322   1.000000
    6        8.025120   1.000000
    7        9.550797  -0.002139
    8       10.437057   0.000000
    9       11.986390   0.000000
   10       15.266210   0.000000

  0.2352941E+00  0.1176471E+00  0.5882353E-01  0.4884999E-02
    1       -3.831528   1.000000
    2        1.675352   1.000000
    3        3.549010   1.000000
    4        3.900602   1.000000
    5        5.829723   1.000000
    6        7.786773   1.000000
    7        9.300758   0.299604
    8       10.754790   0.000000
    9       12.473516   0.000000
   10       15.274095   0.000000

  0.2941176E+00  0.1176471E+00  0.5882353E-01  0.4884999E-02
    1       -3.190418   1.000000
    2        0.864968   1.000000
    3        3.281262   1.000000
    4        3.713678   1.000000
    5        5.840916   1.000000
    6        7.725805   1.000000
    7        9.322431   0.261823
    8       11.068084   0.000000
    9       12.656140   0.000000
   10       15.637630   0.000000

  0.3529412E+00  0.1176471E+00  0.5882353E-01  0.4884999E-02
    1       -2.475506   1.000000
    2        0.026321   1.000000
    3        3.080913   1.000000
    4        3.588083   1.000000
    5        5.736578   1.000000
    6        7.687105   1.000000
    7        9.670000  -0.021595
    8       11.202203   0.000000
    9       12.687431   0.000000
   10       15.871955   0.000000

  0.4117647E+00  0.1176471E+00  0.5882353E-01  0.4884999E-02
    1       -1.726330   1.000000
    2       -0.788378   1.000000
    3        2.973244   1.000000
    4        3.528165   1.000000
    5        5.652411   1.000000
    6        7.641947   1.000000
    7       10.096685   0.000000
    8       11.116691   0.000000
    9       12.687994   0.000000
   10       15.950636   0.000000

  0.1764706E+00  0.1764706E+00  0.5882353E-01  0.2442499E-02
    1       -3.888752   1.000000
    2        1.900471   1.000000
    3        3.339501   1.000000
    4        3.921534   1.000000
    5        6.096667   1.000000
    6        7.470351   1.000000
    7        9.170746   0.593301
    8       10.828292   0.000000
    9       12.792287   0.000000
   10       15.063772   0.000000

  0.2352941E+00  0.1764706E+00  0.5882353E-01  0.4884999E-02
    1       -3.296204   1.000000
    2        1.286194   1.000000
    3        2.831564   1.000000
    4        3.805162   1.000000
    5        6.422065   1.000000
    6        7.128369   1.000000
    7        8.891882   0.973612
    8       11.191377   0.000000
    9       13.438836   0.000000
   10       15.156275   0.000000

  0.2941176E+00  0.1764706E+00  0.5882353E-01  0.4884999E-02
    1       -2.618240   1.000000
    2        0.563071   1.000000
    3        2.455320   1.000000
    4        3.748510   1.000000
    5        6.231415   1.000000
    6        7.247586   1.000000
    7        8.937263   0.923119
    8       11.300889   0.000000
    9       13.693463   0.000000
   10       15.660398   0.000000

  0.3529412E+00  0.1764706E+00  0.5882353E-01  0.4884999E-02
    1       -1.874354   1.000000
    2       -0.230399   1.000000
    3        2.235783   1.000000
    4        3.735997   1.000000
    5        5.972305   1.000000
    6        7.315459   1.000000
    7        9.363570   0.254241
    8       11.077744   0.000000
    9       13.732518   0.000000
   10       16.194853   0.000000

  0.4117647E+00  0.1764706E+00  0.5882353E-01  0.2442499E-02
    1       -1.204699   1.000000
    2       -0.920919   1.000000
    3        2.164344   1.000000
    4        3.737434   1.000000
    5        5.872499   1.000000
    6        7.312448   1.000000
    7        9.700039  -0.076829
    8       10.831901   0.000000
    9       13.729738   0.000000
   10       16.415657   0.000000

  0.2352941E+00  0.2352941E+00  0.5882353E-01  0.2442499E-02
    1       -2.665934   1.000000
    2        0.872428   1.000000
    3        2.113667   1.000000
    4        3.823510   1.000000
    5        6.415417   1.000000
    6        7.155841   1.000000
    7        8.578997   1.060004
    8       11.329495   0.000000
    9       14.412691   0.000000
   10       15.155214   0.000000

  0.2941176E+00  0.2352941E+00  0.5882353E-01  0.4884999E-02
    1       -1.956556   1.000000
    2        0.320035   1.000000
    3        1.598112   1.000000
    4        3.916418   1.000000
    5        5.902692   1.000000
    6        7.612688   1.000000
    7        8.624489   1.074010
    8       11.046535   0.000000
    9       14.802355   0.000000
   10       15.716159   0.000000

  0.3529412E+00  0.2352941E+00  0.5882353E-01  0.4884999E-02
    1       -1.191603   1.000000
    2       -0.401847   1.000000
    3        1.369224   1.000000
    4        4.018082   1.000000
    5        5.576994   1.000000
    6        7.692354   1.000000
    7        9.115483   0.837726
    8       10.540702   0.000000
    9       14.818917   0.000000
   10       16.351040   0.000000

  0.2941176E+00  0.2941176E+00  0.5882353E-01  0.2442499E-02
    1       -1.227635   1.000000
    2        0.061198   1.000000
    3        0.852785   1.000000
    4        4.189495   1.000000
    5        5.343807   1.000000
    6        8.323269   1.000000
    7        8.452329   1.012697
    8       10.441903   0.000000
    9       15.650796   0.000000
   10       15.867523   0.000000

  0.3529412E+00  0.2941176E+00  0.5882353E-01  0.2442499E-02
    1       -0.532293   1.000000
    2       -0.436277   1.000000
    3        0.561349   1.000000
    4        4.409567   1.000000
    5        5.016271   1.000000
    6        8.347119   1.000000
    7        8.864069   1.018253
    8        9.971593   0.000000
    9       15.714121   0.000000
   10       16.239774   0.000000

  0.3742002E-15  0.3742002E-15  0.1176471E+00  0.4070832E-03
    1       -5.483345   1.000000
    2        3.440391   1.000000
    3        4.784454   1.000000
    4        4.784461   1.000000
    5        6.121714   1.000000
    6        8.842523   1.000000
    7        8.842530   1.080910
    8       11.154492   0.000000
    9       11.154490   0.000000
   10       14.898289   0.000000

  0.5882353E-01  0.3706497E-15  0.1176471E+00  0.2442499E-02
    1       -5.416483   1.000000
    2        3.477990   1.000000
    3        4.598372   1.000000
    4        4.802141   1.000000
    5        5.970721   1.000000
    6        8.770232   1.000000
    7        9.014684   0.978478
    8       11.038056   0.000000
    9       11.112529   0.000000
   10       15.015939   0.000000

  0.1176471E+00  0.3767996E-15  0.1176471E+00  0.2442499E-02
    1       -5.218437   1.000000
    2        3.560675   1.000000
    3        4.095158   1.000000
    4        4.838973   1.000000
    5        5.659046   1.000000
    6        8.616575   1.000000
    7        9.273904   0.395886
    8       10.921480   0.000000
    9       11.006720   0.000000
   10       15.015252   0.000000

  0.1764706E+00  0.3607731E-15  0.1176471E+00  0.2442499E-02
    1       -4.896317   1.000000
    2        3.278698   1.000000
    3        3.747809   1.000000
    4        4.853923   1.000000
    5        5.342098   1.000000
    6        8.508768   1.000000
    7        9.269493   0.263711
    8       10.872895   0.000000
    9       11.161441   0.000000
   10       14.925738   0.000000

  0.2352941E+00  0.3655633E-15  0.1176471E+00  0.2442499E-02
    1       -4.460763   1.000000
    2        2.462559   1.000000
    3        3.774801   1.000000
    4        4.809157   1.000000
    5        5.053958   1.000000
    6        8.536766   1.000000
    7        9.209925   0.282319
    8       10.744538   0.000000
    9       11.540588   0.000000
   10       14.831467   0.000000

  0.2941176E+00  0.3668569E-15  0.1176471E+00  0.2442499E-02
    1       -3.924481   1.000000
    2        1.585726   1.000000
    3        3.747733   1.000000
    4        4.704147   1.000000
    5        4.775925   1.000000
    6        8.698243   1.000000
    7        9.366795   0.044577
    8       10.655677   0.000000
    9       11.717842   0.000000
   10       15.034222   0.000000

  0.3529412E+00  0.3820644E-15  0.1176471E+00  0.2442499E-02
    1       -3.301010   1.000000
    2        0.700585   1.000000
    3        3.682569   1.000000
    4        4.507219   1.000000
    5        4.574848   1.000000
    6        8.910449   1.001857
    7        9.711329  -0.004632
    8       10.637138   0.000000
    9       11.757789   0.000000
   10       15.381387   0.000000

  0.4117647E+00  0.3552411E-15  0.1176471E+00  0.2442499E-02
    1       -2.604371   1.000000
    2       -0.171406   1.000000
    3        3.620564   1.000000
    4        4.288425   1.000000
    5        4.463766   1.000000
    6        9.077352   0.969362
    7       10.000977   0.000000
    8       10.689169   0.000000
    9       11.972647   0.000000
   10       15.247175   0.000000

  0.4705882E+00  0.3565347E-15  0.1176471E+00  0.2442499E-02
    1       -1.855102   1.000000
    2       -1.008378   1.000000
    3        3.585571   1.000000
    4        4.165885   1.000000
    5        4.401051   1.000000
    6        9.157930   0.891677
    7       10.099852   0.000000
    8       10.751712   0.000000
    9       12.343038   0.000000
   10       14.895310   0.000000

  0.5882353E-01  0.5882353E-01  0.1176471E+00  0.2442499E-02
    1       -5.284030   1.000000
    2        3.541672   1.000000
    3        4.268741   1.000000
    4        4.790140   1.000000
    5        5.775702   1.000000
    6        8.587688   1.000000
    7        9.305293   0.406028
    8       10.847783   0.000000
    9       11.094798   0.000000
   10       15.150558   0.000000
