    3    3   60    1
  0.7818830E+01  0.2980000E-09  0.2980000E-09  0.3050000E-09  0.5000000E-15
   1.0000000000000000E-004
  CAR 
 Name                                    
     11    216     10

  0.3742002E-15  0.3742002E-15  0.3742002E-15  0.2962963E-03
    1       -5.663041   1.000000
    2        5.289024   1.000000
    3        5.289026   1.000000
    4        6.177942   1.000000
    5        6.576245   1.000000
    6        9.479444  -0.000015
    7        9.479444  -0.000015
    8       12.050431   0.000000
    9       12.050435   0.000000
   10       14.106997   0.000000

  0.6666667E-01  0.3777220E-15  0.3742002E-15  0.1777778E-02
    1       -5.576950   1.000000
    2        5.060761   1.000000
    3        5.283619   1.000000
    4        6.203311   1.000000
    5        6.454085   1.000000
    6        9.459487  -0.000052
    7        9.691472  -0.000000
    8       11.632197  -0.000000
    9       11.667306  -0.000000
   10       14.548018   0.000000

  0.1333333E+00  0.3824091E-15  0.3742002E-15  0.1777778E-02
    1       -5.321109   1.000000
    2        4.428949   1.000000
    3        5.261147   1.000000
    4        6.177219   1.000000
    5        6.268424   1.000000
    6        9.403508  -0.000948
    7       10.225396  -0.000000
    8       10.941910  -0.000000
    9       11.068582  -0.000000
   10       15.220065   0.000000

  0.2000000E+00  0.3806431E-15  0.3742002E-15  0.1777778E-02
    1       -4.902611   1.000000
    2        3.523970   1.000000
    3        5.209375   1.000000
    4        5.876244   1.000000
    5        6.313910   1.000000
    6        9.322332  -0.017152
    7       10.424483  -0.000000
    8       10.611327  -0.000000
    9       10.909384  -0.000000
   10       15.721715   0.000000

  0.2666667E+00  0.3859547E-15  0.3742002E-15  0.1777778E-02
    1       -4.332454   1.000000
    2        2.471424   1.000000
    3        5.124551   1.000000
    4        5.619094   1.000000
    5        6.265166   1.000000
    6        9.230891   0.005458
    7       10.232181  -0.000000
    8       10.347893  -0.000000
    9       11.594768  -0.000000
   10       16.102297   0.000000

  0.3333333E+00  0.3635107E-15  0.3742002E-15  0.1777778E-02
    1       -3.624611   1.000000
    2        1.358664   1.000000
    3        5.021696   1.000000
    4        5.429032   1.000000
    5        6.118641   1.000000
    6        9.145160   0.533122
    7       10.245356  -0.000000
    8       10.354493  -0.000000
    9       12.132337   0.000000
   10       15.714853   0.000000

  0.4000000E+00  0.3993534E-15  0.3742002E-15  0.1777778E-02
    1       -2.795189   1.000000
    2        0.242578   1.000000
    3        4.929462   1.000000
    4        5.308118   1.000000
    5        5.952703   1.000000
    6        9.079280   0.959166
    7       10.236450  -0.000000
    8       10.635432  -0.000000
    9       12.412806   0.000000
   10       15.549970   0.000000

  0.4666667E+00  0.3562316E-15  0.3742002E-15  0.1777778E-02
    1       -1.863352   1.000000
    2       -0.836941   1.000000
    3        4.875427   1.000000
    4        5.250361   1.000000
    5        5.848858   1.000000
    6        9.043620   1.029903
    7       10.252965  -0.000000
    8       10.859734  -0.000000
    9       12.489246   0.000000
   10       15.614119   0.000000

  0.6666667E-01  0.6666667E-01  0.3742002E-15  0.1777778E-02
    1       -5.405963   1.000000
    2        4.658300   1.000000
    3        5.224966   1.000000
    4        6.259102   1.000000
    5        6.266239   1.000000
    6        9.411176  -0.000663
    7       10.070682  -0.000000
    8       11.147302  -0.000000
    9       11.192235  -0.000000
   10       15.201153   0.000000

  0.1333333E+00  0.6666667E-01  0.3742002E-15  0.3555556E-02
    1       -5.068737   1.000000
    2        3.938604   1.000000
    3        5.070063   1.000000
    4        5.985891   1.000000
    5        6.396432   1.000000
    6        9.313862  -0.020871
    7       10.566254  -0.000000
    8       10.696242  -0.000000
    9       10.752435  -0.000000
   10       15.794003   0.000000

  0.2000000E+00  0.6666667E-01  0.3742002E-15  0.3555556E-02
    1       -4.574287   1.000000
    2        2.997720   1.000000
    3        4.855456   1.000000
    4        5.728423   1.000000
    5        6.521884   1.000000
    6        9.184791   0.218076
    7       10.148260  -0.000000
    8       10.515420  -0.000000
    9       11.414857  -0.000000
   10       16.217320   0.000000

  0.2666667E+00  0.6666667E-01  0.3742002E-15  0.3555556E-02
    1       -3.935007   1.000000
    2        1.938144   1.000000
    3        4.621779   1.000000
    4        5.527859   1.000000
    5        6.564941   1.000000
    6        9.044356   1.029358
    7        9.989034  -0.000000
    8       10.482589  -0.000000
    9       12.082395   0.000000
   10       15.873211   0.000000

  0.3333333E+00  0.6666667E-01  0.3742002E-15  0.3555556E-02
    1       -3.165936   1.000000
    2        0.835673   1.000000
    3        4.414745   1.000000
    4        5.393550   1.000000
    5        6.519290   1.000000
    6        8.916252   1.002409
    7       10.037517  -0.000000
    8       10.595764  -0.000000
    9       12.548016   0.000000
   10       15.556443   0.000000

  0.4000000E+00  0.6666667E-01  0.3742002E-15  0.3555556E-02
    1       -2.284274   1.000000
    2       -0.257499   1.000000
    3        4.273936   1.000000
    4        5.319634   1.000000
    5        6.449476   1.000000
    6        8.825445   1.000023
    7       10.144012  -0.000000
    8       10.757825  -0.000000
    9       12.749455   0.000000
   10       15.524520   0.000000

  0.4666667E+00  0.6666667E-01  0.3742002E-15  0.1777778E-02
    1       -1.352746   1.000000
    2       -1.261283   1.000000
    3        4.224218   1.000000
    4        5.296456   1.000000
    5        6.418641   1.000000
    6        8.792445   1.000003
    7       10.191330  -0.000000
    8       10.835966  -0.000000
    9       12.790387   0.000000
   10       15.554113   0.000000

  0.1333333E+00  0.1333333E+00  0.3742002E-15  0.1777778E-02
    1       -4.655440   1.000000
    2        3.280210   1.000000
    3        4.598984   1.000000
    4        5.778495   1.000000
    5        6.678148   1.000000
    6        9.125766   0.691458
    7       10.116072  -0.000000
    8       10.583381  -0.000000
    9       11.386450  -0.000000
   10       16.595653   0.000000

  0.2000000E+00  0.1333333E+00  0.3742002E-15  0.3555556E-02
    1       -4.091515   1.000000
    2        2.443012   1.000000
    3        4.082259   1.000000
    4        5.614273   1.000000
    5        6.981373   1.000000
    6        8.876791   1.000404
    7        9.769018  -0.000000
    8       10.583299  -0.000000
    9       12.155049   0.000000
   10       15.977083   0.000000

  0.2666667E+00  0.1333333E+00  0.3742002E-15  0.3555556E-02
    1       -3.390449   1.000000
    2        1.459195   1.000000
    3        3.665088   1.000000
    4        5.513229   1.000000
    5        7.187873   1.000000
    6        8.612128   1.000000
    7        9.659755  -0.000000
    8       10.654334  -0.000000
    9       12.848782   0.000000
   10       15.557569   0.000000

  0.3333333E+00  0.1333333E+00  0.3742002E-15  0.3555556E-02
    1       -2.568417   1.000000
    2        0.407940   1.000000
    3        3.384062   1.000000
    4        5.467848   1.000000
    5        7.255754   1.000000
    6        8.385446   1.000000
    7        9.790912  -0.000000
    8       10.697896  -0.000000
    9       13.297677   0.000000
   10       15.426404   0.000000

  0.4000000E+00  0.1333333E+00  0.3742002E-15  0.3555556E-02
    1       -1.644480   1.000000
    2       -0.641932   1.000000
    3        3.243221   1.000000
    4        5.455421   1.000000
    5        7.253805   1.000000
    6        8.252759   1.000000
    7        9.984182  -0.000000
    8       10.676673  -0.000000
    9       13.462730   0.000000
   10       15.484280   0.000000

  0.2000000E+00  0.2000000E+00  0.3742002E-15  0.1777778E-02
    1       -3.465604   1.000000
    2        1.824961   1.000000
    3        3.248979   1.000000
    4        5.571784   1.000000
    5        7.482543   1.000000
    6        8.471655   1.000000
    7        9.459955  -0.000050
    8       10.680667  -0.000000
    9       12.988643   0.000000
   10       15.556073   0.000000

  0.2666667E+00  0.2000000E+00  0.3742002E-15  0.3555556E-02
    1       -2.711354   1.000000
    2        1.038211   1.000000
    3        2.624724   1.000000
    4        5.603426   1.000000
    5        7.872275   1.000000
    6        8.056571   1.000000
    7        9.372328  -0.003515
    8       10.687197  -0.000000
    9       13.736668   0.000000
   10       15.315191   0.000000

  0.3333333E+00  0.2000000E+00  0.3742002E-15  0.3555556E-02
    1       -1.848171   1.000000
    2        0.091295   1.000000
    3        2.292339   1.000000
    4        5.674010   1.000000
    5        7.730195   1.000000
    6        8.031239   1.000000
    7        9.581402  -0.000000
    8       10.545405  -0.000000
    9       14.166893   0.000000
   10       15.331676   0.000000

  0.4000000E+00  0.2000000E+00  0.3742002E-15  0.1777778E-02
    1       -0.958868   1.000000
    2       -0.838835   1.000000
    3        2.191243   1.000000
    4        5.712786   1.000000
    5        7.601875   1.000000
    6        8.054556   1.000000
    7        9.791308  -0.000000
    8       10.393843  -0.000000
    9       14.265366   0.000000
   10       15.417844   0.000000

  0.2666667E+00  0.2666667E+00  0.3742002E-15  0.1777778E-02
    1       -1.916480   1.000000
    2        0.586837   1.000000
    3        1.721178   1.000000
    4        5.795464   1.000000
    5        7.497433   1.000000
    6        8.505924   1.000000
    7        9.220036   0.036824
    8       10.504548  -0.000000
    9       14.542388   0.000000
   10       15.179686   0.000000

  0.3333333E+00  0.2666667E+00  0.3742002E-15  0.3555556E-02
    1       -1.043161   1.000000
    2       -0.115089   1.000000
    3        1.260190   1.000000
    4        6.017764   1.000000
    5        7.075693   1.000000
    6        8.787857   1.000002
    7        9.442462  -0.000135
    8       10.145386  -0.000000
    9       14.904799   0.000000
   10       15.273476   0.000000

  0.3333333E+00  0.3333333E+00  0.3742002E-15  0.5925926E-03
    1       -0.345637   1.000000
    2       -0.345635   1.000000
    3        0.645695   1.000000
    4        6.491872   1.000000
    5        6.491873   1.000000
    6        9.371524  -0.003625
    7        9.371525  -0.003625
    8        9.697468  -0.000000
    9       15.231203   0.000000
   10       15.231203   0.000000

  0.3742002E-15  0.3742002E-15  0.6666667E-01  0.5925926E-03
    1       -5.597983   1.000000
    2        5.342508   1.000000
    3        5.342510   1.000000
    4        5.466304   1.000000
    5        7.186215   1.000000
    6        9.328171  -0.014783
    7        9.328171  -0.014782
    8       11.942135   0.000000
    9       11.942135   0.000000
   10       14.342401   0.000000

  0.6666667E-01  0.3777220E-15  0.6666667E-01  0.3555556E-02
    1       -5.512576   1.000000
    2        5.108968   1.000000
    3        5.331118   1.000000
    4        5.472230   1.000000
    5        7.061970   1.000000
    6        9.301148  -0.026719
    7        9.547399  -0.000000
    8       11.614993  -0.000000
    9       11.651594  -0.000000
   10       14.724382   0.000000

  0.1333333E+00  0.3824091E-15  0.6666667E-01  0.3555556E-02
    1       -5.258820   1.000000
    2        4.465212   1.000000
    3        5.290601   1.000000
    4        5.473434   1.000000
    5        6.825931   1.000000
    6        9.235784  -0.005271
    7       10.019604  -0.000000
    8       11.086281  -0.000000
    9       11.161451  -0.000000
   10       15.276152   0.000000

  0.2000000E+00  0.3806431E-15  0.6666667E-01  0.3555556E-02
    1       -4.843827   1.000000
    2        3.547625   1.000000
    3        5.209816   1.000000
    4        5.439516   1.000000
    5        6.606096   1.000000
    6        9.172126   0.310577
    7       10.232329  -0.000000
    8       10.763233  -0.000000
    9       11.073409  -0.000000
   10       15.705431   0.000000

  0.2666667E+00  0.3859547E-15  0.6666667E-01  0.3555556E-02
    1       -4.278580   1.000000
    2        2.487221   1.000000
    3        5.090617   1.000000
    4        5.371121   1.000000
    5        6.392657   1.000000
    6        9.146171   0.524588
    7       10.173077  -0.000000
    8       10.497851  -0.000000
    9       11.606014  -0.000000
   10       15.807251   0.000000

  0.3333333E+00  0.3635107E-15  0.6666667E-01  0.3555556E-02
    1       -3.576924   1.000000
    2        1.372623   1.000000
    3        4.956279   1.000000
    4        5.299072   1.000000
    5        6.165978   1.000000
    6        9.158419   0.421323
    7       10.302773  -0.000000
    8       10.347187  -0.000000
    9       12.090835   0.000000
   10       15.429391   0.000000

  0.4000000E+00  0.3993534E-15  0.6666667E-01  0.3555556E-02
    1       -2.754541   1.000000
    2        0.259276   1.000000
    3        4.841447   1.000000
    4        5.247567   1.000000
    5        5.966048   1.000000
    6        9.182005   0.237384
    7       10.282473  -0.000000
    8       10.554792  -0.000000
    9       12.375487   0.000000
   10       15.152593   0.000000

  0.4666667E+00  0.3562316E-15  0.6666667E-01  0.3555556E-02
    1       -1.828692   1.000000
    2       -0.816010   1.000000
    3        4.775950   1.000000
    4        5.222922   1.000000
    5        5.849427   1.000000
    6        9.196059   0.146927
    7       10.265988  -0.000000
    8       10.746638  -0.000000
    9       12.489389   0.000000
   10       15.023096   0.000000

  0.6666667E-01  0.6666667E-01  0.6666667E-01  0.3555556E-02
    1       -5.342988   1.000000
    2        4.698994   1.000000
    3        5.258630   1.000000
    4        5.480036   1.000000
    5        6.908349   1.000000
    6        9.228010   0.012733
    7        9.914996  -0.000000
    8       11.208547  -0.000000
    9       11.284592  -0.000000
   10       15.272260   0.000000

  0.1333333E+00  0.6666667E-01  0.6666667E-01  0.7111111E-02
    1       -5.008563   1.000000
    2        3.968590   1.000000
    3        5.082200   1.000000
    4        5.463671   1.000000
    5        6.787381   1.000000
    6        9.097209   0.880189
    7       10.341692  -0.000000
    8       10.773776  -0.000000
    9       11.037634  -0.000000
   10       15.817332   0.000000

  0.2000000E+00  0.6666667E-01  0.6666667E-01  0.7111111E-02
    1       -4.518344   1.000000
    2        3.017439   1.000000
    3        4.843498   1.000000
    4        5.411281   1.000000
    5        6.724178   1.000000
    6        8.980733   1.019274
    7       10.259173  -0.000000
    8       10.556735  -0.000000
    9       11.442691  -0.000000
   10       16.047254   0.000000

  0.2666667E+00  0.6666667E-01  0.6666667E-01  0.7111111E-02
    1       -3.884692   1.000000
    2        1.952541   1.000000
    3        4.592153   1.000000
    4        5.348466   1.000000
    5        6.633607   1.000000
    6        8.938465   1.005590
    7       10.151459  -0.000000
    8       10.481880  -0.000000
    9       12.031637   0.000000
   10       15.637187   0.000000

  0.3333333E+00  0.6666667E-01  0.6666667E-01  0.7111111E-02
    1       -3.122421   1.000000
    2        0.850468   1.000000
    3        4.376053   1.000000
    4        5.300872   1.000000
    5        6.496409   1.000000
    6        8.955368   1.009744
    7       10.145508  -0.000000
    8       10.557391  -0.000000
    9       12.471932   0.000000
   10       15.267065   0.000000

  0.4000000E+00  0.6666667E-01  0.6666667E-01  0.7111111E-02
    1       -2.248097   1.000000
    2       -0.238428   1.000000
    3        4.231645   1.000000
    4        5.276365   1.000000
    5        6.373544   1.000000
    6        8.972454   1.015762
    7       10.183795  -0.000000
    8       10.696322  -0.000000
    9       12.698378   0.000000
   10       15.083681   0.000000

  0.4666667E+00  0.6666667E-01  0.6666667E-01  0.3555556E-02
    1       -1.289896   1.000000
    2       -1.269742   1.000000
    3        4.181077   1.000000
    4        5.269688   1.000000
    5        6.325271   1.000000
    6        8.975941   1.017202
    7       10.205996  -0.000000
    8       10.763614  -0.000000
    9       12.762568   0.000000
   10       15.028244   0.000000

  0.1333333E+00  0.1333333E+00  0.6666667E-01  0.3555556E-02
    1       -4.598825   1.000000
    2        3.304650   1.000000
    3        4.590270   1.000000
    4        5.429843   1.000000
    5        6.946469   1.000000
    6        8.825560   1.000024
    7       10.374372  -0.000000
    8       10.526123  -0.000000
    9       11.412097  -0.000000
   10       16.412405   0.000000

  0.2000000E+00  0.1333333E+00  0.6666667E-01  0.7111111E-02
    1       -4.039926   1.000000
    2        2.460562   1.000000
    3        4.064551   1.000000
    4        5.394484   1.000000
    5        7.148446   1.000000
    6        8.574374   1.000000
    7       10.076051  -0.000000
    8       10.573124  -0.000000
    9       12.082640   0.000000
   10       15.835710   0.000000

  0.2666667E+00  0.1333333E+00  0.6666667E-01  0.7111111E-02
    1       -3.345292   1.000000
    2        1.472938   1.000000
    3        3.649781   1.000000
    4        5.381621   1.000000
    5        7.196940   1.000000
    6        8.493589   1.000000
    7        9.911039  -0.000000
    8       10.639720  -0.000000
    9       12.724748   0.000000
   10       15.389813   0.000000

  0.3333333E+00  0.1333333E+00  0.6666667E-01  0.7111111E-02
    1       -2.530926   1.000000
    2        0.423793   1.000000
    3        3.372946   1.000000
    4        5.394663   1.000000
    5        7.084779   1.000000
    6        8.540182   1.000000
    7        9.919507  -0.000000
    8       10.678309  -0.000000
    9       13.175188   0.000000
   10       15.151707   0.000000

  0.4000000E+00  0.1333333E+00  0.6666667E-01  0.7111111E-02
    1       -1.615763   1.000000
    2       -0.619399   1.000000
    3        3.234575   1.000000
    4        5.413890   1.000000
    5        6.978288   1.000000
    6        8.567869   1.000000
    7       10.027843  -0.000000
    8       10.662394  -0.000000
    9       13.378642   0.000000
   10       15.077841   0.000000

  0.2000000E+00  0.2000000E+00  0.6666667E-01  0.3555556E-02
    1       -3.419921   1.000000
    2        1.839306   1.000000
    3        3.238413   1.000000
    4        5.420395   1.000000
    5        7.640939   1.000000
    6        8.125374   1.000000
    7        9.805867  -0.000000
    8       10.672413  -0.000000
    9       12.843192   0.000000
   10       15.448937   0.000000

  0.2666667E+00  0.2000000E+00  0.6666667E-01  0.7111111E-02
    1       -2.673177   1.000000
    2        1.049858   1.000000
    3        2.627473   1.000000
    4        5.499156   1.000000
    5        7.610467   1.000000
    6        8.184939   1.000000
    7        9.645894  -0.000000
    8       10.679922  -0.000000
    9       13.548973   0.000000
   10       15.184099   0.000000

  0.3333333E+00  0.2000000E+00  0.6666667E-01  0.7111111E-02
    1       -1.819366   1.000000
    2        0.107496   1.000000
    3        2.303236   1.000000
    4        5.603363   1.000000
    5        7.284469   1.000000
    6        8.457215   1.000000
    7        9.710810  -0.000000
    8       10.550389  -0.000000
    9       14.015808   0.000000
   10       15.090473   0.000000

  0.4000000E+00  0.2000000E+00  0.6666667E-01  0.3555556E-02
    1       -0.964174   1.000000
    2       -0.789523   1.000000
    3        2.204399   1.000000
    4        5.657073   1.000000
    5        7.151226   1.000000
    6        8.527585   1.000000
    7        9.849465  -0.000000
    8       10.417784  -0.000000
    9       14.157945   0.000000
   10       15.096597   0.000000

  0.2666667E+00  0.2666667E+00  0.6666667E-01  0.3555556E-02
    1       -1.887512   1.000000
    2        0.593637   1.000000
    3        1.745042   1.000000
    4        5.703628   1.000000
    5        7.262163   1.000000
    6        8.622175   1.000000
    7        9.472941  -0.000023
    8       10.511718  -0.000000
    9       14.313328   0.000000
   10       15.062952   0.000000

  0.3333333E+00  0.2666667E+00  0.6666667E-01  0.7111111E-02
    1       -1.027957   1.000000
    2       -0.101864   1.000000
    3        1.295086   1.000000
    4        5.932489   1.000000
    5        6.875009   1.000000
    6        8.974293   1.016514
    7        9.568390  -0.000000
    8       10.178634  -0.000000
    9       14.745522   0.000000
   10       15.065732   0.000000

  0.3333333E+00  0.3333333E+00  0.6666667E-01  0.1185185E-02
    1       -0.345471   1.000000
    2       -0.345469   1.000000
    3        0.711101   1.000000
    4        6.370188   1.000000
    5        6.370189   1.000000
    6        9.509209  -0.000002
    7        9.509210  -0.000002
    8        9.730574  -0.000000
    9       15.055129   0.000000
   10       15.055129   0.000000

  0.3742002E-15  0.3742002E-15  0.1333333E+00  0.5925926E-03
    1       -5.405969   1.000000
    2        4.508251   1.000000
    3        5.502201   1.000000
    4        5.502203   1.000000
    5        7.866202   1.000000
    6        8.957907   1.010522
    7        8.957908   1.010522
    8       11.630026  -0.000000
    9       11.630027  -0.000000
   10       14.968636   0.000000

  0.6666667E-01  0.3777220E-15  0.1333333E+00  0.3555556E-02
    1       -5.322699   1.000000
    2        4.536149   1.000000
    3        5.251399   1.000000
    4        5.471146   1.000000
    5        7.635863   1.000000
    6        8.927952   1.003811
    7        9.243342  -0.018105
    8       11.465931  -0.000000
    9       11.515828  -0.000000
   10       15.190741   0.000000

  0.1333333E+00  0.3824091E-15  0.1333333E+00  0.3555556E-02
    1       -5.075366   1.000000
    2        4.536772   1.000000
    3        4.645879   1.000000
    4        5.372703   1.000000
    5        7.268420   1.000000
    6        8.880356   1.000482
    7        9.693080  -0.000000
    8       11.215330  -0.000000
    9       11.278479  -0.000000
   10       15.476322   0.000000

  0.2000000E+00  0.3806431E-15  0.1333333E+00  0.3555556E-02
    1       -4.671220   1.000000
    2        3.608335   1.000000
    3        4.732642   1.000000
    4        5.205253   1.000000
    5        6.917548   1.000000
    6        8.894861   1.000957
    7        9.924011  -0.000000
    8       11.034541  -0.000000
    9       11.290479  -0.000000
   10       15.609948   0.000000

  0.2666667E+00  0.3859547E-15  0.1333333E+00  0.3555556E-02
    1       -4.121233   1.000000
    2        2.530316   1.000000
    3        4.855956   1.000000
    4        4.992780   1.000000
    5        6.572548   1.000000
    6        9.011283   1.032547
    7        9.998039  -0.000000
    8       10.813188  -0.000000
    9       11.676004  -0.000000
   10       15.324784   0.000000

  0.3333333E+00  0.3635107E-15  0.1333333E+00  0.3555556E-02
    1       -3.438964   1.000000
    2        1.414587   1.000000
    3        4.780761   1.000000
    4        4.976084   1.000000
    5        6.246133   1.000000
    6        9.209252   0.079204
    7       10.141787  -0.000000
    8       10.613699  -0.000000
    9       12.067331   0.000000
   10       14.879496   0.000000

  0.4000000E+00  0.3993534E-15  0.1333333E+00  0.3555556E-02
    1       -2.639594   1.000000
    2        0.313017   1.000000
    3        4.613914   1.000000
    4        5.079188   1.000000
    5        5.981893   1.000000
    6        9.432392  -0.000230
    7       10.337915  -0.000000
    8       10.436993  -0.000000
    9       12.345980   0.000000
   10       14.510063   0.000000

  0.4666667E+00  0.3562316E-15  0.1333333E+00  0.3555556E-02
    1       -1.741643   1.000000
    2       -0.739175   1.000000
    3        4.523077   1.000000
    4        5.145319   1.000000
    5        5.828689   1.000000
    6        9.599184  -0.000000
    7       10.309979  -0.000000
    8       10.471419  -0.000000
    9       12.511249   0.000000
   10       14.277519   0.000000

  0.6666667E-01  0.6666667E-01  0.1333333E+00  0.3555556E-02
    1       -5.157393   1.000000
    2        4.587340   1.000000
    3        4.817769   1.000000
    4        5.357967   1.000000
    5        7.406760   1.000000
    6        8.823925   1.000021
    7        9.633384  -0.000000
    8       11.228931  -0.000000
    9       11.371079  -0.000000
   10       15.549337   0.000000

  0.1333333E+00  0.6666667E-01  0.1333333E+00  0.7111111E-02
    1       -4.831650   1.000000
    2        4.051103   1.000000
    3        4.677170   1.000000
    4        5.114326   1.000000
    5        7.212282   1.000000
    6        8.679249   1.000000
    7       10.031223  -0.000000
    8       10.990756  -0.000000
    9       11.287675  -0.000000
   10       15.884753   0.000000

  0.2000000E+00  0.6666667E-01  0.1333333E+00  0.7111111E-02
    1       -4.354532   1.000000
    2        3.070699   1.000000
    3        4.733719   1.000000
    4        4.872725   1.000000
    5        6.999645   1.000000
    6        8.661033   1.000000
    7       10.166625  -0.000000
    8       10.830932  -0.000000
    9       11.536881  -0.000000
   10       15.679491   0.000000

  0.2666667E+00  0.6666667E-01  0.1333333E+00  0.7111111E-02
    1       -3.738374   1.000000
    2        1.993858   1.000000
    3        4.496633   1.000000
    4        4.941668   1.000000
    5        6.714191   1.000000
    6        8.819815   1.000017
    7       10.240381  -0.000000
    8       10.660037  -0.000000
    9       11.979319   0.000000
   10       15.172541   0.000000

  0.3333333E+00  0.6666667E-01  0.1333333E+00  0.7111111E-02
    1       -2.997635   1.000000
    2        0.896338   1.000000
    3        4.261904   1.000000
    4        5.057271   1.000000
    5        6.418518   1.000000
    6        9.078346   0.962403
    7       10.365113  -0.000000
    8       10.499300  -0.000000
    9       12.360670   0.000000
   10       14.725210   0.000000

  0.4000000E+00  0.6666667E-01  0.1333333E+00  0.7111111E-02
    1       -2.148775   1.000000
    2       -0.175346   1.000000
    3        4.107649   1.000000
    4        5.154284   1.000000
    5        6.194217   1.000000
    6        9.322976  -0.016882
    7       10.314441  -0.000000
    8       10.536683  -0.000000
    9       12.617812   0.000000
   10       14.409792   0.000000

  0.4666667E+00  0.6666667E-01  0.1333333E+00  0.3555556E-02
    1       -1.293873   1.000000
    2       -1.105774   1.000000
    3        4.054162   1.000000
    4        5.195297   1.000000
    5        6.108132   1.000000
    6        9.430851  -0.000249
    7       10.247535  -0.000000
    8       10.590340  -0.000000
    9       12.720421   0.000000
   10       14.281222   0.000000

  0.1333333E+00  0.1333333E+00  0.1333333E+00  0.3555556E-02
    1       -4.432893   1.000000
    2        3.374740   1.000000
    3        4.507106   1.000000
    4        4.833408   1.000000
    5        7.383105   1.000000
    6        8.306780   1.000000
    7       10.364339  -0.000000
    8       10.742939  -0.000000
    9       11.506949  -0.000000
   10       16.057993   0.000000

  0.2000000E+00  0.1333333E+00  0.1333333E+00  0.7111111E-02
    1       -3.889551   1.000000
    2        2.510299   1.000000
    3        3.998935   1.000000
    4        4.929504   1.000000
    5        7.403606   1.000000
    6        8.180226   1.000000
    7       10.452397  -0.000000
    8       10.605082  -0.000000
    9       11.970764   0.000000
   10       15.526875   0.000000

  0.2666667E+00  0.1333333E+00  0.1333333E+00  0.7111111E-02
    1       -3.214969   1.000000
    2        1.513438   1.000000
    3        3.601809   1.000000
    4        5.061387   1.000000
    5        7.071039   1.000000
    6        8.489031   1.000000
    7       10.372242  -0.000000
    8       10.593231  -0.000000
    9       12.491971   0.000000
   10       15.025950   0.000000

  0.3333333E+00  0.1333333E+00  0.1333333E+00  0.7111111E-02
    1       -2.425131   1.000000
    2        0.473467   1.000000
    3        3.338340   1.000000
    4        5.198439   1.000000
    5        6.726249   1.000000
    6        8.870215   1.000290
    7       10.248198  -0.000000
    8       10.620838  -0.000000
    9       12.923868   0.000000
   10       14.646536   0.000000

  0.4000000E+00  0.1333333E+00  0.1333333E+00  0.7111111E-02
    1       -1.544132   1.000000
    2       -0.541436   1.000000
    3        3.206509   1.000000
    4        5.299445   1.000000
    5        6.511275   1.000000
    6        9.132178   0.640778
    7       10.154025  -0.000000
    8       10.633006  -0.000000
    9       13.192438   0.000000
   10       14.410959   0.000000

  0.2000000E+00  0.2000000E+00  0.1333333E+00  0.3555556E-02
    1       -3.287801   1.000000
    2        1.880199   1.000000
    3        3.205079   1.000000
    4        5.066171   1.000000
    5        7.557488   1.000000
    6        8.017245   1.000000
    7       10.357470  -0.000000
    8       10.638309  -0.000000
    9       12.556414   0.000000
   10       15.192928   0.000000

  0.2666667E+00  0.2000000E+00  0.1333333E+00  0.7111111E-02
    1       -2.564371   1.000000
    2        1.083920   1.000000
    3        2.635836   1.000000
    4        5.237321   1.000000
    5        7.108464   1.000000
    6        8.513322   1.000000
    7       10.175437  -0.000000
    8       10.656704  -0.000000
    9       13.159405   0.000000
   10       14.880091   0.000000
