   24   24   60    1
  0.8144829E+01  0.6023873E-09  0.6023873E-09  0.6222041E-09  0.5000000E-15
   1.0000000000000000E-004
  CAR 
 Name                                    
     94    125     60

  0.3742002E-15  0.3742002E-15  0.3742002E-15  0.1371742E-02
    1       -5.701675   1.000000
    2       -3.556981   1.000000
    3       -2.508139   1.000000
    4       -2.384891   1.000000
    5       -2.257543   1.000000
    6       -1.792796   1.000000
    7       -1.762387   1.000000
    8       -1.754064   1.000000
    9       -1.369191   1.000000
   10       -1.339379   1.000000
   11       -1.300246   1.000000
   12        0.007859   1.000000
   13        0.384078   1.000000
   14        0.479183   1.000000
   15        0.550889   1.000000
   16        2.408350   1.000000
   17        2.453874   1.000000
   18        2.587551   1.000000
   19        2.867363   1.000000
   20        3.116633   1.000000
   21        3.252106   1.000000
   22        3.590262   1.000000
   23        3.885303   1.000000
   24        3.985451   1.000000
   25        4.257471   1.000000
   26        4.488664   1.000000
   27        4.516794   1.000000
   28        4.547806   1.000000
   29        4.570178   1.000000
   30        4.593873   1.000000
   31        4.595621   1.000000
   32        4.646466   1.000000
   33        4.880250   1.000000
   34        4.937615   1.000000
   35        4.942726   1.000000
   36        5.078036   1.000000
   37        5.847368   1.000000
   38        6.516057   1.000000
   39        6.590227   1.000000
   40        7.195752   1.000000
   41        7.223313   1.000000
   42        7.348801   1.000000
   43        7.363614   1.000000
   44        8.297760   1.000000
   45        8.298596   1.000000
   46        8.392153   1.000000
   47        8.978831   1.004855
   48        8.989321   1.006991
   49        9.471234  -0.000306
   50       10.050068  -0.000000
   51       10.155427  -0.000000
   52       10.243769  -0.000000
   53       10.257577  -0.000000
   54       10.328135  -0.000000
   55       10.409709  -0.000000
   56       10.443892  -0.000000
   57       10.510028  -0.000000
   58       10.575218  -0.000000
   59       11.098028  -0.000000
   60       11.255375  -0.000000

  0.1111111E+00  0.3747219E-15  0.3742002E-15  0.5486968E-02
    1       -5.641940   1.000000
    2       -3.537352   1.000000
    3       -2.532390   1.000000
    4       -2.371100   1.000000
    5       -2.351542   1.000000
    6       -2.294886   1.000000
    7       -1.956623   1.000000
    8       -1.950725   1.000000
    9       -1.076296   1.000000
   10       -1.071936   1.000000
   11       -0.718781   1.000000
   12        0.091722   1.000000
   13        0.429096   1.000000
   14        0.447274   1.000000
   15        0.631594   1.000000
   16        2.435323   1.000000
   17        2.468420   1.000000
   18        2.624537   1.000000
   19        2.864706   1.000000
   20        3.155886   1.000000
   21        3.229195   1.000000
   22        3.636433   1.000000
   23        3.771607   1.000000
   24        3.822540   1.000000
   25        3.925918   1.000000
   26        4.005080   1.000000
   27        4.330763   1.000000
   28        4.520955   1.000000
   29        4.583574   1.000000
   30        4.597400   1.000000
   31        4.811188   1.000000
   32        4.860345   1.000000
   33        4.897173   1.000000
   34        4.930527   1.000000
   35        5.297138   1.000000
   36        5.431987   1.000000
   37        5.720216   1.000000
   38        5.929772   1.000000
   39        5.995205   1.000000
   40        7.205786   1.000000
   41        7.431133   1.000000
   42        7.740771   1.000000
   43        7.836739   1.000000
   44        8.050963   1.000000
   45        8.094676   1.000000
   46        8.375264   1.000000
   47        8.960187   1.002371
   48        9.163414   0.741581
   49        9.496344  -0.000079
   50        9.980860  -0.000000
   51       10.052258  -0.000000
   52       10.189858  -0.000000
   53       10.202988  -0.000000
   54       10.311558  -0.000000
   55       10.397634  -0.000000
   56       10.457601  -0.000000
   57       10.489701  -0.000000
   58       10.517702  -0.000000
   59       10.856049  -0.000000
   60       11.074619  -0.000000

  0.2222222E+00  0.3915532E-15  0.3742002E-15  0.5486968E-02
    1       -5.464339   1.000000
    2       -3.478067   1.000000
    3       -3.054315   1.000000
    4       -2.654147   1.000000
    5       -2.335499   1.000000
    6       -2.320505   1.000000
    7       -2.190612   1.000000
    8       -2.186925   1.000000
    9       -0.611513   1.000000
   10       -0.604634   1.000000
   11        0.080416   1.000000
   12        0.343248   1.000000
   13        0.368161   1.000000
   14        0.380436   1.000000
   15        1.025337   1.000000
   16        2.486143   1.000000
   17        2.500837   1.000000
   18        2.722527   1.000000
   19        2.759530   1.000000
   20        3.077497   1.000000
   21        3.090403   1.000000
   22        3.241764   1.000000
   23        3.265720   1.000000
   24        3.766784   1.000000
   25        3.876695   1.000000
   26        4.043454   1.000000
   27        4.054545   1.000000
   28        4.462594   1.000000
   29        4.613646   1.000000
   30        4.695824   1.000000
   31        4.766404   1.000000
   32        4.820529   1.000000
   33        4.919251   1.000000
   34        4.997694   1.000000
   35        5.070710   1.000000
   36        5.255471   1.000000
   37        5.412063   1.000000
   38        5.986249   1.000000
   39        6.080748   1.000000
   40        6.834673   1.000000
   41        7.525268   1.000000
   42        7.539145   1.000000
   43        7.637505   1.000000
   44        8.403897   1.000000
   45        8.478483   1.000000
   46        8.748650   1.000000
   47        8.900667   1.000139
   48        9.567810  -0.000001
   49        9.619265  -0.000000
   50        9.676746  -0.000000
   51        9.693706  -0.000000
   52        9.909049  -0.000000
   53       10.062490  -0.000000
   54       10.251997  -0.000000
   55       10.338467  -0.000000
   56       10.417125  -0.000000
   57       10.426163  -0.000000
   58       10.480781  -0.000000
   59       10.569515  -0.000000
   60       10.753071  -0.000000

  0.3333333E+00  0.4235786E-15  0.3742002E-15  0.5486968E-02
    1       -5.173528   1.000000
    2       -3.704994   1.000000
    3       -3.378186   1.000000
    4       -2.854116   1.000000
    5       -2.355791   1.000000
    6       -2.353688   1.000000
    7       -2.296462   1.000000
    8       -2.294082   1.000000
    9       -0.090760   1.000000
   10       -0.081595   1.000000
   11        0.281245   1.000000
   12        0.295952   1.000000
   13        0.705920   1.000000
   14        0.928155   1.000000
   15        1.626871   1.000000
   16        2.266412   1.000000
   17        2.393066   1.000000
   18        2.449254   1.000000
   19        2.525420   1.000000
   20        2.529133   1.000000
   21        3.015211   1.000000
   22        3.190871   1.000000
   23        3.418914   1.000000
   24        3.438635   1.000000
   25        3.884658   1.000000
   26        4.011472   1.000000
   27        4.213239   1.000000
   28        4.333979   1.000000
   29        4.359445   1.000000
   30        4.498949   1.000000
   31        4.660376   1.000000
   32        4.680417   1.000000
   33        4.793903   1.000000
   34        4.930106   1.000000
   35        5.035614   1.000000
   36        5.038664   1.000000
   37        5.130851   1.000000
   38        6.268131   1.000000
   39        6.744992   1.000000
   40        6.746937   1.000000
   41        7.010298   1.000000
   42        7.022827   1.000000
   43        7.957122   1.000000
   44        8.491488   1.000000
   45        8.811506   1.000000
   46        9.105212   1.008139
   47        9.120327   0.970156
   48        9.127045   0.946511
   49        9.442299  -0.001216
   50        9.645082  -0.000000
   51        9.682670  -0.000000
   52        9.951260  -0.000000
   53        9.974582  -0.000000
   54       10.043679  -0.000000
   55       10.146326  -0.000000
   56       10.183465  -0.000000
   57       10.340981  -0.000000
   58       10.363565  -0.000000
   59       10.385549  -0.000000
   60       10.582696  -0.000000

  0.4444444E+00  0.3534447E-15  0.3742002E-15  0.5486968E-02
    1       -4.776790   1.000000
    2       -4.283553   1.000000
    3       -3.237584   1.000000
    4       -3.059204   1.000000
    5       -2.439334   1.000000
    6       -2.438646   1.000000
    7       -2.269850   1.000000
    8       -2.267568   1.000000
    9        0.228370   1.000000
   10        0.234644   1.000000
   11        0.368294   1.000000
   12        0.374773   1.000000
   13        1.211778   1.000000
   14        1.718300   1.000000
   15        1.723136   1.000000
   16        1.858570   1.000000
   17        1.904388   1.000000
   18        2.340653   1.000000
   19        2.509085   1.000000
   20        2.537516   1.000000
   21        2.566070   1.000000
   22        3.187243   1.000000
   23        3.378645   1.000000
   24        3.549191   1.000000
   25        3.552773   1.000000
   26        3.805842   1.000000
   27        4.264717   1.000000
   28        4.314171   1.000000
   29        4.353481   1.000000
   30        4.368708   1.000000
   31        4.449727   1.000000
   32        4.671942   1.000000
   33        4.727208   1.000000
   34        4.765558   1.000000
   35        5.087401   1.000000
   36        5.138317   1.000000
   37        5.386265   1.000000
   38        5.803205   1.000000
   39        6.688874   1.000000
   40        6.693641   1.000000
   41        7.319735   1.000000
   42        7.325345   1.000000
   43        8.291049   1.000000
   44        8.494865   1.000000
   45        8.593757   1.000000
   46        8.638869   1.000000
   47        8.704695   1.000000
   48        8.943356   1.001156
   49        9.666567  -0.000000
   50        9.700953  -0.000000
   51        9.725539  -0.000000
   52        9.844104  -0.000000
   53        9.969112  -0.000000
   54        9.998870  -0.000000
   55       10.093188  -0.000000
   56       10.268230  -0.000000
   57       10.312811  -0.000000
   58       10.318242  -0.000000
   59       10.492946  -0.000000
   60       10.592718  -0.000000

  0.1111111E+00  0.1111111E+00  0.3742002E-15  0.2743484E-02
    1       -5.523238   1.000000
    2       -3.496865   1.000000
    3       -2.671359   1.000000
    4       -2.662531   1.000000
    5       -2.578856   1.000000
    6       -2.443094   1.000000
    7       -2.254690   1.000000
    8       -1.566059   1.000000
    9       -1.255711   1.000000
   10       -0.347745   1.000000
   11       -0.246545   1.000000
   12        0.210108   1.000000
   13        0.258925   1.000000
   14        0.734940   1.000000
   15        0.745660   1.000000
   16        2.451731   1.000000
   17        2.485508   1.000000
   18        2.734359   1.000000
   19        2.811642   1.000000
   20        3.026977   1.000000
   21        3.105102   1.000000
   22        3.329912   1.000000
   23        3.728442   1.000000
   24        3.801475   1.000000
   25        4.012084   1.000000
   26        4.018494   1.000000
   27        4.033602   1.000000
   28        4.070778   1.000000
   29        4.384028   1.000000
   30        4.751038   1.000000
   31        4.866187   1.000000
   32        4.899285   1.000000
   33        4.981110   1.000000
   34        5.280951   1.000000
   35        5.312006   1.000000
   36        5.346167   1.000000
   37        5.465784   1.000000
   38        5.496496   1.000000
   39        6.065339   1.000000
   40        6.964387   1.000000
   41        7.476118   1.000000
   42        7.561015   1.000000
   43        8.090353   1.000000
   44        8.132788   1.000000
   45        8.323431   1.000000
   46        8.514790   1.000000
   47        8.909902   1.000228
   48        9.485608  -0.000143
   49        9.544552  -0.000004
   50        9.836072  -0.000000
   51        9.843434  -0.000000
   52        9.987823  -0.000000
   53       10.078237  -0.000000
   54       10.266001  -0.000000
   55       10.282720  -0.000000
   56       10.403030  -0.000000
   57       10.444496  -0.000000
   58       10.547622  -0.000000
   59       10.756120  -0.000000
   60       10.840390  -0.000000

  0.2222222E+00  0.1111111E+00  0.3742002E-15  0.5486968E-02
    1       -5.288972   1.000000
    2       -3.416595   1.000000
    3       -3.347301   1.000000
    4       -2.894869   1.000000
    5       -2.722711   1.000000
    6       -2.535340   1.000000
    7       -2.118561   1.000000
    8       -1.629211   1.000000
    9       -0.844675   1.000000
   10       -0.039032   1.000000
   11        0.166878   1.000000
   12        0.498340   1.000000
   13        0.606104   1.000000
   14        0.796800   1.000000
   15        1.265078   1.000000
   16        2.238625   1.000000
   17        2.444983   1.000000
   18        2.575232   1.000000
   19        2.623402   1.000000
   20        2.913406   1.000000
   21        2.999856   1.000000
   22        3.219254   1.000000
   23        3.545366   1.000000
   24        3.554045   1.000000
   25        3.860597   1.000000
   26        4.051474   1.000000
   27        4.077116   1.000000
   28        4.215756   1.000000
   29        4.324137   1.000000
   30        4.506054   1.000000
   31        4.580539   1.000000
   32        4.843708   1.000000
   33        4.843838   1.000000
   34        4.923321   1.000000
   35        5.134337   1.000000
   36        5.160639   1.000000
   37        5.381202   1.000000
   38        5.966859   1.000000
   39        6.595647   1.000000
   40        6.744510   1.000000
   41        6.856628   1.000000
   42        7.687454   1.000000
   43        7.820797   1.000000
   44        8.242990   1.000000
   45        8.813609   1.000001
   46        8.896183   1.000109
   47        9.341496  -0.028493
   48        9.381460  -0.011533
   49        9.462637  -0.000470
   50        9.632014  -0.000000
   51        9.687155  -0.000000
   52        9.734454  -0.000000
   53       10.008547  -0.000000
   54       10.094157  -0.000000
   55       10.212326  -0.000000
   56       10.291762  -0.000000
   57       10.364148  -0.000000
   58       10.381178  -0.000000
   59       10.451152  -0.000000
   60       10.516305  -0.000000

  0.3333333E+00  0.1111111E+00  0.3742002E-15  0.5486968E-02
    1       -4.945052   1.000000
    2       -3.963254   1.000000
    3       -3.295881   1.000000
    4       -3.031925   1.000000
    5       -2.939656   1.000000
    6       -2.545417   1.000000
    7       -1.998010   1.000000
    8       -1.741025   1.000000
    9       -0.280071   1.000000
   10       -0.236994   1.000000
   11        0.639058   1.000000
   12        0.813367   1.000000
   13        1.011051   1.000000
   14        1.343280   1.000000
   15        1.529638   1.000000
   16        1.937861   1.000000
   17        2.134122   1.000000
   18        2.437446   1.000000
   19        2.647512   1.000000
   20        2.655296   1.000000
   21        2.820975   1.000000
   22        3.093438   1.000000
   23        3.192427   1.000000
   24        3.494262   1.000000
   25        3.789481   1.000000
   26        3.945032   1.000000
   27        4.256731   1.000000
   28        4.269084   1.000000
   29        4.278335   1.000000
   30        4.355380   1.000000
   31        4.413530   1.000000
   32        4.434776   1.000000
   33        4.762188   1.000000
   34        4.801542   1.000000
   35        5.093969   1.000000
   36        5.324450   1.000000
   37        5.401894   1.000000
   38        5.995817   1.000000
   39        6.356668   1.000000
   40        6.695171   1.000000
   41        7.304466   1.000000
   42        7.431951   1.000000
   43        8.180598   1.000000
   44        8.382191   1.000000
   45        8.682435   1.000000
   46        8.837877   1.000003
   47        8.879070   1.000041
   48        9.239434   0.152477
   49        9.480922  -0.000184
   50        9.490216  -0.000111
   51        9.766470  -0.000000
   52        9.777315  -0.000000
   53       10.056866  -0.000000
   54       10.102922  -0.000000
   55       10.190936  -0.000000
   56       10.193895  -0.000000
   57       10.209727  -0.000000
   58       10.348620  -0.000000
   59       10.423881  -0.000000
   60       10.476274  -0.000000

  0.4444444E+00  0.1111111E+00  0.3742002E-15  0.5486968E-02
    1       -4.499850   1.000000
    2       -4.499762   1.000000
    3       -3.138800   1.000000
    4       -3.135807   1.000000
    5       -3.077337   1.000000
    6       -2.542560   1.000000
    7       -1.947498   1.000000
    8       -1.781035   1.000000
    9       -0.311085   1.000000
   10        0.069396   1.000000
   11        0.812836   1.000000
   12        0.895284   1.000000
   13        1.131931   1.000000
   14        1.539354   1.000000
   15        1.559742   1.000000
   16        2.118724   1.000000
   17        2.123975   1.000000
   18        2.374197   1.000000
   19        2.411127   1.000000
   20        2.696526   1.000000
   21        2.704726   1.000000
   22        2.712545   1.000000
   23        3.080274   1.000000
   24        3.556290   1.000000
   25        3.578915   1.000000
   26        3.937022   1.000000
   27        4.174513   1.000000
   28        4.256620   1.000000
   29        4.314826   1.000000
   30        4.439714   1.000000
   31        4.458771   1.000000
   32        4.523910   1.000000
   33        4.587923   1.000000
   34        4.650096   1.000000
   35        5.311628   1.000000
   36        5.314488   1.000000
   37        5.584584   1.000000
   38        5.627914   1.000000
   39        6.147908   1.000000
   40        6.955645   1.000000
   41        7.148213   1.000000
   42        7.957109   1.000000
   43        8.328404   1.000000
   44        8.441829   1.000000
   45        8.531637   1.000000
   46        8.536087   1.000000
   47        8.757520   1.000000
   48        8.769039   1.000000
   49        9.498909  -0.000068
   50        9.500442  -0.000063
   51        9.930899  -0.000000
   52        9.931917  -0.000000
   53       10.030253  -0.000000
   54       10.034723  -0.000000
   55       10.050846  -0.000000
   56       10.114365  -0.000000
   57       10.115404  -0.000000
   58       10.307912  -0.000000
   59       10.390415  -0.000000
   60       10.704668  -0.000000

 -0.4444444E+00  0.1111111E+00  0.3742002E-15  0.5486968E-02
    1       -4.945203   1.000000
    2       -3.963322   1.000000
    3       -3.301110   1.000000
    4       -3.030899   1.000000
    5       -2.942480   1.000000
    6       -2.537305   1.000000
    7       -1.995578   1.000000
    8       -1.743183   1.000000
    9       -0.285044   1.000000
   10       -0.226494   1.000000
   11        0.656181   1.000000
   12        0.806422   1.000000
   13        1.004720   1.000000
   14        1.320406   1.000000
   15        1.573662   1.000000
   16        1.896276   1.000000
   17        2.102101   1.000000
   18        2.460436   1.000000
   19        2.661071   1.000000
   20        2.692747   1.000000
   21        2.848099   1.000000
   22        3.056024   1.000000
   23        3.154934   1.000000
   24        3.502771   1.000000
   25        3.738226   1.000000
   26        3.984831   1.000000
   27        4.208805   1.000000
   28        4.220557   1.000000
   29        4.255883   1.000000
   30        4.297982   1.000000
   31        4.565749   1.000000
   32        4.585589   1.000000
   33        4.595696   1.000000
   34        4.850797   1.000000
   35        5.108954   1.000000
   36        5.356098   1.000000
   37        5.391204   1.000000
   38        6.007307   1.000000
   39        6.359762   1.000000
   40        6.676159   1.000000
   41        7.289390   1.000000
   42        7.390828   1.000000
   43        8.216488   1.000000
   44        8.378306   1.000000
   45        8.687473   1.000000
   46        8.796503   1.000000
   47        8.916465   1.000320
   48        9.237788   0.162285
   49        9.489451  -0.000116
   50        9.491882  -0.000102
   51        9.772659  -0.000000
   52        9.778851  -0.000000
   53       10.068529  -0.000000
   54       10.088168  -0.000000
   55       10.176417  -0.000000
   56       10.197006  -0.000000
   57       10.207182  -0.000000
   58       10.327345  -0.000000
   59       10.414225  -0.000000
   60       10.457084  -0.000000

 -0.3333333E+00  0.1111111E+00  0.3742002E-15  0.5486968E-02
    1       -5.289122   1.000000
    2       -3.421753   1.000000
    3       -3.347657   1.000000
    4       -2.892820   1.000000
    5       -2.734404   1.000000
    6       -2.527298   1.000000
    7       -2.102789   1.000000
    8       -1.634560   1.000000
    9       -0.846689   1.000000
   10       -0.026742   1.000000
   11        0.188840   1.000000
   12        0.484113   1.000000
   13        0.604089   1.000000
   14        0.788955   1.000000
   15        1.234662   1.000000
   16        2.269308   1.000000
   17        2.461480   1.000000
   18        2.607814   1.000000
   19        2.646545   1.000000
   20        2.838890   1.000000
   21        3.018897   1.000000
   22        3.224000   1.000000
   23        3.469968   1.000000
   24        3.522285   1.000000
   25        3.867977   1.000000
   26        4.070106   1.000000
   27        4.071412   1.000000
   28        4.080623   1.000000
   29        4.424735   1.000000
   30        4.669256   1.000000
   31        4.669620   1.000000
   32        4.691238   1.000000
   33        4.762317   1.000000
   34        4.957862   1.000000
   35        5.132928   1.000000
   36        5.201472   1.000000
   37        5.374088   1.000000
   38        6.109535   1.000000
   39        6.491403   1.000000
   40        6.688830   1.000000
   41        6.865908   1.000000
   42        7.664793   1.000000
   43        7.844231   1.000000
   44        8.239474   1.000000
   45        8.819622   1.000001
   46        8.908178   1.000208
   47        9.327263  -0.033755
   48        9.384350  -0.010592
   49        9.451657  -0.000795
   50        9.629822  -0.000000
   51        9.700478  -0.000000
   52        9.738628  -0.000000
   53       10.018859  -0.000000
   54       10.116362  -0.000000
   55       10.221341  -0.000000
   56       10.253236  -0.000000
   57       10.355231  -0.000000
   58       10.419794  -0.000000
   59       10.431762  -0.000000
   60       10.524552  -0.000000

 -0.2222222E+00  0.1111111E+00  0.3742002E-15  0.5486968E-02
    1       -5.523345   1.000000
    2       -3.500503   1.000000
    3       -2.667738   1.000000
    4       -2.663935   1.000000
    5       -2.560195   1.000000
    6       -2.503298   1.000000
    7       -2.200141   1.000000
    8       -1.579002   1.000000
    9       -1.249621   1.000000
   10       -0.296117   1.000000
   11       -0.290115   1.000000
   12        0.213544   1.000000
   13        0.255823   1.000000
   14        0.721109   1.000000
   15        0.738815   1.000000
   16        2.471012   1.000000
   17        2.575505   1.000000
   18        2.630529   1.000000
   19        2.900332   1.000000
   20        2.981180   1.000000
   21        3.071197   1.000000
   22        3.314900   1.000000
   23        3.710920   1.000000
   24        3.851483   1.000000
   25        3.924553   1.000000
   26        3.958221   1.000000
   27        4.028171   1.000000
   28        4.085788   1.000000
   29        4.484545   1.000000
   30        4.775944   1.000000
   31        4.794012   1.000000
   32        4.917558   1.000000
   33        4.931261   1.000000
   34        5.326090   1.000000
   35        5.335982   1.000000
   36        5.415910   1.000000
   37        5.487978   1.000000
   38        5.524818   1.000000
   39        5.983967   1.000000
   40        6.943977   1.000000
   41        7.486251   1.000000
   42        7.564188   1.000000
   43        8.103686   1.000000
   44        8.115390   1.000000
   45        8.319340   1.000000
   46        8.497754   1.000000
   47        8.918382   1.000352
   48        9.488798  -0.000121
   49        9.545869  -0.000004
   50        9.797388  -0.000000
   51        9.912362  -0.000000
   52        9.942335  -0.000000
   53       10.150387  -0.000000
   54       10.192332  -0.000000
   55       10.299303  -0.000000
   56       10.356251  -0.000000
   57       10.477941  -0.000000
   58       10.597047  -0.000000
   59       10.708121  -0.000000
   60       10.902024  -0.000000

 -0.1111111E+00  0.1111111E+00  0.3742002E-15  0.2743484E-02
    1       -5.641978   1.000000
    2       -3.538653   1.000000
    3       -2.502566   1.000000
    4       -2.453955   1.000000
    5       -2.346850   1.000000
    6       -2.235823   1.000000
    7       -1.971118   1.000000
    8       -1.944880   1.000000
    9       -1.073544   1.000000
   10       -1.069179   1.000000
   11       -0.719201   1.000000
   12        0.090706   1.000000
   13        0.387943   1.000000
   14        0.484649   1.000000
   15        0.629066   1.000000
   16        2.449232   1.000000
   17        2.509129   1.000000
   18        2.570894   1.000000
   19        2.919938   1.000000
   20        3.045003   1.000000
   21        3.273401   1.000000
   22        3.628870   1.000000
   23        3.817203   1.000000
   24        3.852281   1.000000
   25        3.900905   1.000000
   26        4.031040   1.000000
   27        4.225186   1.000000
   28        4.417385   1.000000
   29        4.550952   1.000000
   30        4.670528   1.000000
   31        4.838363   1.000000
   32        4.888370   1.000000
   33        4.892155   1.000000
   34        5.123579   1.000000
   35        5.247738   1.000000
   36        5.343853   1.000000
   37        5.730734   1.000000
   38        5.911458   1.000000
   39        6.012867   1.000000
   40        7.218318   1.000000
   41        7.414689   1.000000
   42        7.744147   1.000000
   43        7.822407   1.000000
   44        8.045214   1.000000
   45        8.160753   1.000000
   46        8.315208   1.000000
   47        8.969897   1.003481
   48        9.161635   0.754393
   49        9.496661  -0.000078
   50        9.963849  -0.000000
   51       10.118689  -0.000000
   52       10.125543  -0.000000
   53       10.285355  -0.000000
   54       10.310080  -0.000000
   55       10.322272  -0.000000
   56       10.379513  -0.000000
   57       10.510507  -0.000000
   58       10.624176  -0.000000
   59       10.875739  -0.000000
   60       11.299078  -0.000000

  0.2222222E+00  0.2222222E+00  0.3742002E-15  0.2743484E-02
    1       -5.001493   1.000000
    2       -3.558588   1.000000
    3       -3.528372   1.000000
    4       -3.315080   1.000000
    5       -2.795268   1.000000
    6       -2.742760   1.000000
    7       -1.865524   1.000000
    8       -1.014507   1.000000
    9       -1.001699   1.000000
   10       -0.436379   1.000000
   11        0.848554   1.000000
   12        1.014525   1.000000
   13        1.015253   1.000000
   14        1.288253   1.000000
   15        1.442671   1.000000
   16        1.515466   1.000000
   17        2.403611   1.000000
   18        2.510683   1.000000
   19        2.593807   1.000000
   20        2.726990   1.000000
   21        3.036236   1.000000
   22        3.091228   1.000000
   23        3.322548   1.000000
   24        3.585943   1.000000
   25        3.588232   1.000000
   26        3.895582   1.000000
   27        4.004108   1.000000
   28        4.220455   1.000000
   29        4.237670   1.000000
   30        4.413341   1.000000
   31        4.418048   1.000000
   32        4.467899   1.000000
   33        4.853764   1.000000
   34        4.889416   1.000000
   35        4.892590   1.000000
   36        5.382048   1.000000
   37        5.755111   1.000000
   38        5.995861   1.000000
   39        6.231780   1.000000
   40        6.349987   1.000000
   41        7.436825   1.000000
   42        7.887921   1.000000
   43        7.921121   1.000000
   44        8.133124   1.000000
   45        8.641403   1.000000
   46        9.109914   0.998443
   47        9.183493   0.583412
   48        9.198348   0.458213
   49        9.387271  -0.009697
   50        9.598464  -0.000000
   51        9.668895  -0.000000
   52        9.756576  -0.000000
   53        9.808737  -0.000000
   54       10.088501  -0.000000
   55       10.128722  -0.000000
   56       10.208324  -0.000000
   57       10.275749  -0.000000
   58       10.287466  -0.000000
   59       10.392160  -0.000000
   60       10.483034  -0.000000

  0.3333333E+00  0.2222222E+00  0.3742002E-15  0.5486968E-02
    1       -4.608647   1.000000
    2       -4.119969   1.000000
    3       -3.640493   1.000000
    4       -3.173039   1.000000
    5       -3.004214   1.000000
    6       -2.771995   1.000000
    7       -1.638911   1.000000
    8       -1.088600   1.000000
    9       -0.737324   1.000000
   10       -0.408030   1.000000
   11        0.748113   1.000000
   12        1.303407   1.000000
   13        1.435729   1.000000
   14        1.436320   1.000000
   15        1.723816   1.000000
   16        1.998742   1.000000
   17        2.128209   1.000000
   18        2.375329   1.000000
   19        2.395466   1.000000
   20        2.543830   1.000000
   21        2.858062   1.000000
   22        2.881797   1.000000
   23        3.030365   1.000000
   24        3.334581   1.000000
   25        3.674420   1.000000
   26        3.765416   1.000000
   27        4.031732   1.000000
   28        4.146403   1.000000
   29        4.224472   1.000000
   30        4.290117   1.000000
   31        4.417014   1.000000
   32        4.549011   1.000000
   33        4.751874   1.000000
   34        4.835306   1.000000
   35        5.124859   1.000000