 running on   24 total cores
 distrk:  each k-point on   24 cores,    1 groups
 distr:  one band on    6 cores,    4 groups
 using from now: INCAR     
 vasp.5.4.4.18Apr17-6-g9f103f2a35 (build Dec  7 2020 12:43:57) complex           
 POSCAR found type information on POSCAR  Mo V  B 
 POSCAR found :  3 types and      24 ions
 scaLAPACK will be used
 LDA part: xc-table for Pade appr. of Perdew
 POSCAR, INCAR and KPOINTS ok, starting setup
 resort distribution
 resort distribution
 resort distribution
 resort distribution
 resort distribution
 resort distribution
 resort distribution
 resort distribution
 resort distribution
 resort distribution
 resort distribution
 resort distribution
 resort distribution
 resort distribution
 resort distribution
 resort distribution
 resort distribution
 resort distribution
 resort distribution
 resort distribution
 resort distribution
 resort distribution
 resort distribution
 resort distribution
 FFT: planning ...
 WAVECAR not read
 augmentation electrons   94.103596091995612     
 soft         electrons   0.0000000000000000     
 augmentation electrons   94.103596091995612     
 soft         electrons   0.0000000000000000     
 augmentation electrons   94.103596091995612     
 soft         electrons   0.0000000000000000     
 augmentation electrons   94.103596091995612     
 soft         electrons   0.0000000000000000     
 augmentation electrons   94.103596091995612     
 soft         electrons   0.0000000000000000     
 augmentation electrons   94.103596091995612     
 soft         electrons   0.0000000000000000     
 augmentation electrons   94.103596091995612     
 soft         electrons   0.0000000000000000     
 augmentation electrons   94.103596091995612     
 soft         electrons   0.0000000000000000     
 augmentation electrons   94.103596091995612     
 soft         electrons   0.0000000000000000     
 augmentation electrons   94.103596091995612     
 soft         electrons   0.0000000000000000     
 augmentation electrons   94.103596091995612     
 soft         electrons   0.0000000000000000     
 augmentation electrons   94.103596091995612     
 soft         electrons   0.0000000000000000     
 augmentation electrons   94.103596091995612     
 soft         electrons   0.0000000000000000     
 augmentation electrons   94.103596091995612     
 soft         electrons   0.0000000000000000     
 augmentation electrons   94.103596091995612     
 soft         electrons   0.0000000000000000     
 augmentation electrons   94.103596091995612     
 soft         electrons   0.0000000000000000     
 augmentation electrons   94.103596091995612     
 soft         electrons   0.0000000000000000     
 augmentation electrons   94.103596091995612     
 soft         electrons   0.0000000000000000     
 augmentation electrons   94.103596091995612     
 soft         electrons   0.0000000000000000     
 augmentation electrons   94.103596091995612     
 soft         electrons   0.0000000000000000     
 augmentation electrons   94.103596091995612     
 soft         electrons   0.0000000000000000     
 augmentation electrons   94.103596091995612     
 soft         electrons   0.0000000000000000     
 augmentation electrons   94.103596091995612     
 soft         electrons   0.0000000000000000     
 augmentation electrons   94.103596091995612     
 soft         electrons   0.0000000000000000     
 total        electrons   94.103596091995612     
 total        electrons   94.103596091995612     
 total        electrons   94.103596091995612     
 total        electrons   94.103596091995612     
 total        electrons   94.103596091995612     
 total        electrons   94.103596091995612     
 total        electrons   94.103596091995612     
 total        electrons   94.103596091995612     
 total        electrons   94.103596091995612     
 total        electrons   94.103596091995612     
 total        electrons   94.103596091995612     
 total        electrons   94.103596091995612     
 total        electrons   94.103596091995612     
 total        electrons   94.103596091995612     
 total        electrons   94.103596091995612     
 total        electrons   94.103596091995612     
 total        electrons   94.103596091995612     
 total        electrons   94.103596091995612     
 total        electrons   94.103596091995612     
 total        electrons   94.103596091995612     
 total        electrons   94.103596091995612     
 total        electrons   94.103596091995612     
 total        electrons   94.103596091995612     
 total        electrons   94.103596091995612     
 augmentation electrons   1088.1497485162768     
 soft         electrons   0.0000000000000000     
 augmentation electrons   1088.1497485162768     
 soft         electrons   0.0000000000000000     
 augmentation electrons   1088.1497485162768     
 soft         electrons   0.0000000000000000     
 augmentation electrons   1088.1497485162768     
 soft         electrons   0.0000000000000000     
 augmentation electrons   1088.1497485162768     
 soft         electrons   0.0000000000000000     
 augmentation electrons   1088.1497485162768     
 soft         electrons   0.0000000000000000     
 augmentation electrons   1088.1497485162768     
 soft         electrons   0.0000000000000000     
 augmentation electrons   1088.1497485162768     
 soft         electrons   0.0000000000000000     
 augmentation electrons   1088.1497485162768     
 soft         electrons   0.0000000000000000     
 augmentation electrons   1088.1497485162768     
 soft         electrons   0.0000000000000000     
 augmentation electrons   1088.1497485162768     
 soft         electrons   0.0000000000000000     
 augmentation electrons   1088.1497485162768     
 soft         electrons   0.0000000000000000     
 augmentation electrons   1088.1497485162768     
 soft         electrons   0.0000000000000000     
 augmentation electrons   1088.1497485162768     
 soft         electrons   0.0000000000000000     
 augmentation electrons   1088.1497485162768     
 soft         electrons   0.0000000000000000     
 augmentation electrons   1088.1497485162768     
 soft         electrons   0.0000000000000000     
 augmentation electrons   1088.1497485162768     
 soft         electrons   0.0000000000000000     
 augmentation electrons   1088.1497485162768     
 soft         electrons   0.0000000000000000     
 augmentation electrons   1088.1497485162768     
 soft         electrons   0.0000000000000000     
 augmentation electrons   1088.1497485162768     
 soft         electrons   0.0000000000000000     
 augmentation electrons   1088.1497485162768     
 soft         electrons   0.0000000000000000     
 augmentation electrons   1088.1497485162768     
 soft         electrons   0.0000000000000000     
 augmentation electrons   1088.1497485162768     
 soft         electrons   0.0000000000000000     
 augmentation electrons   1088.1497485162768     
 soft         electrons   0.0000000000000000     
 total        electrons   1088.1497485162768     
 total        electrons   1088.1497485162768     
 total        electrons   1088.1497485162768     
 total        electrons   1088.1497485162768     
 total        electrons   1088.1497485162768     
 total        electrons   1088.1497485162768     
 total        electrons   1088.1497485162768     
 total        electrons   1088.1497485162768     
 total        electrons   1088.1497485162768     
 total        electrons   1088.1497485162768     
 total        electrons   1088.1497485162768     
 total        electrons   1088.1497485162768     
 total        electrons   1088.1497485162768     
 total        electrons   1088.1497485162768     
 total        electrons   1088.1497485162768     
 total        electrons   1088.1497485162768     
 total        electrons   1088.1497485162768     
 total        electrons   1088.1497485162768     
 total        electrons   1088.1497485162768     
 total        electrons   1088.1497485162768     
 total        electrons   1088.1497485162768     
 total        electrons   1088.1497485162768     
 total        electrons   1088.1497485162768     
 total        electrons   1088.1497485162768     
 entering main loop
       N       E                     dE             d eps       ncg     rms          rms(c)
RMM:   1     0.906170492784E+03    0.90617E+03   -0.31438E+04  7500   0.136E+03
RMM:   2     0.137793785986E+03   -0.76838E+03   -0.73480E+03  7500   0.344E+02
RMM:   3    -0.127539652440E+02   -0.15055E+03   -0.14869E+03  7500   0.136E+02
RMM:   4    -0.663888843655E+02   -0.53635E+02   -0.50458E+02  7500   0.186E+02
RMM:   5    -0.986667338698E+02   -0.32278E+02   -0.29453E+02  7500   0.907E+01
RMM:   6    -0.119840964159E+03   -0.21174E+02   -0.16583E+02  7500   0.847E+01
RMM:   7    -0.133925973790E+03   -0.14085E+02   -0.12371E+02  7500   0.530E+01
RMM:   8    -0.142452476320E+03   -0.85265E+01   -0.74938E+01  7500   0.585E+01
RMM:   9    -0.160446347241E+03   -0.17994E+02   -0.17484E+02 21199   0.333E+01
RMM:  10    -0.163624647630E+03   -0.31783E+01   -0.35360E+01 20562   0.776E+00
RMM:  11    -0.164476965080E+03   -0.85232E+00   -0.78435E+00 21018   0.265E+00
RMM:  12    -0.164789634785E+03   -0.31267E+00   -0.24475E+00 20629   0.962E-01    0.849E+01
RMM:  13    -0.133984602171E+03    0.30805E+02   -0.29449E+02 18039   0.791E+01    0.415E+01
RMM:  14    -0.152128811154E+03   -0.18144E+02   -0.12081E+02 20630   0.323E+01    0.293E+01
RMM:  15    -0.129502249968E+03    0.22627E+02   -0.14436E+01 18391   0.187E+01    0.178E+01
RMM:  16    -0.124976927555E+03    0.45253E+01   -0.28037E+01 15112   0.315E+01    0.119E+01
RMM:  17    -0.124521407808E+03    0.45552E+00   -0.35634E+00 18508   0.835E+00    0.100E+01
RMM:  18    -0.124700216976E+03   -0.17881E+00   -0.25735E+00 20545   0.235E+00    0.114E+01
RMM:  19    -0.131545196157E+03   -0.68450E+01   -0.15702E+01 15131   0.234E+01    0.226E+01
RMM:  20    -0.128623725758E+03    0.29215E+01   -0.25500E+00 17333   0.803E+00    0.170E+01
RMM:  21    -0.127863320663E+03    0.76041E+00   -0.12462E+00 19315   0.340E+00    0.147E+01
RMM:  22    -0.125695326087E+03    0.21680E+01   -0.20996E+00 16854   0.738E+00    0.511E+00
RMM:  23    -0.125815336773E+03   -0.12001E+00   -0.14200E+00 19860   0.224E+00    0.423E+00
RMM:  24    -0.125780873756E+03    0.34463E-01   -0.11004E-01 17773   0.182E+00    0.509E+00
RMM:  25    -0.125802112926E+03   -0.21239E-01   -0.38278E-01 18051   0.347E+00    0.337E+00
RMM:  26    -0.126066118579E+03   -0.26401E+00   -0.12433E+00 20436   0.473E+00    0.263E+00
RMM:  27    -0.126368460036E+03   -0.30234E+00   -0.12556E+00 20511   0.498E+00    0.282E+00
RMM:  28    -0.126433554082E+03   -0.65094E-01   -0.27114E-01 20358   0.181E+00    0.271E+00
RMM:  29    -0.126430488845E+03    0.30652E-02   -0.35572E-02 20257   0.653E-01    0.270E+00
RMM:  30    -0.126429299423E+03    0.11894E-02   -0.47356E-03 20787   0.171E-01    0.268E+00
RMM:  31    -0.126372959330E+03    0.56340E-01   -0.63966E-02 16392   0.146E+00    0.232E+00
RMM:  32    -0.126347650099E+03    0.25309E-01   -0.23070E-01 18448   0.270E+00    0.267E+00
RMM:  33    -0.126294339421E+03    0.53311E-01   -0.52469E-02 18868   0.115E+00    0.263E+00
RMM:  34    -0.126396521464E+03   -0.10218E+00   -0.11057E-01 19204   0.173E+00    0.263E+00
RMM:  35    -0.126365602935E+03    0.30919E-01   -0.17457E-02 16396   0.973E-01    0.293E+00
RMM:  36    -0.126505789981E+03   -0.14019E+00   -0.25176E-01 18531   0.251E+00    0.311E+00
RMM:  37    -0.126512229098E+03   -0.64391E-02   -0.46692E-02 18357   0.853E-01    0.316E+00
RMM:  38    -0.126461196966E+03    0.51032E-01   -0.14258E-02 17714   0.684E-01    0.298E+00
RMM:  39    -0.126519154051E+03   -0.57957E-01   -0.49076E-02 18014   0.130E+00    0.292E+00
RMM:  40    -0.126541447934E+03   -0.22294E-01   -0.12006E-01 19142   0.194E+00    0.251E+00
RMM:  41    -0.126595750005E+03   -0.54302E-01   -0.11236E-01 19379   0.166E+00    0.215E+00
RMM:  42    -0.126614083450E+03   -0.18333E-01   -0.26585E-02 19297   0.766E-01    0.217E+00
RMM:  43    -0.126504023113E+03    0.11006E+00   -0.17293E-01 17999   0.208E+00    0.165E+00
RMM:  44    -0.126501827766E+03    0.21953E-02   -0.47332E-02 18189   0.936E-01    0.148E+00
RMM:  45    -0.126493250206E+03    0.85776E-02   -0.22192E-02 20913   0.566E-01    0.135E+00
RMM:  46    -0.126500700850E+03   -0.74506E-02   -0.64376E-02 16909   0.150E+00    0.964E-01
RMM:  47    -0.126502181017E+03   -0.14802E-02   -0.12036E-02 17401   0.687E-01    0.932E-01
RMM:  48    -0.126505103618E+03   -0.29226E-02   -0.19212E-03 17835   0.278E-01    0.933E-01
RMM:  49    -0.126501181438E+03    0.39222E-02   -0.28052E-02 18952   0.788E-01    0.969E-01
RMM:  50    -0.126504022007E+03   -0.28406E-02   -0.56982E-03 19008   0.326E-01    0.964E-01
RMM:  51    -0.126483587213E+03    0.20435E-01   -0.12117E-02 17847   0.604E-01    0.941E-01
RMM:  52    -0.126479489137E+03    0.40981E-02   -0.20969E-02 19639   0.736E-01    0.915E-01
RMM:  53    -0.126471767439E+03    0.77217E-02   -0.32906E-02 20068   0.858E-01    0.907E-01
RMM:  54    -0.126469851184E+03    0.19163E-02   -0.13426E-02 19372   0.474E-01    0.892E-01
RMM:  55    -0.126464047549E+03    0.58036E-02   -0.16631E-02 19625   0.614E-01    0.852E-01
RMM:  56    -0.126444738612E+03    0.19309E-01   -0.10913E-01 19091   0.164E+00    0.778E-01
RMM:  57    -0.126428656130E+03    0.16082E-01   -0.61023E-02 19204   0.955E-01    0.779E-01
RMM:  58    -0.126438047712E+03   -0.93916E-02   -0.92011E-03 19650   0.466E-01    0.779E-01
RMM:  59    -0.126437546284E+03    0.50143E-03   -0.85822E-04 17965   0.156E-01    0.785E-01
RMM:  60    -0.126429534029E+03    0.80123E-02   -0.29099E-03 18646   0.285E-01    0.803E-01
RMM:  61    -0.126431623920E+03   -0.20899E-02   -0.28995E-04 17352   0.115E-01    0.799E-01
RMM:  62    -0.126394235093E+03    0.37389E-01   -0.99264E-02 18296   0.161E+00    0.789E-01
RMM:  63    -0.126391722522E+03    0.25126E-02   -0.43964E-02 18759   0.945E-01    0.846E-01
RMM:  64    -0.126391993795E+03   -0.27127E-03   -0.89746E-03 20874   0.271E-01    0.833E-01
RMM:  65    -0.126396557613E+03   -0.45638E-02   -0.11374E-02 17564   0.597E-01    0.835E-01
RMM:  66    -0.126402552883E+03   -0.59953E-02   -0.35298E-02 20345   0.841E-01    0.865E-01
RMM:  67    -0.126402812406E+03   -0.25952E-03   -0.29469E-03 17098   0.313E-01    0.881E-01
RMM:  68    -0.126386519748E+03    0.16293E-01   -0.14355E-01 17175   0.214E+00    0.890E-01
RMM:  69    -0.126385400619E+03    0.11191E-02   -0.17122E-02 17477   0.769E-01    0.908E-01
RMM:  70    -0.126368894511E+03    0.16506E-01   -0.60607E-02 20205   0.111E+00    0.873E-01
RMM:  71    -0.126368809315E+03    0.85196E-04   -0.93420E-03 19612   0.343E-01    0.881E-01
RMM:  72    -0.126366948403E+03    0.18609E-02   -0.14996E-02 17617   0.627E-01    0.848E-01
RMM:  73    -0.126379371876E+03   -0.12423E-01   -0.89478E-02 19216   0.140E+00    0.990E-01
RMM:  74    -0.126379635016E+03   -0.26314E-03   -0.12785E-02 18902   0.367E-01    0.101E+00
RMM:  75    -0.126380457141E+03   -0.82213E-03   -0.31009E-03 20022   0.180E-01    0.101E+00
RMM:  76    -0.126385453818E+03   -0.49967E-02   -0.28677E-02 18372   0.912E-01    0.100E+00
RMM:  77    -0.126386179687E+03   -0.72587E-03   -0.34656E-03 17870   0.295E-01    0.101E+00
RMM:  78    -0.126372692750E+03    0.13487E-01   -0.32306E-01 17963   0.280E+00    0.113E+00
RMM:  79    -0.126390248772E+03   -0.17556E-01   -0.48183E-02 17638   0.122E+00    0.113E+00
RMM:  80    -0.126382285790E+03    0.79630E-02   -0.19942E-02 20948   0.584E-01    0.110E+00
RMM:  81    -0.126393661427E+03   -0.11376E-01   -0.14649E-02 18109   0.618E-01    0.107E+00
RMM:  82    -0.126380091971E+03    0.13569E-01   -0.41683E-02 19621   0.997E-01    0.109E+00
RMM:  83    -0.126369689771E+03    0.10402E-01   -0.22395E-01 18749   0.252E+00    0.114E+00
RMM:  84    -0.126371951512E+03   -0.22617E-02   -0.11237E-01 18398   0.154E+00    0.115E+00
RMM:  85    -0.126372759719E+03   -0.80821E-03   -0.14550E-02 20188   0.429E-01    0.112E+00
RMM:  86    -0.126384075002E+03   -0.11315E-01   -0.67382E-02 17668   0.132E+00    0.107E+00
RMM:  87    -0.126382177702E+03    0.18973E-02   -0.16752E-02 17937   0.621E-01    0.112E+00
RMM:  88    -0.126461285792E+03   -0.79108E-01   -0.63657E-01 18523   0.402E+00    0.147E+00
RMM:  89    -0.126466598061E+03   -0.53123E-02   -0.13259E-01 18545   0.165E+00    0.145E+00
RMM:  90    -0.126416772132E+03    0.49826E-01   -0.75223E-01 18026   0.449E+00    0.171E+00
RMM:  91    -0.126428132311E+03   -0.11360E-01   -0.11267E-01 17775   0.149E+00    0.173E+00
RMM:  92    -0.126430412867E+03   -0.22806E-02   -0.15830E-02 20419   0.318E-01    0.170E+00
RMM:  93    -0.126468532621E+03   -0.38120E-01   -0.13713E+00 18508   0.578E+00    0.132E+00
RMM:  94    -0.126495368711E+03   -0.26836E-01   -0.15525E-01 18198   0.192E+00    0.135E+00
RMM:  95    -0.126514744330E+03   -0.19376E-01   -0.58820E-02 21136   0.856E-01    0.148E+00
RMM:  96    -0.126518392540E+03   -0.36482E-02   -0.53733E-03 19856   0.281E-01    0.151E+00
RMM:  97    -0.126516659385E+03    0.17332E-02   -0.52193E-04 18290   0.100E-01    0.150E+00
RMM:  98    -0.126451752794E+03    0.64907E-01   -0.22720E-01 18186   0.259E+00    0.118E+00
RMM:  99    -0.126444546805E+03    0.72060E-02   -0.56660E-02 18279   0.116E+00    0.117E+00
RMM: 100    -0.126455995995E+03   -0.11449E-01   -0.10148E-02 19901   0.437E-01    0.121E+00
RMM: 101    -0.126460218815E+03   -0.42228E-02   -0.13121E-02 18759   0.608E-01    0.121E+00
RMM: 102    -0.126456044384E+03    0.41744E-02   -0.41737E-02 19780   0.929E-01    0.114E+00
RMM: 103    -0.126374911719E+03    0.81133E-01   -0.51680E-01 18102   0.389E+00    0.995E-01
RMM: 104    -0.126380477770E+03   -0.55661E-02   -0.10355E-01 18090   0.178E+00    0.994E-01
RMM: 105    -0.126384384041E+03   -0.39063E-02   -0.16370E-02 20378   0.407E-01    0.100E+00
RMM: 106    -0.126372077107E+03    0.12307E-01   -0.42400E-02 19288   0.954E-01    0.110E+00
RMM: 107    -0.126383457302E+03   -0.11380E-01   -0.39964E-02 18897   0.108E+00    0.105E+00
RMM: 108    -0.126372121975E+03    0.11335E-01   -0.26821E-02 18430   0.871E-01    0.829E-01
RMM: 109    -0.126391364574E+03   -0.19243E-01   -0.16906E-01 17791   0.226E+00    0.104E+00
RMM: 110    -0.126395458681E+03   -0.40941E-02   -0.36120E-02 17878   0.953E-01    0.104E+00
RMM: 111    -0.126428337621E+03   -0.32879E-01   -0.86944E-02 18477   0.139E+00    0.116E+00
RMM: 112    -0.126426204157E+03    0.21335E-02   -0.71744E-01 18525   0.416E+00    0.101E+00
RMM: 113    -0.126406931102E+03    0.19273E-01   -0.25151E-01 18590   0.282E+00    0.110E+00
RMM: 114    -0.126409118872E+03   -0.21878E-02   -0.90511E-02 19972   0.111E+00    0.111E+00
RMM: 115    -0.126410731107E+03   -0.16122E-02   -0.13830E-02 20623   0.337E-01    0.109E+00
RMM: 116    -0.126407532157E+03    0.31990E-02   -0.22254E-03 18752   0.228E-01    0.112E+00
RMM: 117    -0.126399070393E+03    0.84618E-02   -0.80988E-02 19282   0.139E+00    0.134E+00
RMM: 118    -0.126416689960E+03   -0.17620E-01   -0.13854E-01 18922   0.220E+00    0.129E+00
RMM: 119    -0.126421819981E+03   -0.51300E-02   -0.37400E-02 18789   0.847E-01    0.132E+00
RMM: 120    -0.126420199052E+03    0.16209E-02   -0.15654E-02 18431   0.782E-01    0.132E+00
RMM: 121    -0.126424614876E+03   -0.44158E-02   -0.98885E-02 18177   0.183E+00    0.127E+00
RMM: 122    -0.126435158403E+03   -0.10544E-01   -0.53682E-02 18999   0.110E+00    0.135E+00
RMM: 123    -0.126412719907E+03    0.22438E-01   -0.11831E-01 18960   0.174E+00    0.139E+00
RMM: 124    -0.126442564257E+03   -0.29844E-01   -0.30090E-01 18654   0.319E+00    0.119E+00
RMM: 125    -0.126454250791E+03   -0.11687E-01   -0.62497E-02 18648   0.103E+00    0.118E+00
RMM: 126    -0.126461548726E+03   -0.72979E-02   -0.20301E-02 19868   0.474E-01    0.119E+00
RMM: 127    -0.126422904539E+03    0.38644E-01   -0.87512E-02 17572   0.157E+00    0.113E+00
RMM: 128    -0.126429812333E+03   -0.69078E-02   -0.95424E-03 17125   0.664E-01    0.119E+00
RMM: 129    -0.126441732561E+03   -0.11920E-01   -0.17593E-02 17669   0.767E-01    0.123E+00
RMM: 130    -0.126430015262E+03    0.11717E-01   -0.23283E-02 18849   0.935E-01    0.121E+00
RMM: 131    -0.126427635876E+03    0.23794E-02   -0.42345E-03 18138   0.293E-01    0.121E+00
RMM: 132    -0.126437013717E+03   -0.93778E-02   -0.65399E-03 17964   0.439E-01    0.124E+00
RMM: 133    -0.126317179960E+03    0.11983E+00   -0.24923E+00 18213   0.790E+00    0.163E+00
RMM: 134    -0.126356106782E+03   -0.38927E-01   -0.31260E-01 17931   0.266E+00    0.158E+00
RMM: 135    -0.126361021468E+03   -0.49147E-02   -0.52771E-02 21156   0.574E-01    0.155E+00
RMM: 136    -0.126358938009E+03    0.20835E-02   -0.10530E-01 18155   0.166E+00    0.130E+00
RMM: 137    -0.126359170062E+03   -0.23205E-03   -0.25291E-02 18163   0.703E-01    0.126E+00
RMM: 138    -0.126370906644E+03   -0.11737E-01   -0.43215E-01 19317   0.313E+00    0.738E-01
RMM: 139    -0.126377126807E+03   -0.62202E-02   -0.76959E-02 18889   0.111E+00    0.649E-01
RMM: 140    -0.126376170730E+03    0.95608E-03   -0.40214E-02 19141   0.999E-01    0.646E-01
RMM: 141    -0.126371970867E+03    0.41999E-02   -0.61971E-03 17835   0.479E-01    0.634E-01
RMM: 142    -0.126371039570E+03    0.93130E-03   -0.30016E-03 19551   0.205E-01    0.629E-01
RMM: 143    -0.126375514930E+03   -0.44754E-02   -0.10447E-02 18290   0.498E-01    0.597E-01
RMM: 144    -0.126372274239E+03    0.32407E-02   -0.25336E-03 17604   0.348E-01    0.613E-01
RMM: 145    -0.126368185447E+03    0.40888E-02   -0.87139E-03 18420   0.442E-01    0.633E-01
RMM: 146    -0.126367308626E+03    0.87682E-03   -0.23467E-03 18349   0.198E-01    0.632E-01
RMM: 147    -0.126372838776E+03   -0.55301E-02   -0.72389E-03 18308   0.448E-01    0.639E-01
RMM: 148    -0.126362910949E+03    0.99278E-02   -0.15396E-02 18425   0.707E-01    0.561E-01
RMM: 149    -0.126384002254E+03   -0.21091E-01   -0.72972E-02 19156   0.147E+00    0.546E-01
RMM: 150    -0.126385862940E+03   -0.18607E-02   -0.12242E-02 18840   0.344E-01    0.556E-01
RMM: 151    -0.126386124112E+03   -0.26117E-03   -0.18382E-03 19282   0.121E-01    0.554E-01
RMM: 152    -0.126379732618E+03    0.63915E-02   -0.53731E-03 18094   0.378E-01    0.548E-01
RMM: 153    -0.126377679164E+03    0.20535E-02   -0.41681E-03 19045   0.283E-01    0.540E-01
RMM: 154    -0.126377615962E+03    0.63202E-04   -0.66548E-04 18839   0.138E-01    0.549E-01
RMM: 155    -0.126378456390E+03   -0.84043E-03   -0.19979E-04 16897   0.742E-02    0.540E-01
RMM: 156    -0.126378381237E+03    0.75153E-04   -0.28691E-05 15176   0.266E-02    0.538E-01
RMM: 157    -0.126390238377E+03   -0.11857E-01   -0.75786E-02 18096   0.144E+00    0.515E-01
RMM: 158    -0.126406455130E+03   -0.16217E-01   -0.97711E-02 20665   0.149E+00    0.448E-01
RMM: 159    -0.126407155294E+03   -0.70016E-03   -0.92146E-03 20114   0.261E-01    0.473E-01
RMM: 160    -0.126400011109E+03    0.71442E-02   -0.46287E-03 18265   0.364E-01    0.484E-01
RMM: 161    -0.126397981836E+03    0.20293E-02   -0.19454E-03 18045   0.190E-01    0.483E-01
RMM: 162    -0.126396885091E+03    0.10967E-02   -0.11174E-03 19529   0.133E-01    0.499E-01
RMM: 163    -0.126402723722E+03   -0.58386E-02   -0.15554E-02 18154   0.688E-01    0.520E-01
RMM: 164    -0.126403328712E+03   -0.60499E-03   -0.36170E-03 17398   0.407E-01    0.521E-01
RMM: 165    -0.126410751907E+03   -0.74232E-02   -0.81388E-03 19178   0.407E-01    0.510E-01
RMM: 166    -0.126413430718E+03   -0.26788E-02   -0.37157E-03 18783   0.238E-01    0.534E-01
RMM: 167    -0.126412652432E+03    0.77829E-03   -0.31342E-04 18130   0.732E-02    0.535E-01
RMM: 168    -0.126516439859E+03   -0.10379E+00   -0.74037E-01 18265   0.416E+00    0.461E-01
RMM: 169    -0.126518106846E+03   -0.16670E-02   -0.85493E-02 17894   0.134E+00    0.504E-01
RMM: 170    -0.126505021434E+03    0.13085E-01   -0.31194E-02 18841   0.962E-01    0.512E-01
RMM: 171    -0.126517477797E+03   -0.12456E-01   -0.12715E-02 17658   0.713E-01    0.519E-01
RMM: 172    -0.126523715761E+03   -0.62380E-02   -0.58204E-03 19525   0.309E-01    0.533E-01
RMM: 173    -0.126449797033E+03    0.73919E-01   -0.21635E-01 18126   0.232E+00    0.515E-01
RMM: 174    -0.126366108719E+03    0.83688E-01   -0.82891E-01 20927   0.398E+00    0.539E-01
RMM: 175    -0.126364680475E+03    0.14282E-02   -0.16856E-01 20386   0.111E+00    0.490E-01
RMM: 176    -0.126362717163E+03    0.19633E-02   -0.25322E-02 19092   0.496E-01    0.511E-01
RMM: 177    -0.126362314615E+03    0.40255E-03   -0.46312E-03 19437   0.202E-01    0.507E-01
RMM: 178    -0.126406204897E+03   -0.43890E-01   -0.40438E-01 18061   0.318E+00    0.332E-01
RMM: 179    -0.126436621565E+03   -0.30417E-01   -0.19025E-01 18402   0.182E+00    0.346E-01
RMM: 180    -0.126453844333E+03   -0.17223E-01   -0.75834E-02 20715   0.101E+00    0.394E-01
RMM: 181    -0.126480715684E+03   -0.26871E-01   -0.77987E-02 18814   0.118E+00    0.429E-01
RMM: 182    -0.126433339151E+03    0.47377E-01   -0.98728E-02 18413   0.179E+00    0.441E-01
RMM: 183    -0.126323171676E+03    0.11017E+00   -0.14893E+00 18956   0.563E+00    0.602E-01
RMM: 184    -0.126339794066E+03   -0.16622E-01   -0.23418E-01 18739   0.176E+00    0.589E-01
RMM: 185    -0.126348170209E+03   -0.83761E-02   -0.94413E-02 18965   0.168E+00    0.521E-01
RMM: 186    -0.126344100204E+03    0.40700E-02   -0.23796E-02 18405   0.739E-01    0.552E-01
RMM: 187    -0.126358083644E+03   -0.13983E-01   -0.62873E-02 18115   0.138E+00    0.476E-01
RMM: 188    -0.126397383012E+03   -0.39299E-01   -0.38035E-01 20122   0.284E+00    0.421E-01
RMM: 189    -0.126425343191E+03   -0.27960E-01   -0.17552E-01 19386   0.152E+00    0.444E-01
RMM: 190    -0.126407636116E+03    0.17707E-01   -0.17142E-02 18028   0.815E-01    0.453E-01
RMM: 191    -0.126432303775E+03   -0.24668E-01   -0.44773E-02 18527   0.104E+00    0.438E-01
RMM: 192    -0.126438430115E+03   -0.61263E-02   -0.17251E-02 18465   0.509E-01    0.445E-01
RMM: 193    -0.126376025367E+03    0.62405E-01   -0.29639E-01 17754   0.276E+00    0.443E-01
RMM: 194    -0.126327733081E+03    0.48292E-01   -0.95762E-01 20871   0.426E+00    0.674E-01
RMM: 195    -0.126345866416E+03   -0.18133E-01   -0.44091E-02 16623   0.120E+00    0.519E-01
RMM: 196    -0.126344935961E+03    0.93046E-03   -0.22289E-02 18758   0.487E-01    0.539E-01
RMM: 197    -0.126329930017E+03    0.15006E-01   -0.33819E-01 18272   0.281E+00    0.842E-01
RMM: 198    -0.126343244130E+03   -0.13314E-01   -0.41423E-01 20145   0.269E+00    0.124E+00
RMM: 199    -0.126345193473E+03   -0.19493E-02   -0.35696E-02 20068   0.682E-01    0.121E+00
RMM: 200    -0.126353931376E+03   -0.87379E-02   -0.60731E-02 19109   0.104E+00
   1 F= -.12635393E+03 E0= -.12635388E+03  d E =-.126354E+03
 curvature:   0.00 expect dE= 0.000E+00 dE for cont linesearch  0.000E+00
 trial: gam= 0.00000 g(F)=  0.317E-01 g(S)=  0.117E+00 ort = 0.000E+00 (trialstep = 0.100E+01)
 search vector abs. value=  0.149E+00
 bond charge predicted
       N       E                     dE             d eps       ncg     rms          rms(c)
RMM:   1    -0.126408847033E+03   -0.63654E-01   -0.41335E+00 15460   0.905E+00    0.210E+00
RMM:   2    -0.126434675225E+03   -0.25828E-01   -0.49964E-01 15219   0.677E+00    0.180E+00
RMM:   3    -0.126454947365E+03   -0.20272E-01   -0.14804E-01 18772   0.175E+00    0.213E+00
RMM:   4    -0.126445748174E+03    0.91992E-02   -0.31351E-02 17865   0.831E-01    0.176E+00
RMM:   5    -0.126453686241E+03   -0.79381E-02   -0.27027E-02 19925   0.543E-01    0.105E+00
RMM:   6    -0.126472956435E+03   -0.19270E-01   -0.59892E-02 18939   0.121E+00    0.530E-01
RMM:   7    -0.126485231318E+03   -0.12275E-01   -0.35046E-02 18741   0.858E-01    0.535E-01
RMM:   8    -0.126510255346E+03   -0.25024E-01   -0.73429E-02 19697   0.129E+00    0.717E-01
RMM:   9    -0.126452945000E+03    0.57310E-01   -0.19796E-01 18079   0.260E+00    0.679E-01
RMM:  10    -0.126496627003E+03   -0.43682E-01   -0.98712E-02 18183   0.211E+00    0.472E-01
RMM:  11    -0.126505632763E+03   -0.90058E-02   -0.27632E-02 19183   0.737E-01    0.561E-01
RMM:  12    -0.126511759879E+03   -0.61271E-02   -0.22367E-02 19029   0.695E-01    0.858E-01
RMM:  13    -0.126513569247E+03   -0.18094E-02   -0.43148E-03 19270   0.261E-01    0.851E-01
RMM:  14    -0.126523220174E+03   -0.96509E-02   -0.84543E-03 18519   0.464E-01    0.807E-01
RMM:  15    -0.126560172498E+03   -0.36952E-01   -0.10215E-01 19381   0.166E+00    0.961E-01
RMM:  16    -0.126546970922E+03    0.13202E-01   -0.97729E-03 17181   0.663E-01    0.942E-01
RMM:  17    -0.126552525377E+03   -0.55545E-02   -0.93787E-03 19111   0.562E-01    0.888E-01
RMM:  18    -0.126554137267E+03   -0.16119E-02   -0.15491E-02 19713   0.570E-01    0.952E-01
RMM:  19    -0.126583673104E+03   -0.29536E-01   -0.45304E-02 19254   0.106E+00    0.107E+00
RMM:  20    -0.126580145661E+03    0.35274E-02   -0.44270E-03 17973   0.322E-01    0.109E+00
RMM:  21    -0.126593378586E+03   -0.13233E-01   -0.16591E-02 19832   0.600E-01    0.110E+00
RMM:  22    -0.126593830198E+03   -0.45161E-03   -0.21381E-03 18706   0.152E-01    0.111E+00
RMM:  23    -0.126552117254E+03    0.41713E-01   -0.56193E-02 17819   0.129E+00    0.994E-01
RMM:  24    -0.126515906392E+03    0.36211E-01   -0.12549E-01 20839   0.171E+00    0.831E-01
RMM:  25    -0.126504596434E+03    0.11310E-01   -0.36907E-02 20285   0.671E-01    0.815E-01
RMM:  26    -0.126506017561E+03   -0.14211E-02   -0.27009E-03 19201   0.166E-01    0.797E-01
RMM:  27    -0.126506467545E+03   -0.44998E-03   -0.91728E-04 18846   0.146E-01    0.790E-01
RMM:  28    -0.126492360759E+03    0.14107E-01   -0.13830E-02 18382   0.626E-01    0.789E-01
RMM:  29    -0.126508654828E+03   -0.16294E-01   -0.21136E-02 19004   0.878E-01    0.799E-01
RMM:  30    -0.126508330381E+03    0.32445E-03   -0.25681E-03 18430   0.206E-01    0.808E-01
RMM:  31    -0.126502288588E+03    0.60418E-02   -0.25177E-03 17253   0.293E-01    0.769E-01
RMM:  32    -0.126500587848E+03    0.17007E-02   -0.92327E-04 17759   0.165E-01    0.783E-01
RMM:  33    -0.126488484024E+03    0.12104E-01   -0.20354E-02 18609   0.733E-01    0.760E-01
RMM:  34    -0.126509456600E+03   -0.20973E-01   -0.27901E-02 19108   0.100E+00    0.727E-01
RMM:  35    -0.126504114756E+03    0.53418E-02   -0.26510E-03 17220   0.365E-01    0.762E-01
RMM:  36    -0.126507480861E+03   -0.33661E-02   -0.20490E-03 19682   0.230E-01    0.748E-01
RMM:  37    -0.126531316377E+03   -0.23836E-01   -0.44377E-02 18520   0.107E+00    0.820E-01
RMM:  38    -0.126617220994E+03   -0.85905E-01   -0.41976E-01 20226   0.320E+00    0.120E+00
RMM:  39    -0.126703815573E+03   -0.86595E-01   -0.32527E-01 19181   0.248E+00    0.153E+00
RMM:  40    -0.126714669750E+03   -0.10854E-01   -0.48698E-02 19051   0.914E-01    0.162E+00
RMM:  41    -0.126704286444E+03    0.10383E-01   -0.43960E-03 19121   0.257E-01    0.161E+00
RMM:  42    -0.126705817710E+03   -0.15313E-02   -0.52988E-04 17961   0.740E-02    0.161E+00
RMM:  43    -0.126720492486E+03   -0.14675E-01   -0.76869E-03 18429   0.458E-01    0.166E+00
RMM:  44    -0.126709062040E+03    0.11430E-01   -0.36330E-03 19155   0.407E-01    0.165E+00
RMM:  45    -0.126694292751E+03    0.14769E-01   -0.58429E-03 18527   0.392E-01    0.158E+00
RMM:  46    -0.126693985612E+03    0.30714E-03   -0.65848E-04 17622   0.126E-01    0.157E+00
RMM:  47    -0.126683860974E+03    0.10125E-01   -0.27236E-03 18607   0.277E-01    0.152E+00
RMM:  48    -0.126693551513E+03   -0.96905E-02   -0.13230E-03 18247   0.245E-01    0.152E+00
RMM:  49    -0.126698205707E+03   -0.46542E-02   -0.27963E-03 18319   0.285E-01    0.158E+00
RMM:  50    -0.126707346369E+03   -0.91407E-02   -0.24754E-03 19589   0.251E-01    0.163E+00
RMM:  51    -0.126716193854E+03   -0.88475E-02   -0.27476E-03 19075   0.252E-01    0.167E+00
RMM:  52    -0.126759493335E+03   -0.43299E-01   -0.33681E-02 19455   0.938E-01    0.201E+00
RMM:  53    -0.126814655452E+03   -0.55162E-01   -0.65004E-02 19646   0.126E+00    0.223E+00
RMM:  54    -0.126812029067E+03    0.26264E-02   -0.65395E-03 18890   0.334E-01    0.223E+00
RMM:  55    -0.126815181802E+03   -0.31527E-02   -0.12842E-03 19702   0.101E-01    0.224E+00
RMM:  56    -0.126807536274E+03    0.76455E-02   -0.59670E-04 17691   0.146E-01    0.220E+00
RMM:  57    -0.126819085081E+03   -0.11549E-01   -0.64809E-03 18291   0.436E-01    0.219E+00
RMM:  58    -0.126807759993E+03    0.11325E-01   -0.14489E-03 17247   0.272E-01    0.216E+00
RMM:  59    -0.126800731653E+03    0.70283E-02   -0.13785E-03 18850   0.195E-01    0.211E+00
RMM:  60    -0.126820250657E+03   -0.19519E-01   -0.76462E-03 18551   0.482E-01    0.215E+00
RMM:  61    -0.126800519673E+03    0.19731E-01   -0.40318E-03 18881   0.410E-01    0.209E+00
RMM:  62    -0.126750078907E+03    0.50441E-01   -0.40488E-02 18909   0.108E+00    0.187E+00
RMM:  63    -0.126733015522E+03    0.17063E-01   -0.15332E-02 18568   0.599E-01    0.185E+00
RMM:  64    -0.126725640276E+03    0.73752E-02   -0.59696E-03 19679   0.320E-01    0.175E+00
RMM:  65    -0.126725420232E+03    0.22004E-03   -0.59978E-04 18833   0.716E-02    0.174E+00
RMM:  66    -0.126721346500E+03    0.40737E-02   -0.59878E-04 18851   0.129E-01    0.172E+00
RMM:  67    -0.126639332025E+03    0.82014E-01   -0.14694E-01 18244   0.216E+00    0.143E+00
RMM:  68    -0.126647869915E+03   -0.85379E-02   -0.16846E-02 17895   0.783E-01    0.139E+00
RMM:  69    -0.126653801486E+03   -0.59316E-02   -0.20673E-03 19141   0.204E-01    0.143E+00
RMM:  70    -0.126651783673E+03    0.20178E-02   -0.46455E-04 18233   0.872E-02    0.142E+00
RMM:  71    -0.126652077743E+03   -0.29407E-03   -0.50388E-05 16113   0.275E-02    0.142E+00
RMM:  72    -0.126643631400E+03    0.84463E-02   -0.44351E-03 17505   0.367E-01    0.139E+00
RMM:  73    -0.126638641284E+03    0.49901E-02   -0.15788E-03 17727   0.252E-01    0.140E+00
RMM:  74    -0.126645046453E+03   -0.64052E-02   -0.86920E-04 18124   0.187E-01    0.140E+00
RMM:  75    -0.126642023044E+03    0.30234E-02   -0.56558E-04 18288   0.130E-01    0.139E+00
RMM:  76    -0.126640774621E+03    0.12484E-02   -0.22438E-04 18134   0.671E-02    0.138E+00
RMM:  77    -0.126588970454E+03    0.51804E-01   -0.13170E-01 18135   0.195E+00    0.124E+00
RMM:  78    -0.126590151355E+03   -0.11809E-02   -0.16512E-02 17773   0.681E-01    0.122E+00
RMM:  79    -0.126587035065E+03    0.31163E-02   -0.34687E-03 19906   0.242E-01    0.119E+00
RMM:  80    -0.126585738105E+03    0.12970E-02   -0.57483E-04 19017   0.993E-02    0.120E+00
RMM:  81    -0.126571929541E+03    0.13809E-01   -0.80830E-03 18355   0.484E-01    0.117E+00
RMM:  82    -0.126450157100E+03    0.12177E+00   -0.74451E-01 18368   0.473E+00    0.113E+00
RMM:  83    -0.126445839732E+03    0.43174E-02   -0.19161E-01 18130   0.217E+00    0.122E+00
RMM:  84    -0.126433157905E+03    0.12682E-01   -0.16930E-01 20365   0.174E+00    0.123E+00
RMM:  85    -0.126442687334E+03   -0.95294E-02   -0.14650E-02 17896   0.747E-01    0.111E+00
RMM:  86    -0.126443104999E+03   -0.41766E-03   -0.24476E-03 18159   0.209E-01    0.112E+00
RMM:  87    -0.126443240031E+03   -0.13503E-03   -0.68285E-04 19022   0.144E-01    0.115E+00
RMM:  88    -0.126437352078E+03    0.58880E-02   -0.17927E-02 17963   0.736E-01    0.132E+00
RMM:  89    -0.126434345924E+03    0.30062E-02   -0.14307E-02 18926   0.578E-01    0.142E+00
RMM:  90    -0.126434605790E+03   -0.25987E-03   -0.26065E-03 19918   0.166E-01    0.140E+00
RMM:  91    -0.126433093074E+03    0.15127E-02   -0.15298E-03 18691   0.180E-01    0.141E+00
RMM:  92    -0.126430257715E+03    0.28354E-02   -0.10260E-02 19863   0.501E-01    0.148E+00
RMM:  93    -0.126431911603E+03   -0.16539E-02   -0.43139E-03 18200   0.315E-01    0.148E+00
RMM:  94    -0.126436074568E+03   -0.41630E-02   -0.70026E-03 19042   0.450E-01    0.149E+00
RMM:  95    -0.126436740664E+03   -0.66610E-03   -0.60076E-03 19181   0.407E-01    0.138E+00
RMM:  96    -0.126436759259E+03   -0.18596E-04   -0.73378E-04 18098   0.109E-01    0.139E+00
RMM:  97    -0.126436373541E+03    0.38572E-03   -0.18578E-03 17446   0.226E-01    0.132E+00
RMM:  98    -0.126438661783E+03   -0.22882E-02   -0.25079E-03 19386   0.290E-01    0.129E+00
RMM:  99    -0.126437847399E+03    0.81438E-03   -0.97827E-04 17699   0.168E-01    0.129E+00
RMM: 100    -0.126440802759E+03   -0.29554E-02   -0.56721E-03 19599   0.361E-01    0.131E+00
RMM: 101    -0.126425046951E+03    0.15756E-01   -0.90829E-02 17829   0.163E+00    0.121E+00
RMM: 102    -0.126432749579E+03   -0.77026E-02   -0.50371E-02 18667   0.119E+00    0.130E+00
RMM: 103    -0.126430910842E+03    0.18387E-02   -0.88242E-03 19180   0.397E-01    0.132E+00
RMM: 104    -0.126429882623E+03    0.10282E-02   -0.48096E-03 19533   0.301E-01    0.132E+00
RMM: 105    -0.126429247507E+03    0.63512E-03   -0.32285E-02 19434   0.877E-01    0.147E+00
RMM: 106    -0.126429482224E+03   -0.23472E-03   -0.13149E-02 18995   0.461E-01    0.153E+00
RMM: 107    -0.126430247376E+03   -0.76515E-03   -0.66262E-03 18166   0.470E-01    0.146E+00
RMM: 108    -0.126431060134E+03   -0.81276E-03   -0.85873E-03 20121   0.424E-01    0.138E+00
RMM: 109    -0.126431338591E+03   -0.27846E-03   -0.13491E-03 19106   0.121E-01    0.136E+00
RMM: 110    -0.126433075948E+03   -0.17374E-02   -0.73078E-03 18691   0.431E-01    0.135E+00
RMM: 111    -0.126431806703E+03    0.12692E-02   -0.68212E-03 18845   0.398E-01    0.128E+00
RMM: 112    -0.126424539591E+03    0.72671E-02   -0.58160E-02 17733   0.131E+00    0.921E-01
RMM: 113    -0.126425348005E+03   -0.80841E-03   -0.13170E-02 18026   0.592E-01    0.964E-01
RMM: 114    -0.126429511305E+03   -0.41633E-02   -0.66922E-03 17815   0.477E-01    0.910E-01
RMM: 115    -0.126429664917E+03   -0.15361E-03   -0.25264E-03 18161   0.288E-01    0.939E-01
RMM: 116    -0.126428731259E+03    0.93366E-03   -0.18368E-02 18154   0.714E-01    0.876E-01
RMM: 117    -0.126437062709E+03   -0.83314E-02   -0.66540E-02 20097   0.126E+00    0.705E-01
RMM: 118    -0.126434679446E+03    0.23833E-02   -0.97330E-03 16982   0.679E-01    0.724E-01
RMM: 119    -0.126434767699E+03   -0.88252E-04   -0.19067E-03 17941   0.240E-01    0.727E-01
RMM: 120    -0.126436217317E+03   -0.14496E-02   -0.12783E-03 18850   0.172E-01    0.724E-01
RMM: 121    -0.126434322205E+03    0.18951E-02   -0.25702E-02 17965   0.839E-01    0.619E-01
RMM: 122    -0.126437975205E+03   -0.36530E-02   -0.23754E-02 19613   0.816E-01    0.543E-01
RMM: 123    -0.126438018095E+03   -0.42890E-04   -0.26846E-03 19384   0.169E-01    0.549E-01
RMM: 124    -0.126440354141E+03   -0.23360E-02   -0.32911E-03 18989   0.276E-01    0.484E-01
RMM: 125    -0.126440216681E+03    0.13746E-03   -0.68681E-04 18115   0.134E-01    0.484E-01
RMM: 126    -0.126440447270E+03   -0.23059E-03   -0.18634E-03 18669   0.226E-01    0.509E-01
RMM: 127    -0.126436496439E+03    0.39508E-02   -0.55975E-02 18245   0.122E+00    0.406E-01
RMM: 128    -0.126438261250E+03   -0.17648E-02   -0.48017E-03 17603   0.414E-01    0.375E-01
RMM: 129    -0.126437660182E+03    0.60107E-03   -0.80377E-04 19572   0.131E-01    0.398E-01
RMM: 130    -0.126437572683E+03    0.87499E-04   -0.23534E-03 18653   0.280E-01    0.351E-01
RMM: 131    -0.126437146831E+03    0.42585E-03   -0.13741E-03 18670   0.202E-01    0.352E-01
RMM: 132    -0.126432852565E+03    0.42943E-02   -0.15217E-02 18951   0.663E-01    0.369E-01
RMM: 133    -0.126433180070E+03   -0.32751E-03   -0.17099E-03 18355   0.195E-01    0.364E-01
RMM: 134    -0.126431878468E+03    0.13016E-02   -0.75022E-03 18668   0.444E-01    0.353E-01
RMM: 135    -0.126434640224E+03   -0.27618E-02   -0.63213E-02 19823   0.121E+00    0.330E-01
RMM: 136    -0.126436300974E+03   -0.16608E-02   -0.81617E-03 17016   0.614E-01    0.318E-01
RMM: 137    -0.126431840946E+03    0.44600E-02   -0.26294E-02 18807   0.945E-01    0.318E-01
RMM: 138    -0.126430915623E+03    0.92532E-03   -0.10495E-02 18737   0.482E-01    0.309E-01
RMM: 139    -0.126432954530E+03   -0.20389E-02   -0.58076E-03 18109   0.478E-01    0.266E-01
RMM: 140    -0.126456554785E+03   -0.23600E-01   -0.23138E-01 18898   0.248E+00    0.369E-01
RMM: 141    -0.126450312164E+03    0.62426E-02   -0.17175E-02 16791   0.958E-01    0.419E-01
RMM: 142    -0.126472156625E+03   -0.21844E-01   -0.98796E-02 18979   0.151E+00    0.458E-01
RMM: 143    -0.126484665833E+03   -0.12509E-01   -0.53437E-02 18654   0.105E+00    0.513E-01
RMM: 144    -0.126480913026E+03    0.37528E-02   -0.51465E-03 18307   0.365E-01    0.546E-01
RMM: 145    -0.126478632473E+03    0.22806E-02   -0.71066E-03 19115   0.423E-01    0.454E-01
RMM: 146    -0.126479267531E+03   -0.63506E-03   -0.24572E-03 18734   0.212E-01    0.437E-01
RMM: 147    -0.126464961909E+03    0.14306E-01   -0.33043E-02 18133   0.104E+00    0.412E-01
RMM: 148    -0.126465002333E+03   -0.40424E-04   -0.11119E-02 17943   0.557E-01    0.485E-01
RMM: 149    -0.126466848331E+03   -0.18460E-02   -0.11215E-02 19719   0.511E-01    0.580E-01
RMM: 150    -0.126472292068E+03   -0.54437E-02   -0.66487E-03 18605   0.433E-01    0.599E-01
RMM: 151    -0.126509674963E+03   -0.37383E-01   -0.19089E-01 18655   0.230E+00    0.815E-01
RMM: 152    -0.126419957690E+03    0.89717E-01   -0.10010E+00 17653   0.587E+00    0.509E-01
RMM: 153    -0.126413337078E+03    0.66206E-02   -0.30740E-01 18164   0.312E+00    0.572E-01
RMM: 154    -0.126418039108E+03   -0.47020E-02   -0.81847E-02 20337   0.118E+00    0.467E-01
RMM: 155    -0.126416479630E+03    0.15595E-02   -0.34249E-02 19467   0.856E-01    0.487E-01
RMM: 156    -0.126420424614E+03   -0.39450E-02   -0.13404E-02 17960   0.758E-01    0.429E-01
RMM: 157    -0.126418383051E+03    0.20416E-02   -0.11418E-02 18700   0.592E-01    0.507E-01
RMM: 158    -0.126415872491E+03    0.25106E-02   -0.66067E-03 18373   0.444E-01    0.528E-01
RMM: 159    -0.126417274359E+03   -0.14019E-02   -0.16955E-03 18238   0.248E-01    0.529E-01
RMM: 160    -0.126413850113E+03    0.34242E-02   -0.41845E-02 18095   0.111E+00    0.577E-01
RMM: 161    -0.126414260015E+03   -0.40990E-03   -0.84944E-03 18006   0.464E-01    0.603E-01
RMM: 162    -0.126427290220E+03   -0.13030E-01   -0.64344E-01 18065   0.421E+00    0.547E-01
RMM: 163    -0.126438500489E+03   -0.11210E-01   -0.96129E-02 17809   0.160E+00    0.590E-01
RMM: 164    -0.126438674094E+03   -0.17361E-03   -0.14026E-02 20471   0.311E-01    0.584E-01
RMM: 165    -0.126429393756E+03    0.92803E-02   -0.16472E-02 17421   0.717E-01    0.628E-01
RMM: 166    -0.126429861668E+03   -0.46791E-03   -0.23847E-03 17195   0.307E-01    0.620E-01
RMM: 167    -0.126444281790E+03   -0.14420E-01   -0.92099E-02 17420   0.165E+00    0.493E-01
RMM: 168    -0.126445264212E+03   -0.98242E-03   -0.29200E-02 17842   0.878E-01    0.488E-01
RMM: 169    -0.126448142075E+03   -0.28779E-02   -0.12291E-02 21052   0.399E-01    0.432E-01
RMM: 170    -0.126440970199E+03    0.71719E-02   -0.82497E-03 18000   0.540E-01    0.467E-01
RMM: 171    -0.126440313448E+03    0.65675E-03   -0.17709E-03 17909   0.221E-01    0.469E-01
RMM: 172    -0.126435471928E+03    0.48415E-02   -0.91567E-03 18843   0.475E-01    0.515E-01
RMM: 173    -0.126436317798E+03   -0.84587E-03   -0.82842E-04 17765   0.157E-01    0.503E-01
RMM: 174    -0.126435051853E+03    0.12659E-02   -0.97903E-04 19807   0.145E-01    0.512E-01
RMM: 175    -0.126439688644E+03   -0.46368E-02   -0.43649E-03 17894   0.385E-01    0.503E-01
RMM: 176    -0.126443671971E+03   -0.39833E-02   -0.72509E-03 20577   0.418E-01    0.491E-01
RMM: 177    -0.126480455817E+03   -0.36784E-01   -0.24573E-01 17944   0.266E+00    0.486E-01
RMM: 178    -0.126475418168E+03    0.50376E-02   -0.27541E-02 17550   0.113E+00    0.557E-01
RMM: 179    -0.126468202142E+03    0.72160E-02   -0.14713E-02 18352   0.648E-01    0.462E-01
RMM: 180    -0.126466419938E+03    0.17822E-02   -0.41316E-03 18435   0.323E-01    0.472E-01
RMM: 181    -0.126466104118E+03    0.31582E-03   -0.11259E-03 19518   0.118E-01    0.445E-01
RMM: 182    -0.126522216290E+03   -0.56112E-01   -0.37028E-01 17963   0.323E+00    0.515E-01
RMM: 183    -0.126540575502E+03   -0.18359E-01   -0.92268E-02 17867   0.158E+00    0.490E-01
RMM: 184    -0.126558337229E+03   -0.17762E-01   -0.67370E-02 20429   0.110E+00    0.802E-01
RMM: 185    -0.126557021133E+03    0.13161E-02   -0.47949E-03 19059   0.249E-01    0.744E-01
RMM: 186    -0.126555459142E+03    0.15620E-02   -0.42979E-04 17947   0.883E-02    0.740E-01
RMM: 187    -0.126597502025E+03   -0.42043E-01   -0.11836E-01 18185   0.176E+00    0.110E+00
RMM: 188    -0.126557108692E+03    0.40393E-01   -0.51903E-02 18892   0.148E+00    0.103E+00
RMM: 189    -0.126608348877E+03   -0.51240E-01   -0.73541E-02 18587   0.163E+00    0.116E+00
RMM: 190    -0.126595203531E+03    0.13145E-01   -0.66077E-03 16693   0.629E-01    0.118E+00
RMM: 191    -0.126594934698E+03    0.26883E-03   -0.10168E-03 17831   0.160E-01    0.112E+00
RMM: 192    -0.126533498866E+03    0.61436E-01   -0.13751E-01 17712   0.209E+00    0.823E-01
RMM: 193    -0.126537860431E+03   -0.43616E-02   -0.29561E-02 17299   0.107E+00    0.735E-01
RMM: 194    -0.126538592511E+03   -0.73208E-03   -0.71106E-03 20241   0.269E-01    0.752E-01
RMM: 195    -0.126546157707E+03   -0.75652E-02   -0.23583E-03 17709   0.289E-01    0.787E-01
RMM: 196    -0.126536910232E+03    0.92475E-02   -0.33208E-03 19338   0.350E-01    0.758E-01
RMM: 197    -0.126490070216E+03    0.46840E-01   -0.14097E-01 17939   0.206E+00    0.514E-01
RMM: 198    -0.126474270437E+03    0.15800E-01   -0.90851E-02 18536   0.151E+00    0.561E-01
RMM: 199    -0.126473760595E+03    0.50984E-03   -0.25454E-02 20378   0.570E-01    0.457E-01
RMM: 200    -0.126547715061E+03   -0.73954E-01   -0.45091E-01 17436   0.381E+00
   2 F= -.12654772E+03 E0= -.12654791E+03  d E =-.193784E+00
 trial-energy change:   -0.193784  1 .order   -0.086861   -0.148571   -0.025152
 step:   1.2038(harm=  1.2038)  dis= 0.01562  next Energy=  -126.443355 (dE=-0.894E-01)
 bond charge predicted
       N       E                     dE             d eps       ncg     rms          rms(c)
RMM:   1    -0.126556160130E+03   -0.82400E-01   -0.23063E-01 17058   0.260E+00    0.643E-01
RMM:   2    -0.126576605444E+03   -0.20445E-01   -0.66017E-02 18529   0.128E+00    0.790E-01
RMM:   3    -0.126579634577E+03   -0.30291E-02   -0.15504E-02 20242   0.318E-01    0.794E-01
RMM:   4    -0.126558653627E+03    0.20981E-01   -0.16705E-02 18009   0.761E-01    0.698E-01
RMM:   5    -0.126535646802E+03    0.23007E-01   -0.40114E-02 20210   0.102E+00    0.627E-01
RMM:   6    -0.126531302460E+03    0.43443E-02   -0.87161E-03 19702   0.327E-01    0.627E-01
RMM:   7    -0.126489017158E+03    0.42285E-01   -0.13474E-01 17991   0.198E+00    0.545E-01
RMM:   8    -0.126457461079E+03    0.31556E-01   -0.28569E-01 20530   0.259E+00    0.491E-01
RMM:   9    -0.126445977760E+03    0.11483E-01   -0.19417E-01 19569   0.182E+00    0.495E-01
RMM:  10    -0.126466162781E+03   -0.20185E-01   -0.14022E-01 18650   0.227E+00    0.533E-01
RMM:  11    -0.126485161721E+03   -0.18999E-01   -0.17488E-01 19201   0.192E+00    0.796E-01
RMM:  12    -0.126490206373E+03   -0.50447E-02   -0.32584E-02 18508   0.100E+00    0.651E-01
RMM:  13    -0.126480910306E+03    0.92961E-02   -0.10063E-01 18355   0.166E+00    0.622E-01
RMM:  14    -0.126479950976E+03    0.95933E-03   -0.13851E-02 18440   0.536E-01    0.631E-01
RMM:  15    -0.126458163180E+03    0.21788E-01   -0.12371E-01 17990   0.187E+00    0.644E-01
RMM:  16    -0.126455418814E+03    0.27444E-02   -0.81899E-01 20254   0.443E+00    0.703E-01
RMM:  17    -0.126468981411E+03   -0.13563E-01   -0.16620E-01 19694   0.131E+00    0.808E-01
RMM:  18    -0.126470127299E+03   -0.11459E-02   -0.21717E-02 19487   0.454E-01    0.824E-01
RMM:  19    -0.126467490199E+03    0.26371E-02   -0.33301E-03 17914   0.327E-01    0.794E-01
RMM:  20    -0.126464737650E+03    0.27525E-02   -0.71632E-03 20081   0.414E-01    0.782E-01
RMM:  21    -0.126458900933E+03    0.58367E-02   -0.21263E-02 19466   0.669E-01    0.790E-01
RMM:  22    -0.126457789998E+03    0.11109E-02   -0.68685E-03 18700   0.338E-01    0.783E-01
RMM:  23    -0.126458178966E+03   -0.38897E-03   -0.77190E-04 17901   0.960E-02    0.784E-01
RMM:  24    -0.126456325863E+03    0.18531E-02   -0.75815E-03 18510   0.428E-01    0.769E-01
RMM:  25    -0.126456701247E+03   -0.37538E-03   -0.64893E-04 17233   0.145E-01    0.778E-01
RMM:  26    -0.126455424333E+03    0.12769E-02   -0.47035E-03 19583   0.319E-01    0.751E-01
RMM:  27    -0.126448244784E+03    0.71795E-02   -0.16966E-01 18598   0.204E+00    0.725E-01
RMM:  28    -0.126462988947E+03   -0.14744E-01   -0.37470E-01 20675   0.278E+00    0.854E-01
RMM:  29    -0.126454252398E+03    0.87365E-02   -0.29863E-02 16511   0.122E+00    0.770E-01
RMM:  30    -0.126448981009E+03    0.52714E-02   -0.27858E-02 19557   0.901E-01    0.782E-01
RMM:  31    -0.126448162687E+03    0.81832E-03   -0.71672E-03 19516   0.328E-01    0.760E-01
RMM:  32    -0.126448049067E+03    0.11362E-03   -0.64459E-03 18654   0.361E-01    0.682E-01
RMM:  33    -0.126449421199E+03   -0.13721E-02   -0.50343E-03 18388   0.432E-01    0.733E-01
RMM:  34    -0.126447877575E+03    0.15436E-02   -0.70366E-01 17647   0.445E+00    0.577E-01
RMM:  35    -0.126464031002E+03   -0.16153E-01   -0.17467E-01 17880   0.202E+00    0.727E-01
RMM:  36    -0.126517713285E+03   -0.53682E-01   -0.10271E+00 19439   0.483E+00    0.126E+00
RMM:  37    -0.126542901840E+03   -0.25189E-01   -0.23395E-01 18899   0.187E+00    0.147E+00
RMM:  38    -0.126545369565E+03   -0.24677E-02   -0.31981E-02 19383   0.530E-01    0.141E+00
RMM:  39    -0.126538108627E+03    0.72609E-02   -0.53296E-03 17802   0.409E-01    0.131E+00
RMM:  40    -0.126577328600E+03   -0.39220E-01   -0.18616E-01 17842   0.219E+00    0.171E+00
RMM:  41    -0.126567108359E+03    0.10220E-01   -0.10841E-02 16442   0.806E-01    0.161E+00
RMM:  42    -0.126562449329E+03    0.46590E-02   -0.43254E-03 17344   0.414E-01    0.158E+00
RMM:  43    -0.126535306089E+03    0.27143E-01   -0.77507E-02 18370   0.138E+00    0.138E+00
RMM:  44    -0.126556982769E+03   -0.21677E-01   -0.31138E-02 18219   0.116E+00    0.157E+00
RMM:  45    -0.126559918420E+03   -0.29357E-02   -0.10100E-02 19463   0.443E-01    0.158E+00
RMM:  46    -0.126544366800E+03    0.15552E-01   -0.21683E-02 18068   0.809E-01    0.141E+00
RMM:  47    -0.126426893055E+03    0.11747E+00   -0.20127E+00 19269   0.687E+00    0.650E-01
RMM:  48    -0.126451891755E+03   -0.24999E-01   -0.24881E-01 18587   0.193E+00    0.572E-01
RMM:  49    -0.126458387484E+03   -0.64957E-02   -0.25114E-02 19489   0.487E-01    0.560E-01
RMM:  50    -0.126458669516E+03   -0.28203E-03   -0.13112E-03 19469   0.113E-01    0.559E-01
RMM:  51    -0.126463629480E+03   -0.49600E-02   -0.10406E-02 18101   0.530E-01    0.536E-01
RMM:  52    -0.126457510867E+03    0.61186E-02   -0.20068E-02 18499   0.824E-01    0.543E-01
RMM:  53    -0.126465588341E+03   -0.80775E-02   -0.11571E-02 17749   0.694E-01    0.495E-01
RMM:  54    -0.126466926053E+03   -0.13377E-02   -0.38610E-03 19489   0.274E-01    0.484E-01
RMM:  55    -0.126446369038E+03    0.20557E-01   -0.34633E-01 18007   0.302E+00    0.473E-01
RMM:  56    -0.126451312985E+03   -0.49439E-02   -0.10124E-01 18118   0.147E+00    0.425E-01
RMM:  57    -0.127023737378E+03   -0.57242E+00   -0.20525E+01 19142   0.223E+01    0.813E+00
RMM:  58    -0.127390232771E+03   -0.36650E+00   -0.35162E+00 18714   0.876E+00    0.921E+00
RMM:  59    -0.127439115486E+03   -0.48883E-01   -0.45906E-01 20183   0.216E+00    0.101E+01
RMM:  60    -0.127429423742E+03    0.96917E-02   -0.30609E-02 19816   0.438E-01    0.985E+00
RMM:  61    -0.127246178696E+03    0.18325E+00   -0.37845E-01 17766   0.360E+00    0.782E+00
RMM:  62    -0.127485867564E+03   -0.23969E+00   -0.57856E-01 20403   0.454E+00    0.101E+01
RMM:  63    -0.127479746989E+03    0.61206E-02   -0.24393E-02 18803   0.628E-01    0.100E+01
RMM:  64    -0.127357103191E+03    0.12264E+00   -0.20417E-01 17795   0.261E+00    0.812E+00
RMM:  65    -0.127442056054E+03   -0.84953E-01   -0.64623E-02 17761   0.186E+00    0.837E+00
RMM:  66    -0.127441763033E+03    0.29302E-03   -0.10826E-02 19758   0.521E-01    0.890E+00
RMM:  67    -0.127336905200E+03    0.10486E+00   -0.11946E-01 17523   0.197E+00    0.772E+00
RMM:  68    -0.127412811815E+03   -0.75907E-01   -0.57459E-02 18569   0.163E+00    0.827E+00
RMM:  69    -0.127421805509E+03   -0.89937E-02   -0.11476E-02 18616   0.532E-01    0.873E+00
RMM:  70    -0.127436880408E+03   -0.15075E-01   -0.54210E-03 19410   0.393E-01    0.892E+00
RMM:  71    -0.127438223339E+03   -0.13429E-02   -0.98805E-04 18453   0.132E-01    0.898E+00
RMM:  72    -0.127467215522E+03   -0.28992E-01   -0.84507E-02 17943   0.151E+00    0.101E+01
RMM:  73    -0.127472965649E+03   -0.57501E-02   -0.13241E-02 17663   0.633E-01    0.102E+01
RMM:  74    -0.127356681204E+03    0.11628E+00   -0.15949E-01 17327   0.236E+00    0.884E+00
RMM:  75    -0.127369476944E+03   -0.12796E-01   -0.19548E-02 17199   0.105E+00    0.885E+00
RMM:  76    -0.127305567808E+03    0.63909E-01   -0.61949E-02 19946   0.129E+00    0.817E+00
RMM:  77    -0.126823493521E+03    0.48207E+00   -0.20111E+00 17712   0.808E+00    0.436E+00
RMM:  78    -0.126738713907E+03    0.84780E-01   -0.67398E-01 17626   0.480E+00    0.373E+00
RMM:  79    -0.127052648093E+03   -0.31393E+00   -0.58336E-01 17145   0.459E+00    0.550E+00
RMM:  80    -0.127083668454E+03   -0.31020E-01   -0.80018E-02 17325   0.166E+00    0.561E+00
RMM:  81    -0.127082436825E+03    0.12316E-02   -0.12936E-02 20517   0.345E-01    0.577E+00
RMM:  82    -0.127050591500E+03    0.31845E-01   -0.18368E-02 17625   0.775E-01    0.565E+00
RMM:  83    -0.127185470559E+03   -0.13488E+00   -0.17292E-01 18465   0.233E+00    0.672E+00
RMM:  84    -0.127218383259E+03   -0.32913E-01   -0.48106E-02 18149   0.126E+00    0.676E+00
RMM:  85    -0.127204918085E+03    0.13465E-01   -0.64406E-03 19397   0.374E-01    0.683E+00
RMM:  86    -0.127258514758E+03   -0.53597E-01   -0.29705E-02 18206   0.944E-01    0.729E+00
RMM:  87    -0.127209599397E+03    0.48915E-01   -0.21889E-02 19806   0.961E-01    0.700E+00
RMM:  88    -0.127286927438E+03   -0.77328E-01   -0.52856E-02 18046   0.133E+00    0.765E+00
RMM:  89    -0.127300688478E+03   -0.13761E-01   -0.11168E-02 17862   0.663E-01    0.769E+00
RMM:  90    -0.127282702672E+03    0.17986E-01   -0.38767E-03 18817   0.357E-01    0.756E+00
RMM:  91    -0.127320767246E+03   -0.38065E-01   -0.13947E-02 18617   0.693E-01    0.788E+00
RMM:  92    -0.127234674798E+03    0.86092E-01   -0.85632E-02 17768   0.171E+00    0.738E+00
RMM:  93    -0.127272599632E+03   -0.37925E-01   -0.13183E-02 16805   0.904E-01    0.744E+00
RMM:  94    -0.127274725017E+03   -0.21254E-02   -0.26088E-03 19419   0.272E-01    0.763E+00
RMM:  95    -0.127279741496E+03   -0.50165E-02   -0.20021E-03 18177   0.260E-01    0.757E+00
RMM:  96    -0.127271377981E+03    0.83635E-02   -0.81726E-03 19724   0.436E-01    0.728E+00
RMM:  97    -0.126578423509E+03    0.69295E+00   -0.47502E+00 17442   0.122E+01    0.156E+00
RMM:  98    -0.126716519324E+03   -0.13810E+00   -0.53804E-01 17029   0.528E+00    0.134E+00
RMM:  99    -0.126748268755E+03   -0.31749E-01   -0.11632E-01 20471   0.130E+00    0.180E+00
RMM: 100    -0.126792338680E+03   -0.44070E-01   -0.31477E-02 17889   0.102E+00    0.208E+00
RMM: 101    -0.126792995644E+03   -0.65696E-03   -0.48992E-03 17752   0.398E-01    0.210E+00
RMM: 102    -0.126806408569E+03   -0.13413E-01   -0.75042E-03 19586   0.439E-01    0.215E+00
RMM: 103    -0.126816676341E+03   -0.10268E-01   -0.62488E-03 18676   0.372E-01    0.211E+00
RMM: 104    -0.126820632051E+03   -0.39557E-02   -0.34997E-03 18805   0.297E-01    0.205E+00
RMM: 105    -0.126779883864E+03    0.40748E-01   -0.37108E-02 18097   0.110E+00    0.170E+00
RMM: 106    -0.126782975906E+03   -0.30920E-02   -0.48675E-03 17659   0.414E-01    0.165E+00
RMM: 107    -0.126806110631E+03   -0.23135E-01   -0.98740E-03 17665   0.579E-01    0.176E+00
RMM: 108    -0.126882953634E+03   -0.76843E-01   -0.10292E-01 19750   0.173E+00    0.230E+00
RMM: 109    -0.126871929987E+03    0.11024E-01   -0.10656E-02 17951   0.551E-01    0.218E+00
RMM: 110    -0.126885313002E+03   -0.13383E-01   -0.45657E-03 19545   0.310E-01    0.220E+00
RMM: 111    -0.126883398296E+03    0.19147E-02   -0.56252E-04 19129   0.893E-02    0.224E+00
RMM: 112    -0.126915219928E+03   -0.31822E-01   -0.28621E-02 17652   0.930E-01    0.233E+00
RMM: 113    -0.126919652458E+03   -0.44325E-02   -0.46009E-03 17517   0.439E-01    0.224E+00
RMM: 114    -0.126952345517E+03   -0.32693E-01   -0.20560E-02 18201   0.805E-01    0.229E+00
RMM: 115    -0.126926005325E+03    0.26340E-01   -0.56159E-03 17325   0.559E-01    0.235E+00
RMM: 116    -0.126948846416E+03   -0.22841E-01   -0.38844E-03 20043   0.366E-01    0.226E+00
RMM: 117    -0.126967039302E+03   -0.18193E-01   -0.54305E-03 18122   0.407E-01    0.230E+00
RMM: 118    -0.126966067466E+03    0.97184E-03   -0.70839E-04 17221   0.160E-01    0.232E+00
RMM: 119    -0.126965317313E+03    0.75015E-03   -0.85146E-05 16972   0.332E-02    0.232E+00
RMM: 120    -0.126903675895E+03    0.61641E-01   -0.39553E-02 17325   0.123E+00    0.230E+00
RMM: 121    -0.126887261423E+03    0.16414E-01   -0.12342E-02 17296   0.724E-01    0.238E+00
RMM: 122    -0.126748286842E+03    0.13897E+00   -0.28055E-01 18030   0.308E+00    0.226E+00
RMM: 123    -0.126721932018E+03    0.26355E-01   -0.79237E-02 17960   0.165E+00    0.246E+00
RMM: 124    -0.126791491211E+03   -0.69559E-01   -0.42943E-02 17445   0.132E+00    0.232E+00
RMM: 125    -0.126819608254E+03   -0.28117E-01   -0.27617E-02 19840   0.851E-01    0.249E+00
RMM: 126    -0.126812388432E+03    0.72198E-02   -0.16223E-03 18051   0.199E-01    0.250E+00
RMM: 127    -0.126816729633E+03   -0.43412E-02   -0.41766E-03 18363   0.349E-01    0.231E+00
RMM: 128    -0.126898431083E+03   -0.81701E-01   -0.92365E-02 18251   0.172E+00    0.260E+00
RMM: 129    -0.126880929800E+03    0.17501E-01   -0.90645E-03 17104   0.714E-01    0.254E+00
RMM: 130    -0.126916952149E+03   -0.36022E-01   -0.16952E-02 19919   0.618E-01    0.272E+00
RMM: 131    -0.127013656233E+03   -0.96704E-01   -0.11730E-01 18156   0.195E+00    0.270E+00
RMM: 132    -0.127167519167E+03   -0.15386E+00   -0.34674E-01 20230   0.324E+00    0.277E+00
RMM: 133    -0.127144907353E+03    0.22612E-01   -0.33285E-02 19204   0.828E-01    0.228E+00
RMM: 134    -0.127157022111E+03   -0.12115E-01   -0.10344E-02 19131   0.417E-01    0.218E+00
RMM: 135    -0.127163882189E+03   -0.68601E-02   -0.16605E-03 18908   0.185E-01    0.223E+00
RMM: 136    -0.127088818706E+03    0.75063E-01   -0.50324E-02 17549   0.131E+00    0.193E+00
RMM: 137    -0.127023853837E+03    0.64965E-01   -0.80975E-02 19139   0.152E+00    0.137E+00
RMM: 138    -0.126959802460E+03    0.64051E-01   -0.85423E-02 18878   0.153E+00    0.125E+00
RMM: 139    -0.126968678736E+03   -0.88763E-02   -0.10413E-02 18438   0.535E-01    0.123E+00
RMM: 140    -0.126967651386E+03    0.10274E-02   -0.47236E-03 20135   0.286E-01    0.124E+00
RMM: 141    -0.126930196598E+03    0.37455E-01   -0.16714E-02 18237   0.741E-01    0.116E+00
RMM: 142    -0.126740741497E+03    0.18946E+00   -0.59958E-01 19003   0.454E+00    0.141E+00
RMM: 143    -0.126720019001E+03    0.20722E-01   -0.15083E-01 18573   0.190E+00    0.133E+00
RMM: 144    -0.126948030442E+03   -0.22801E+00   -0.74752E-01 17836   0.502E+00    0.191E+00
RMM: 145    -0.127010856620E+03   -0.62826E-01   -0.20048E-01 17952   0.279E+00    0.144E+00
RMM: 146    -0.126920064884E+03    0.90792E-01   -0.15245E-01 17795   0.214E+00    0.138E+00
RMM: 147    -0.127054297386E+03   -0.13423E+00   -0.53686E-01 18689   0.402E+00    0.193E+00
RMM: 148    -0.127066072708E+03   -0.11775E-01   -0.83152E-02 18552   0.132E+00    0.212E+00
RMM: 149    -0.127037380733E+03    0.28692E-01   -0.14785E-02 19382   0.550E-01    0.203E+00
RMM: 150    -0.127031213493E+03    0.61672E-02   -0.48718E-03 18098   0.352E-01    0.204E+00
RMM: 151    -0.127003343698E+03    0.27870E-01   -0.98604E-02 18646   0.159E+00    0.222E+00
RMM: 152    -0.126712151991E+03    0.29119E+00   -0.10298E+00 18325   0.594E+00    0.139E+00
RMM: 153    -0.126714753990E+03   -0.26020E-02   -0.15567E-01 18050   0.225E+00    0.143E+00
RMM: 154    -0.126753352731E+03   -0.38599E-01   -0.72989E-02 18973   0.143E+00    0.151E+00
RMM: 155    -0.126766322890E+03   -0.12970E-01   -0.25401E-02 18761   0.698E-01    0.164E+00
RMM: 156    -0.126825646853E+03   -0.59324E-01   -0.10260E-01 18223   0.162E+00    0.214E+00
RMM: 157    -0.126860658854E+03   -0.35012E-01   -0.63431E-02 18875   0.121E+00    0.245E+00
RMM: 158    -0.126898462780E+03   -0.37804E-01   -0.41526E-02 19685   0.974E-01    0.274E+00
RMM: 159    -0.126874194008E+03    0.24269E-01   -0.14335E-02 18259   0.721E-01    0.260E+00
RMM: 160    -0.126858863542E+03    0.15330E-01   -0.96510E-03 18221   0.562E-01    0.271E+00
RMM: 161    -0.126827941234E+03    0.30922E-01   -0.32526E-02 19522   0.932E-01    0.270E+00
RMM: 162    -0.126823559649E+03    0.43816E-02   -0.25057E-01 19301   0.231E+00    0.178E+00
RMM: 163    -0.126825943589E+03   -0.23839E-02   -0.45558E-02 18739   0.948E-01    0.191E+00
RMM: 164    -0.126897918642E+03   -0.71975E-01   -0.12456E-01 17840   0.202E+00    0.209E+00
RMM: 165    -0.126904134107E+03   -0.62155E-02   -0.17967E-02 17627   0.769E-01    0.212E+00
RMM: 166    -0.126886040012E+03    0.18094E-01   -0.32525E-03 18406   0.340E-01    0.207E+00
RMM: 167    -0.126681887341E+03    0.20415E+00   -0.62653E-01 17623   0.454E+00    0.183E+00
RMM: 168    -0.126664451226E+03    0.17436E-01   -0.17976E-01 17663   0.241E+00    0.184E+00
RMM: 169    -0.126643044863E+03    0.21406E-01   -0.83947E-02 20579   0.122E+00    0.173E+00
RMM: 170    -0.126576422050E+03    0.66623E-01   -0.23113E-01 18424   0.252E+00    0.142E+00
RMM: 171    -0.126623639109E+03   -0.47217E-01   -0.23639E-01 19311   0.282E+00    0.101E+00
RMM: 172    -0.126612164094E+03    0.11475E-01   -0.36732E-02 18627   0.104E+00    0.107E+00
RMM: 173    -0.126626632439E+03   -0.14468E-01   -0.96691E-03 18597   0.555E-01    0.981E-01
RMM: 174    -0.126629150164E+03   -0.25177E-02   -0.93693E-03 19193   0.483E-01    0.975E-01
RMM: 175    -0.126662401945E+03   -0.33252E-01   -0.53430E-02 18555   0.127E+00    0.101E+00
RMM: 176    -0.126636434670E+03    0.25967E-01   -0.22268E-02 17639   0.102E+00    0.935E-01
RMM: 177    -0.126567522889E+03    0.68912E-01   -0.18435E-01 17937   0.254E+00    0.105E+00
RMM: 178    -0.126559231818E+03    0.82911E-02   -0.42655E-02 17841   0.121E+00    0.916E-01
RMM: 179    -0.126522214706E+03    0.37017E-01   -0.11888E-01 19392   0.167E+00    0.655E-01
RMM: 180    -0.126488205599E+03    0.34009E-01   -0.16971E-01 19467   0.211E+00    0.672E-01
RMM: 181    -0.126463863400E+03    0.24342E-01   -0.18470E-01 19550   0.203E+00    0.631E-01
RMM: 182    -0.126482670190E+03   -0.18807E-01   -0.62589E-02 18504   0.147E+00    0.653E-01
RMM: 183    -0.126483667876E+03   -0.99769E-03   -0.10727E-02 18819   0.409E-01    0.658E-01
RMM: 184    -0.126478820153E+03    0.48477E-02   -0.56148E-03 18608   0.383E-01    0.629E-01
RMM: 185    -0.126474337115E+03    0.44830E-02   -0.13987E-02 19752   0.587E-01    0.625E-01
RMM: 186    -0.126475466589E+03   -0.11295E-02   -0.55057E-03 18838   0.335E-01    0.712E-01
RMM: 187    -0.126440972378E+03    0.34494E-01   -0.27041E-01 17968   0.290E+00    0.789E-01
RMM: 188    -0.126455089865E+03   -0.14117E-01   -0.32397E-02 16953   0.138E+00    0.672E-01
RMM: 189    -0.126465329595E+03   -0.10240E-01   -0.56026E-02 19490   0.117E+00    0.114E+00
RMM: 190    -0.126465551001E+03   -0.22141E-03   -0.64249E-03 19105   0.330E-01    0.115E+00
RMM: 191    -0.126469951957E+03   -0.44010E-02   -0.79993E-03 18311   0.480E-01    0.101E+00
RMM: 192    -0.126451871388E+03    0.18081E-01   -0.75338E-02 17374   0.163E+00    0.148E+00
RMM: 193    -0.126455969350E+03   -0.40980E-02   -0.17001E-02 17147   0.817E-01    0.153E+00
RMM: 194    -0.126476072292E+03   -0.20103E-01   -0.10477E-01 17282   0.187E+00    0.109E+00
RMM: 195    -0.126476949354E+03   -0.87706E-03   -0.14794E-02 17192   0.788E-01    0.110E+00
RMM: 196    -0.126477435493E+03   -0.48614E-03   -0.37068E-03 20844   0.186E-01    0.109E+00
RMM: 197    -0.126465927958E+03    0.11508E-01   -0.27193E-02 17563   0.954E-01    0.134E+00
RMM: 198    -0.126471276795E+03   -0.53488E-02   -0.57122E-02 19705   0.128E+00    0.117E+00
RMM: 199    -0.126478446911E+03   -0.71701E-02   -0.16832E-02 18127   0.723E-01    0.756E-01
RMM: 200    -0.126478204233E+03    0.24268E-03   -0.82691E-03 18915   0.451E-01
   3 F= -.12647820E+03 E0= -.12647842E+03  d E =-.124273E+00
 curvature:  -0.60 expect dE=-0.873E-02 dE for cont linesearch -0.114E-03
 ZBRENT: interpolating
 opt :   1.1683  next Energy=  -126.478298 (dE=-0.124E+00)
 bond charge predicted
       N       E                     dE             d eps       ncg     rms          rms(c)
RMM:   1    -0.126477729771E+03    0.71714E-03   -0.99079E-03 17092   0.467E-01    0.656E-01
RMM:   2    -0.126485616295E+03   -0.78865E-02   -0.85738E-03 17877   0.569E-01    0.571E-01
RMM:   3    -0.126489855549E+03   -0.42393E-02   -0.79657E-03 18804   0.460E-01    0.582E-01
RMM:   4    -0.126500650108E+03   -0.10795E-01   -0.20417E-02 19392   0.699E-01    0.561E-01
RMM:   5    -0.126503129746E+03   -0.24796E-02   -0.48770E-03 18918   0.263E-01    0.562E-01
RMM:   6    -0.126497533983E+03    0.55958E-02   -0.19299E-03 18104   0.271E-01    0.543E-01
RMM:   7    -0.126429105984E+03    0.68428E-01   -0.53630E-01 17669   0.404E+00    0.457E-01
RMM:   8    -0.126422605910E+03    0.65001E-02   -0.19516E-01 17898   0.227E+00    0.453E-01
RMM:   9    -0.126447739759E+03   -0.25134E-01   -0.69881E-02 17108   0.160E+00    0.367E-01
RMM:  10    -0.126510845930E+03   -0.63106E-01   -0.75257E-01 18450   0.446E+00    0.814E-01
RMM:  11    -0.126511852370E+03   -0.10064E-02   -0.69465E-02 18075   0.143E+00    0.861E-01
RMM:  12    -0.126514042913E+03   -0.21905E-02   -0.10226E-02 20931   0.261E-01    0.793E-01
RMM:  13    -0.126532743981E+03   -0.18701E-01   -0.29703E-02 17904   0.914E-01    0.947E-01
RMM:  14    -0.126530893223E+03    0.18508E-02   -0.33506E-03 17696   0.360E-01    0.940E-01
RMM:  15    -0.126529465489E+03    0.14277E-02   -0.39751E-04 19028   0.965E-02    0.913E-01
RMM:  16    -0.126523968708E+03    0.54968E-02   -0.22980E-03 17733   0.263E-01    0.741E-01
RMM:  17    -0.126489559428E+03    0.34409E-01   -0.12224E-01 18937   0.178E+00    0.591E-01
RMM:  18    -0.126475027496E+03    0.14532E-01   -0.69941E-02 18538   0.121E+00    0.519E-01
RMM:  19    -0.126472996258E+03    0.20312E-02   -0.17096E-02 19703   0.545E-01    0.585E-01
RMM:  20    -0.126460222559E+03    0.12774E-01   -0.38225E-02 18725   0.964E-01    0.724E-01
RMM:  21    -0.126465550359E+03   -0.53278E-02   -0.52000E-03 17892   0.474E-01    0.789E-01
RMM:  22    -0.126470544733E+03   -0.49944E-02   -0.18926E-02 18847   0.739E-01    0.903E-01
RMM:  23    -0.126467006885E+03    0.35378E-02   -0.31730E-03 17433   0.383E-01    0.100E+00
RMM:  24    -0.126461281858E+03    0.57250E-02   -0.83557E-03 18477   0.503E-01    0.894E-01
RMM:  25    -0.126479514609E+03   -0.18233E-01   -0.56326E-02 17630   0.145E+00    0.744E-01
RMM:  26    -0.126478105412E+03    0.14092E-02   -0.61622E-03 16962   0.561E-01    0.717E-01
RMM:  27    -0.126478098000E+03    0.74122E-05   -0.86715E-04 19008   0.954E-02    0.747E-01
RMM:  28    -0.126479532875E+03   -0.14349E-02   -0.57465E-04 18642   0.109E-01    0.730E-01
RMM:  29    -0.126481645276E+03   -0.21124E-02   -0.18580E-03 19105   0.247E-01    0.715E-01
RMM:  30    -0.126481449002E+03    0.19627E-03   -0.56047E-04 17359   0.159E-01    0.690E-01
RMM:  31    -0.126491947243E+03   -0.10498E-01   -0.17042E-02 17868   0.729E-01    0.568E-01
RMM:  32    -0.126491695790E+03    0.25145E-03   -0.22645E-03 17432   0.278E-01    0.580E-01
RMM:  33    -0.126494264559E+03   -0.25688E-02   -0.18892E-03 20462   0.203E-01    0.578E-01
RMM:  34    -0.126497773227E+03   -0.35087E-02   -0.64700E-03 18891   0.443E-01    0.607E-01
RMM:  35    -0.126499246070E+03   -0.14728E-02   -0.14598E-03 18278   0.191E-01    0.601E-01
RMM:  36    -0.126498660775E+03    0.58530E-03   -0.16388E-04 18323   0.584E-02    0.609E-01
RMM:  37    -0.126516462812E+03   -0.17802E-01   -0.45696E-02 17910   0.126E+00    0.454E-01
RMM:  38    -0.126515159120E+03    0.13037E-02   -0.53827E-03 17356   0.476E-01    0.480E-01
RMM:  39    -0.126517918329E+03   -0.27592E-02   -0.26334E-03 21035   0.202E-01    0.488E-01
RMM:  40    -0.126523797665E+03   -0.58793E-02   -0.35106E-03 18286   0.306E-01    0.471E-01
RMM:  41    -0.126530440883E+03   -0.66432E-02   -0.60240E-03 20205   0.390E-01    0.451E-01
RMM:  42    -0.126530129729E+03    0.31115E-03   -0.77123E-04 19127   0.106E-01    0.467E-01
RMM:  43    -0.126524504893E+03    0.56248E-02   -0.32400E-03 17479   0.345E-01    0.460E-01
RMM:  44    -0.126525743758E+03   -0.12389E-02   -0.57042E-03 19983   0.398E-01    0.417E-01
RMM:  45    -0.126526858179E+03   -0.11144E-02   -0.35701E-03 19899   0.245E-01    0.397E-01
RMM:  46    -0.126528034999E+03   -0.11768E-02   -0.37181E-04 18119   0.120E-01    0.363E-01
RMM:  47    -0.126529084011E+03   -0.10490E-02   -0.10364E-03 18685   0.174E-01    0.473E-01
RMM:  48    -0.126528280672E+03    0.80334E-03   -0.11389E-04 16720   0.691E-02    0.509E-01
RMM:  49    -0.126540029291E+03   -0.11749E-01   -0.14152E-02 17996   0.717E-01    0.553E-01
RMM:  50    -0.126530782870E+03    0.92464E-02   -0.59711E-03 17724   0.568E-01    0.628E-01
RMM:  51    -0.126534828566E+03   -0.40457E-02   -0.59803E-04 16529   0.181E-01    0.643E-01
RMM:  52    -0.126536904040E+03   -0.20755E-02   -0.10190E-03 19027   0.167E-01    0.660E-01
RMM:  53    -0.126538921984E+03   -0.20179E-02   -0.76345E-04 18990   0.132E-01    0.695E-01
RMM:  54    -0.126539014808E+03   -0.92824E-04   -0.99959E-05 17714   0.423E-02    0.696E-01
RMM:  55    -0.126545095978E+03   -0.60812E-02   -0.26393E-03 18032   0.281E-01    0.673E-01
RMM:  56    -0.126553657116E+03   -0.85611E-02   -0.68393E-03 20099   0.444E-01    0.598E-01
RMM:  57    -0.126633321122E+03   -0.79664E-01   -0.31001E-01 18182   0.308E+00    0.677E-01
RMM:  58    -0.126635119416E+03   -0.17983E-02   -0.40973E-02 17848   0.115E+00    0.718E-01
RMM:  59    -0.126631582674E+03    0.35367E-02   -0.44640E-03 19837   0.231E-01    0.689E-01
RMM:  60    -0.126636849399E+03   -0.52667E-02   -0.15802E-03 19421   0.190E-01    0.722E-01
RMM:  61    -0.126638409441E+03   -0.15600E-02   -0.12436E-03 18819   0.195E-01    0.746E-01
RMM:  62    -0.126610853089E+03    0.27556E-01   -0.44817E-02 17606   0.129E+00    0.612E-01
RMM:  63    -0.126592177338E+03    0.18676E-01   -0.32088E-02 18441   0.105E+00    0.544E-01
RMM:  64    -0.126594263762E+03   -0.20864E-02   -0.55930E-03 20120   0.253E-01    0.531E-01
RMM:  65    -0.126593171106E+03    0.10927E-02   -0.53985E-04 19497   0.795E-02    0.516E-01
RMM:  66    -0.126593809502E+03   -0.63840E-03   -0.36166E-05 15822   0.378E-02    0.518E-01
RMM:  67    -0.126634604983E+03   -0.40795E-01   -0.93540E-02 18000   0.179E+00    0.100E+00
RMM:  68    -0.126652688617E+03   -0.18084E-01   -0.29569E-02 17909   0.980E-01    0.110E+00
RMM:  69    -0.126643149426E+03    0.95392E-02   -0.44926E-03 19380   0.362E-01    0.113E+00
RMM:  70    -0.126640865416E+03    0.22840E-02   -0.14911E-03 18434   0.188E-01    0.108E+00
RMM:  71    -0.126633862633E+03    0.70028E-02   -0.45637E-03 19546   0.367E-01    0.986E-01
RMM:  72    -0.126655295229E+03   -0.21433E-01   -0.14540E-02 17843   0.757E-01    0.119E+00
RMM:  73    -0.126653561456E+03    0.17338E-02   -0.20319E-03 17430   0.313E-01    0.117E+00
RMM:  74    -0.126654138721E+03   -0.57727E-03   -0.11727E-03 19954   0.162E-01    0.121E+00
RMM:  75    -0.126664935319E+03   -0.10797E-01   -0.38798E-03 18427   0.342E-01    0.132E+00
RMM:  76    -0.126665917408E+03   -0.98209E-03   -0.71080E-04 17355   0.140E-01    0.133E+00
RMM:  77    -0.126556648896E+03    0.10927E+00   -0.41252E-01 17458   0.394E+00    0.645E-01
RMM:  78    -0.126557271904E+03   -0.62301E-03   -0.73307E-02 17322   0.176E+00    0.589E-01
RMM:  79    -0.126558955888E+03   -0.16840E-02   -0.18618E-02 20613   0.389E-01    0.519E-01
RMM:  80    -0.126557094291E+03    0.18616E-02   -0.12523E-03 20270   0.122E-01    0.520E-01
RMM:  81    -0.126557274856E+03   -0.18056E-03   -0.15408E-04 17155   0.389E-02    0.517E-01
RMM:  82    -0.126556139436E+03    0.11354E-02   -0.68433E-04 18380   0.142E-01    0.499E-01
RMM:  83    -0.126550517992E+03    0.56214E-02   -0.13730E-02 19547   0.638E-01    0.513E-01
RMM:  84    -0.126547388653E+03    0.31293E-02   -0.40547E-03 18731   0.303E-01    0.542E-01
RMM:  85    -0.126545921333E+03    0.14673E-02   -0.34866E-03 19767   0.272E-01    0.544E-01
RMM:  86    -0.126545232232E+03    0.68910E-03   -0.71086E-04 18987   0.124E-01    0.562E-01
RMM:  87    -0.126537035064E+03    0.81972E-02   -0.66591E-03 18402   0.479E-01    0.523E-01
RMM:  88    -0.126532955428E+03    0.40796E-02   -0.36138E-03 18327   0.337E-01    0.519E-01
RMM:  89    -0.126523930027E+03    0.90254E-02   -0.15140E-02 18678   0.661E-01    0.486E-01
RMM:  90    -0.126522818310E+03    0.11117E-02   -0.55472E-03 18450   0.427E-01    0.539E-01
RMM:  91    -0.126537441609E+03   -0.14623E-01   -0.23076E-02 17983   0.897E-01    0.522E-01
RMM:  92    -0.126539888086E+03   -0.24465E-02   -0.48567E-03 17888   0.394E-01    0.499E-01
RMM:  93    -0.126540310740E+03   -0.42265E-03   -0.12422E-03 20005   0.113E-01    0.519E-01
RMM:  94    -0.126544500095E+03   -0.41894E-02   -0.20569E-03 18189   0.256E-01    0.514E-01
RMM:  95    -0.126541137104E+03    0.33630E-02   -0.10871E-03 18299   0.226E-01    0.547E-01
RMM:  96    -0.126540131467E+03    0.10056E-02   -0.70875E-04 17934   0.138E-01    0.549E-01
RMM:  97    -0.126601290741E+03   -0.61159E-01   -0.38040E-01 17921   0.369E+00    0.710E-01
RMM:  98    -0.126605132071E+03   -0.38413E-02   -0.50491E-02 17621   0.137E+00    0.759E-01
RMM:  99    -0.126599169169E+03    0.59629E-02   -0.90208E-03 19417   0.525E-01    0.733E-01
RMM: 100    -0.126599100478E+03    0.68691E-04   -0.10174E-03 18587   0.124E-01    0.732E-01
RMM: 101    -0.126597441991E+03    0.16585E-02   -0.36252E-04 18179   0.983E-02    0.738E-01
RMM: 102    -0.126561835191E+03    0.35607E-01   -0.19757E-01 18264   0.258E+00    0.638E-01
RMM: 103    -0.126566182329E+03   -0.43471E-02   -0.25153E-02 17830   0.873E-01    0.611E-01
RMM: 104    -0.126545081397E+03    0.21101E-01   -0.14713E-01 19285   0.196E+00    0.591E-01
RMM: 105    -0.126545169193E+03   -0.87796E-04   -0.35389E-02 18726   0.826E-01    0.605E-01
RMM: 106    -0.126550159277E+03   -0.49901E-02   -0.11119E-02 19446   0.500E-01    0.645E-01
RMM: 107    -0.126500060340E+03    0.50099E-01   -0.16509E-01 17738   0.236E+00    0.634E-01
RMM: 108    -0.126477029065E+03    0.23031E-01   -0.13494E-01 18581   0.200E+00    0.780E-01
RMM: 109    -0.126468028440E+03    0.90006E-02   -0.89400E-02 20031   0.125E+00    0.709E-01
RMM: 110    -0.126461124357E+03    0.69041E-02   -0.50425E-02 18912   0.104E+00    0.775E-01
RMM: 111    -0.126459430388E+03    0.16940E-02   -0.14733E-02 19081   0.509E-01    0.785E-01
RMM: 112    -0.126476055666E+03   -0.16625E-01   -0.60831E-02 17583   0.145E+00    0.673E-01
RMM: 113    -0.126459510116E+03    0.16546E-01   -0.72357E-02 19395   0.165E+00    0.772E-01
RMM: 114    -0.126459867416E+03   -0.35730E-03   -0.22559E-02 18603   0.666E-01    0.801E-01
RMM: 115    -0.126459872425E+03   -0.50088E-05   -0.34070E-02 19914   0.897E-01    0.653E-01
RMM: 116    -0.126459563234E+03    0.30919E-03   -0.45304E-03 19536   0.251E-01    0.646E-01
RMM: 117    -0.126462306159E+03   -0.27429E-02   -0.86972E-03 19343   0.483E-01    0.666E-01
RMM: 118    -0.126472237804E+03   -0.99316E-02   -0.39135E-02 18895   0.107E+00    0.613E-01
RMM: 119    -0.126466886784E+03    0.53510E-02   -0.57949E-03 17113   0.569E-01    0.596E-01
RMM: 120    -0.126477320976E+03   -0.10434E-01   -0.26042E-02 18763   0.892E-01    0.603E-01
RMM: 121    -0.126466718094E+03    0.10603E-01   -0.24919E-02 18560   0.105E+00    0.510E-01
RMM: 122    -0.126462183927E+03    0.45342E-02   -0.24020E-02 18488   0.797E-01    0.654E-01
RMM: 123    -0.126463760169E+03   -0.15762E-02   -0.20017E-03 18098   0.242E-01    0.634E-01
RMM: 124    -0.126463202953E+03    0.55722E-03   -0.57360E-04 19475   0.979E-02    0.635E-01
RMM: 125    -0.126463795194E+03   -0.59224E-03   -0.66629E-04 17818   0.153E-01    0.623E-01
RMM: 126    -0.126463690658E+03    0.10454E-03   -0.84026E-05 15992   0.527E-02    0.627E-01
RMM: 127    -0.126460584903E+03    0.31058E-02   -0.36414E-03 17737   0.317E-01    0.639E-01
RMM: 128    -0.126456726603E+03    0.38583E-02   -0.27130E-02 19804   0.861E-01    0.683E-01
RMM: 129    -0.126462009562E+03   -0.52830E-02   -0.10116E-02 17827   0.673E-01    0.593E-01
RMM: 130    -0.126468288470E+03   -0.62789E-02   -0.19642E-02 19730   0.729E-01    0.551E-01
RMM: 131    -0.126470063005E+03   -0.17745E-02   -0.56935E-03 19784   0.290E-01    0.559E-01
RMM: 132    -0.126468428432E+03    0.16346E-02   -0.19713E-03 18041   0.246E-01    0.588E-01
RMM: 133    -0.126464678777E+03    0.37497E-02   -0.77633E-03 19994   0.447E-01    0.632E-01
RMM: 134    -0.126465748666E+03   -0.10699E-02   -0.46272E-04 16148   0.155E-01    0.611E-01
RMM: 135    -0.126462088353E+03    0.36603E-02   -0.89361E-03 17845   0.507E-01    0.674E-01
RMM: 136    -0.126459635610E+03    0.24527E-02   -0.27493E-02 20290   0.810E-01    0.782E-01
RMM: 137    -0.126535531360E+03   -0.75896E-01   -0.26682E+00 18076   0.899E+00    0.461E-01
RMM: 138    -0.126578984734E+03   -0.43453E-01   -0.40931E-01 17874   0.346E+00    0.460E-01
RMM: 139    -0.126590757419E+03   -0.11773E-01   -0.90327E-02 20694   0.863E-01    0.530E-01
RMM: 140    -0.126571003834E+03    0.19754E-01   -0.19096E-02 17388   0.853E-01    0.490E-01
RMM: 141    -0.126572739285E+03   -0.17355E-02   -0.18452E-02 19099   0.737E-01    0.498E-01
RMM: 142    -0.126557475628E+03    0.15264E-01   -0.48931E-02 19139   0.106E+00    0.555E-01
RMM: 143    -0.126571642877E+03   -0.14167E-01   -0.62017E-02 19188   0.122E+00    0.707E-01
RMM: 144    -0.126610088536E+03   -0.38446E-01   -0.97185E-02 18592   0.175E+00    0.845E-01
RMM: 145    -0.126610624116E+03   -0.53558E-03   -0.10990E-02 18388   0.517E-01    0.860E-01
RMM: 146    -0.126591340370E+03    0.19284E-01   -0.10480E-01 17443   0.176E+00    0.700E-01
RMM: 147    -0.126572672305E+03    0.18668E-01   -0.88923E-02 19226   0.174E+00    0.516E-01
RMM: 148    -0.126556700563E+03    0.15972E-01   -0.37419E-02 18880   0.877E-01    0.485E-01
RMM: 149    -0.126546685490E+03    0.10015E-01   -0.17993E-02 18673   0.632E-01    0.466E-01
RMM: 150    -0.126497810967E+03    0.48875E-01   -0.38739E-01 18344   0.345E+00    0.490E-01
RMM: 151    -0.126473597584E+03    0.24213E-01   -0.28308E-01 18817   0.277E+00    0.567E-01
RMM: 152    -0.126469083014E+03    0.45146E-02   -0.25553E-01 19806   0.227E+00    0.636E-01
RMM: 153    -0.126469964703E+03   -0.88169E-03   -0.40930E-02 19338   0.749E-01    0.638E-01
RMM: 154    -0.126469674848E+03    0.28985E-03   -0.60325E-03 19886   0.246E-01    0.632E-01
RMM: 155    -0.126470082623E+03   -0.40777E-03   -0.53782E-04 18340   0.117E-01    0.612E-01
RMM: 156    -0.126475432754E+03   -0.53501E-02   -0.13240E-02 18629   0.621E-01    0.562E-01
RMM: 157    -0.126484380094E+03   -0.89473E-02   -0.57120E-02 19987   0.124E+00    0.524E-01
RMM: 158    -0.126486685138E+03   -0.23050E-02   -0.84258E-03 19456   0.340E-01    0.508E-01
RMM: 159    -0.126486879870E+03   -0.19473E-03   -0.12864E-03 19199   0.103E-01    0.527E-01
RMM: 160    -0.126487686349E+03   -0.80648E-03   -0.95112E-04 18785   0.149E-01    0.496E-01
RMM: 161    -0.126486535069E+03    0.11513E-02   -0.14300E-03 19569   0.212E-01    0.458E-01
RMM: 162    -0.126486517330E+03    0.17739E-04   -0.31329E-02 18454   0.980E-01    0.429E-01
RMM: 163    -0.126482841333E+03    0.36760E-02   -0.51289E-03 17663   0.440E-01    0.423E-01
RMM: 164    -0.126515642208E+03   -0.32801E-01   -0.19646E-01 17585   0.253E+00    0.292E-01
RMM: 165    -0.126524296509E+03   -0.86543E-02   -0.45712E-02 17662   0.118E+00    0.319E-01
RMM: 166    -0.126545295039E+03   -0.20999E-01   -0.84060E-02 19776   0.132E+00    0.375E-01
RMM: 167    -0.126577951217E+03   -0.32656E-01   -0.11897E-01 18698   0.198E+00    0.626E-01
RMM: 168    -0.126546269173E+03    0.31682E-01   -0.38499E-02 17056   0.138E+00    0.587E-01
RMM: 169    -0.126544041547E+03    0.22276E-02   -0.88983E-03 18766   0.496E-01    0.502E-01
RMM: 170    -0.126549053252E+03   -0.50117E-02   -0.12197E-02 18024   0.595E-01    0.456E-01
