    3    3    1    1
  0.8604740E+01  0.3002604E-09  0.3002604E-09  0.3306224E-09  0.5000000E-15
   1.0000000000000000E-004
  CAR 
 Name                                    
     12    297     18

  0.3742002E-15  0.3742002E-15  0.3742002E-15  0.2035416E-03
    1       -5.674147   1.000000
    2        4.220171   1.000000
    3        4.629612   1.000000
    4        4.629619   1.000000
    5        5.501578   1.000000
    6        9.331584   0.159124
    7        9.331590   0.014933
    8       11.556138   0.000000
    9       11.556145   0.000000
   10       14.084256   0.000000
   11       14.084265   0.000000
   12       15.024262   0.000000
   13       17.601064   0.000000
   14       17.847784   0.000000
   15       26.640229   0.000000
   16       26.640239   0.000000
   17       28.707086   0.000000
   18       31.093157   0.000000

  0.5882353E-01  0.3706497E-15  0.3742002E-15  0.1221250E-02
    1       -5.604822   1.000000
    2        4.276966   1.000000
    3        4.458437   1.000000
    4        4.660004   1.000000
    5        5.353365   1.000000
    6        9.299102   0.589033
    7        9.544186  -0.010349
    8       11.213604   0.000000
    9       11.281654   0.000000
   10       14.343378   0.000000
   11       14.535916   0.000000
   12       15.267360   0.000000
   13       17.340060   0.000000
   14       17.949007   0.000000
   15       26.773831   0.000000
   16       27.091744   0.000000
   17       28.774250   0.000000
   18       31.156843   0.000000

  0.1176471E+00  0.3767996E-15  0.3742002E-15  0.1221250E-02
    1       -5.399239   1.000000
    2        3.980405   1.000000
    3        4.438515   1.000000
    4        4.739590   1.000000
    5        4.995917   1.000000
    6        9.207487   0.995112
    7       10.076646   0.000000
    8       10.526448   0.000000
    9       10.788590   0.000000
   10       14.777766   0.000000
   11       15.564611   0.000000
   12       15.975355   0.000000
   13       16.720529   0.000000
   14       18.218876   0.000000
   15       27.163131   0.000000
   16       28.273862   0.000000
   17       28.951214   0.000000
   18       31.289707   0.000000

  0.1764706E+00  0.3607731E-15  0.3742002E-15  0.1221250E-02
    1       -5.064285   1.000000
    2        3.307830   1.000000
    3        4.569589   1.000000
    4        4.625539   1.000000
    5        4.836940   1.000000
    6        9.072621   1.000000
    7        9.896088   0.000000
    8       10.389749   0.000000
    9       10.724374   0.000000
   10       15.096218   0.000000
   11       16.055916   0.000000
   12       16.866363   0.000000
   13       17.035316   0.000000
   14       18.539192   0.000000
   15       27.776880   0.000000
   16       29.097428   0.000000
   17       29.787173   0.000000
   18       31.278665   0.000000

  0.2352941E+00  0.3655633E-15  0.3742002E-15  0.1221250E-02
    1       -4.610475   1.000000
    2        2.520844   1.000000
    3        4.161376   1.000000
    4        4.734097   1.000000
    5        4.912402   1.000000
    6        8.915992   1.000000
    7        9.568608   0.000000
    8       10.188863   0.000000
    9       11.264503   0.000000
   10       15.286036   0.000000
   11       15.641295   0.000000
   12       18.257510   0.000000
   13       18.334101   0.000000
   14       18.755237   0.000000
   15       28.563214   0.000000
   16       28.771178   0.000000
   17       30.508704   0.000000
   18       31.122867   0.000000

  0.2941176E+00  0.3668569E-15  0.3742002E-15  0.1221250E-02
    1       -4.050993   1.000000
    2        1.675141   1.000000
    3        3.813134   1.000000
    4        4.675360   1.000000
    5        4.939575   1.000000
    6        8.760002   1.000000
    7        9.680785   0.000000
    8       10.197582   0.000000
    9       11.493827   0.000000
   10       15.388968   0.000000
   11       15.698719   0.000000
   12       18.531381   0.000000
   13       19.683035   0.000000
   14       19.911287   0.000000
   15       27.891814   0.000000
   16       29.379377   0.000000
   17       29.448124   0.000000
   18       29.501790   0.000000

  0.3529412E+00  0.3820644E-15  0.3742002E-15  0.1221250E-02
    1       -3.401468   1.000000
    2        0.803772   1.000000
    3        3.543964   1.000000
    4        4.486151   1.000000
    5        4.922055   1.000000
    6        8.624725   1.000000
    7       10.184536   0.000000
    8       10.359360   0.000000
    9       11.422089   0.000000
   10       15.436009   0.000000
   11       16.185046   0.000000
   12       18.057288   0.000000
   13       20.959597   0.000000
   14       21.532591   0.000000
   15       27.020187   0.000000
   16       27.934110   0.000000
   17       28.193771   0.000000
   18       30.329796   0.000000

  0.4117647E+00  0.3552411E-15  0.3742002E-15  0.1221250E-02
    1       -2.683114   1.000000
    2       -0.065663   1.000000
    3        3.362176   1.000000
    4        4.284144   1.000000
    5        4.886084   1.000000
    6        8.525776   1.000000
    7       10.569258   0.000000
    8       10.868244   0.000000
    9       11.249950   0.000000
   10       15.440508   0.000000
   11       16.802282   0.000000
   12       17.375818   0.000000
   13       22.055240   0.000000
   14       23.064469   0.000000
   15       26.378132   0.000000
   16       26.881701   0.000000
   17       27.091536   0.000000
   18       31.085216   0.000000

  0.4705882E+00  0.3565347E-15  0.3742002E-15  0.1221250E-02
    1       -1.959928   1.000000
    2       -0.865466   1.000000
    3        3.270810   1.000000
    4        4.162160   1.000000
    5        4.859906   1.000000
    6        8.473668   1.000000
    7       10.712476   0.000000
    8       11.132015   0.000000
    9       11.400118   0.000000
   10       15.413232   0.000000
   11       16.851136   0.000000
   12       17.226558   0.000000
   13       22.742228   0.000000
   14       24.153764   0.000000
   15       26.004401   0.000000
   16       26.322320   0.000000
   17       26.444714   0.000000
   18       30.879209   0.000000

  0.5882353E-01  0.5882353E-01  0.3742002E-15  0.1221250E-02
    1       -5.467348   1.000000
    2        4.144891   1.000000
    3        4.374310   1.000000
    4        4.715783   1.000000
    5        5.104307   1.000000
    6        9.222719   0.980608
    7        9.928492   0.000000
    8       10.748414   0.000000
    9       10.885205   0.000000
   10       14.737561   0.000000
   11       15.159972   0.000000
   12       15.771957   0.000000
   13       16.902964   0.000000
   14       18.137141   0.000000
   15       27.025502   0.000000
   16       27.915143   0.000000
   17       28.897137   0.000000
   18       31.255617   0.000000

  0.1176471E+00  0.5882353E-01  0.3742002E-15  0.2442499E-02
    1       -5.196990   1.000000
    2        3.595253   1.000000
    3        4.482320   1.000000
    4        4.726690   1.000000
    5        4.846240   1.000000
    6        9.070205   1.000000
    7       10.111492   0.000000
    8       10.487692   0.000000
    9       10.554444   0.000000
   10       15.145792   0.000000
   11       16.080379   0.000000
   12       16.267724   0.000000
   13       16.785137   0.000000
   14       18.445133   0.000000
   15       27.489112   0.000000
   16       29.069450   0.000000
   17       29.312271   0.000000
   18       31.294668   0.000000

  0.1764706E+00  0.5882353E-01  0.3742002E-15  0.2442499E-02
    1       -4.802287   1.000000
    2        2.891749   1.000000
    3        4.329558   1.000000
    4        4.480394   1.000000
    5        5.064185   1.000000
    6        8.866698   1.000000
    7        9.581032  -0.005936
    8       10.291841   0.000000
    9       11.220434   0.000000
   10       15.387306   0.000000
   11       15.718868   0.000000
   12       17.222801   0.000000
   13       18.109171   0.000000
   14       18.726010   0.000000
   15       28.079754   0.000000
   16       28.990078   0.000000
   17       30.754572   0.000000
   18       31.014126   0.000000

  0.2352941E+00  0.5882353E-01  0.3742002E-15  0.2442499E-02
    1       -4.294909   1.000000
    2        2.098978   1.000000
    3        3.972637   1.000000
    4        4.350145   1.000000
    5        5.263460   1.000000
    6        8.639881   1.000000
    7        9.355593   0.060314
    8       10.340510   0.000000
    9       11.700921   0.000000
   10       15.513165   0.000000
   11       15.522488   0.000000
   12       18.371396   0.000000
   13       18.924977   0.000000
   14       19.582561   0.000000
   15       28.269221   0.000000
   16       28.518757   0.000000
   17       29.945074   0.000000
   18       30.780274   0.000000

  0.2941176E+00  0.5882353E-01  0.3742002E-15  0.2442499E-02
    1       -3.688931   1.000000
    2        1.256945   1.000000
    3        3.683754   1.000000
    4        4.137311   1.000000
    5        5.350092   1.000000
    6        8.419268   1.000000
    7        9.507947  -0.007181
    8       10.594857   0.000000
    9       11.843848   0.000000
   10       15.572838   0.000000
   11       15.819113   0.000000
   12       18.380842   0.000000
   13       19.986801   0.000000
   14       21.104988   0.000000
   15       27.337073   0.000000
   16       28.094430   0.000000
   17       28.480947   0.000000
   18       30.766002   0.000000

  0.3529412E+00  0.5882353E-01  0.3742002E-15  0.2442499E-02
    1       -3.001542   1.000000
    2        0.394008   1.000000
    3        3.474476   1.000000
    4        3.915072   1.000000
    5        5.337405   1.000000
    6        8.234225   1.000000
    7        9.930068  -0.015944
    8       10.952146   0.000000
    9       11.759202   0.000000
   10       15.602781   0.000000
   11       16.427367   0.000000
   12       17.839653   0.000000
   13       21.252291   0.000000
   14       22.566523   0.000000
   15       26.602364   0.000000
   16       27.087013   0.000000
   17       27.256036   0.000000
   18       31.314253   0.000000

  0.4117647E+00  0.5882353E-01  0.3742002E-15  0.2442499E-02
    1       -2.262144   1.000000
    2       -0.453926   1.000000
    3        3.348639   1.000000
    4        3.752968   1.000000
    5        5.295539   1.000000
    6        8.110822   1.000000
    7       10.373644   0.000000
    8       11.274199   0.000000
    9       11.641353   0.000000
   10       15.633392   0.000000
   11       17.004728   0.000000
   12       17.241190   0.000000
   13       22.271307   0.000000
   14       23.730860   0.000000
   15       26.172594   0.000000
   16       26.242459   0.000000
   17       26.450966   0.000000
   18       30.473348   0.000000

  0.4705882E+00  0.5882353E-01  0.3742002E-15  0.1221250E-02
    1       -1.704524   1.000000
    2       -1.048355   1.000000
    3        3.306700   1.000000
    4        3.694269   1.000000
    5        5.276066   1.000000
    6        8.067456   1.000000
    7       10.563839   0.000000
    8       11.409549   0.000000
    9       11.592933   0.000000
   10       15.657633   0.000000
   11       16.964134   0.000000
   12       17.243702   0.000000
   13       22.698974   0.000000
   14       24.167445   0.000000
   15       25.914729   0.000000
   16       26.095172   0.000000
   17       26.160143   0.000000
   18       29.966323   0.000000

  0.1176471E+00  0.1176471E+00  0.3742002E-15  0.1221250E-02
    1       -4.866633   1.000000
    2        3.062037   1.000000
    3        4.337230   1.000000
    4        4.398863   1.000000
    5        5.119580   1.000000
    6        8.794787   1.000000
    7        9.590248  -0.015019
    8       10.340300   0.000000
    9       11.260304   0.000000
   10       15.609271   0.000000
   11       15.745503   0.000000
   12       16.665579   0.000000
   13       18.020596   0.000000
   14       18.731948   0.000000
   15       27.864253   0.000000
   16       29.040847   0.000000
   17       30.844854   0.000000
   18       30.933152   0.000000

  0.1764706E+00  0.1176471E+00  0.3742002E-15  0.2442499E-02
    1       -4.417567   1.000000
    2        2.417360   1.000000
    3        4.042568   1.000000
    4        4.086436   1.000000
    5        5.475215   1.000000
    6        8.438511   1.000000
    7        9.130990   0.537067
    8       10.470682   0.000000
    9       12.000737   0.000000
   10       15.370777   0.000000
   11       15.860353   0.000000
   12       17.561354   0.000000
   13       18.944860   0.000000
   14       19.432978   0.000000
   15       28.019531   0.000000
   16       28.451875   0.000000
   17       30.037868   0.000000
   18       31.586445   0.000000

  0.2352941E+00  0.1176471E+00  0.3742002E-15  0.2442499E-02
    1       -3.861875   1.000000
    2        1.684878   1.000000
    3        3.686783   1.000000
    4        3.827477   1.000000
    5        5.786299   1.000000
    6        8.059029   1.000000
    7        8.934270   1.035764
    8       10.788107   0.000000
    9       12.528074   0.000000
   10       15.382136   0.000000
   11       15.951054   0.000000
   12       18.438966   0.000000
   13       19.177817   0.000000
   14       20.902196   0.000000
   15       27.497184   0.000000
   16       27.569269   0.000000
   17       28.811693   0.000000
   18       31.310116   0.000000

  0.2941176E+00  0.1176471E+00  0.3742002E-15  0.2442499E-02
    1       -3.214142   1.000000
    2        0.886501   1.000000
    3        3.355697   1.000000
    4        3.636397   1.000000
    5        5.941738   1.000000
    6        7.711707   1.000000
    7        9.112809   0.649790
    8       11.127789   0.000000
    9       12.692786   0.000000
   10       15.873752   0.000000
   11       16.001782   0.000000
   12       18.382899   0.000000
   13       20.176229   0.000000
   14       22.296031   0.000000
   15       26.621457   0.000000
   16       26.669778   0.000000
   17       27.583287   0.000000
   18       30.768297   0.000000

  0.3529412E+00  0.1176471E+00  0.3742002E-15  0.2442499E-02
    1       -2.493652   1.000000
    2        0.053321   1.000000
    3        3.109611   1.000000
    4        3.514101   1.000000
    5        5.956931   1.000000
    6        7.446804   1.000000
    7        9.584247   0.014946
    8       11.296719   0.000000
    9       12.658305   0.000000
   10       16.110249   0.000000
   11       16.560139   0.000000
   12       17.961294   0.000000
   13       21.334129   0.000000
   14       23.376223   0.000000
   15       25.642056   0.000000
   16       26.126860   0.000000
   17       26.677523   0.000000
   18       29.892846   0.000000

  0.4117647E+00  0.1176471E+00  0.3742002E-15  0.2442499E-02
    1       -1.751240   1.000000
    2       -0.749983   1.000000
    3        2.980308   1.000000
    4        3.455355   1.000000
    5        5.932773   1.000000
    6        7.303443   1.000000
    7       10.063941   0.000000
    8       11.228753   0.000000
    9       12.606681   0.000000
   10       16.280197   0.000000
   11       17.048579   0.000000
   12       17.581104   0.000000
   13       22.187234   0.000000
   14       23.791941   0.000000
   15       25.014304   0.000000
   16       25.851887   0.000000
   17       26.406802   0.000000
   18       29.122842   0.000000

  0.1764706E+00  0.1764706E+00  0.3742002E-15  0.1221250E-02
    1       -3.919571   1.000000
    2        1.893836   1.000000
    3        3.469993   1.000000
    4        3.890299   1.000000
    5        5.961911   1.000000
    6        7.903721   1.000000
    7        8.706806   1.094613
    8       10.855049   0.000000
    9       12.882520   0.000000
   10       15.137147   0.000000
   11       16.231368   0.000000
   12       18.125570   0.000000
   13       19.102890   0.000000
   14       20.816869   0.000000
   15       27.359673   0.000000
   16       27.537160   0.000000
   17       28.917401   0.000000
   18       31.214931   0.000000

  0.2352941E+00  0.1764706E+00  0.3742002E-15  0.2442499E-02
    1       -3.320350   1.000000
    2        1.290889   1.000000
    3        2.912306   1.000000
    4        3.762150   1.000000
    5        6.407634   1.000000
    6        7.363884   1.000000
    7        8.512647   1.016432
    8       11.223937   0.000000
    9       13.565262   0.000000
   10       15.249801   0.000000
   11       16.429189   0.000000
   12       18.756190   0.000000
   13       19.369569   0.000000
   14       22.115998   0.000000
   15       26.285747   0.000000
   16       26.636937   0.000000
   17       27.810696   0.000000
   18       30.492858   0.000000

  0.2941176E+00  0.1764706E+00  0.3742002E-15  0.2442499E-02
    1       -2.635057   1.000000
    2        0.580283   1.000000
    3        2.490430   1.000000
    4        3.699878   1.000000
    5        6.633462   1.000000
    6        6.900534   1.000000
    7        8.735638   1.070810
    8       11.339612   0.000000
    9       13.775530   0.000000
   10       15.883746   0.000000
   11       16.654179   0.000000
   12       18.745748   0.000000
   13       20.306218   0.000000
   14       23.083907   0.000000
   15       25.128145   0.000000
   16       25.906591   0.000000
   17       26.956455   0.000000
   18       29.510162   0.000000

  0.3529412E+00  0.1764706E+00  0.3742002E-15  0.2442499E-02
    1       -1.885969   1.000000
    2       -0.207239   1.000000
    3        2.243911   1.000000
    4        3.682872   1.000000
    5        6.584129   1.000000
    6        6.657138   1.000000
    7        9.280928   0.424165
    8       11.108185   0.000000
    9       13.768763   0.000000
   10       16.604715   0.000000
   11       16.999717   0.000000
   12       18.525997   0.000000
   13       21.309832   0.000000
   14       23.418393   0.000000
   15       24.191910   0.000000
   16       25.331684   0.000000
   17       26.699991   0.000000
   18       28.640159   0.000000

  0.4117647E+00  0.1764706E+00  0.3742002E-15  0.1221250E-02
    1       -1.245924   1.000000
    2       -0.865057   1.000000
    3        2.164071   1.000000
    4        3.682020   1.000000
    5        6.470859   1.000000
    6        6.644365   1.000000
    7        9.653260  -0.078416
    8       10.850960   0.000000
    9       13.752459   0.000000
   10       16.919366   0.000000
   11       17.217456   0.000000
   12       18.378032   0.000000
   13       21.807620   0.000000
   14       23.372323   0.000000
   15       23.814758   0.000000
   16       25.054325   0.000000
   17       26.789079   0.000000
   18       28.257146   0.000000

  0.2352941E+00  0.2352941E+00  0.3742002E-15  0.1221250E-02
    1       -2.682408   1.000000
    2        0.879166   1.000000
    3        2.159609   1.000000
    4        3.787606   1.000000
    5        6.686011   1.000000
    6        7.057131   1.000000
    7        8.241733   1.000000
    8       11.356622   0.000000
    9       14.599721   0.000000
   10       15.219606   0.000000
   11       16.934663   0.000000
   12       19.436372   0.000000
   13       19.488394   0.000000
   14       22.943227   0.000000
   15       24.935528   0.000000
   16       25.800595   0.000000
   17       27.082195   0.000000
   18       29.369879   0.000000

  0.2941176E+00  0.2352941E+00  0.3742002E-15  0.2442499E-02
    1       -1.964370   1.000000
    2        0.335990   1.000000
    3        1.610272   1.000000
    4        3.885446   1.000000
    5        6.120377   1.000000
    6        7.417144   1.000000
    7        8.438587   1.023086
    8       11.058415   0.000000
    9       14.902530   0.000000
   10       15.880487   0.000000
   11       17.568754   0.000000
   12       19.495081   0.000000
   13       20.372585   0.000000
   14       23.080647   0.000000
   15       23.715659   0.000000
   16       24.940554   0.000000
   17       26.904267   0.000000
   18       28.411814   0.000000

  0.3529412E+00  0.2352941E+00  0.3742002E-15  0.2442499E-02
    1       -1.193207   1.000000
    2       -0.382474   1.000000
    3        1.363978   1.000000
    4        3.987937   1.000000
    5        5.775058   1.000000
    6        7.423525   1.000000
    7        9.033065   0.952522
    8       10.533573   0.000000
    9       14.884471   0.000000
   10       16.558996   0.000000
   11       18.136678   0.000000
   12       19.463427   0.000000
   13       21.117748   0.000000
   14       22.918693   0.000000
   15       22.919856   0.000000
   16       24.121157   0.000000
   17       27.078043   0.000000
   18       27.883108   0.000000

  0.2941176E+00  0.2941176E+00  0.3742002E-15  0.1221250E-02
    1       -1.223343   1.000000
    2        0.083938   1.000000
    3        0.837918   1.000000
    4        4.179121   1.000000
    5        5.450426   1.000000
    6        8.231315   1.000000
    7        8.258620   1.000000
    8       10.430457   0.000000
    9       15.719904   0.000000
   10       16.018112   0.000000
   11       18.617008   0.000000
   12       20.287591   0.000000
   13       20.507637   0.000000
   14       22.544803   0.000000
   15       22.581769   0.000000
   16       23.747073   0.000000
   17       27.190339   0.000000
   18       27.775738   0.000000

  0.3529412E+00  0.2941176E+00  0.3742002E-15  0.1221250E-02
    1       -0.492028   1.000000
    2       -0.439264   1.000000
    3        0.533636   1.000000
    4        4.413111   1.000000
    5        5.088082   1.000000
    6        8.186712   1.000000
    7        8.761344   1.000000
    8        9.952392   0.000000
    9       15.792383   0.000000
   10       16.358494   0.000000
   11       19.249062   0.000000
   12       20.205057   0.000000
   13       21.019067   0.000000
   14       22.108094   0.000000
   15       22.506903   0.000000
   16       22.759310   0.000000
   17       27.341721   0.000000
   18       27.581665   0.000000

  0.3742002E-15  0.3742002E-15  0.5882353E-01  0.4070832E-03
    1       -5.625875   1.000000
    2        3.971759   1.000000
    3        4.668428   1.000000
    4        4.668435   1.000000
    5        5.707887   1.000000
    6        9.191946   0.983373
    7        9.191952   0.519065
    8       11.451985   0.000000
    9       11.451992   0.000000
   10       14.305191   0.000000
   11       14.305200   0.000000
   12       15.005347   0.000000
   13       17.615821   0.000000
   14       17.997508   0.000000
   15       26.790707   0.000000
   16       26.790717   0.000000
   17       28.346695   0.000000
   18       31.140387   0.000000

  0.5882353E-01  0.3706497E-15  0.5882353E-01  0.2442499E-02
    1       -5.557149   1.000000
    2        4.015623   1.000000
    3        4.492234   1.000000
    4        4.695757   1.000000
    5        5.568595   1.000000
    6        9.144006   1.033416
    7        9.385914   0.092300
    8       11.189852   0.000000
    9       11.256753   0.000000
   10       14.497565   0.000000
   11       14.695619   0.000000
   12       15.242026   0.000000
   13       17.383817   0.000000
   14       18.100297   0.000000
   15       26.918054   0.000000
   16       27.216053   0.000000
   17       28.425770   0.000000
   18       31.209662   0.000000

  0.1176471E+00  0.3767996E-15  0.5882353E-01  0.2442499E-02
    1       -5.353404   1.000000
    2        4.006889   1.000000
    3        4.115474   1.000000
    4        4.765093   1.000000
    5        5.265366   1.000000
    6        9.020976   1.006536
    7        9.757862  -0.022490
    8       10.750000   0.000000
    9       10.885792   0.000000
   10       14.822925   0.000000
   11       15.642722   0.000000
   12       15.882318   0.000000
   13       16.886180   0.000000
   14       18.372317   0.000000
   15       27.285353   0.000000
   16       28.326026   0.000000
   17       28.645648   0.000000
   18       31.345961   0.000000

  0.1764706E+00  0.3607731E-15  0.5882353E-01  0.2442499E-02
    1       -5.021582   1.000000
    2        3.313697   1.000000
    3        4.160419   1.000000
    4        4.842286   1.000000
    5        4.992824   1.000000
    6        8.879774   1.000000
    7        9.678783  -0.002927
    8       10.566290   0.000000
    9       10.901066   0.000000
   10       15.027132   0.000000
   11       16.081915   0.000000
   12       16.890130   0.000000
   13       17.160996   0.000000
   14       18.694835   0.000000
   15       27.842673   0.000000
   16       28.896429   0.000000
   17       29.694690   0.000000
   18       31.179035   0.000000

  0.2352941E+00  0.3655633E-15  0.5882353E-01  0.2442499E-02
    1       -4.572228   1.000000
    2        2.508333   1.000000
    3        4.027573   1.000000
    4        4.847230   1.000000
    5        4.886595   1.000000
    6        8.779899   1.000000
    7        9.469259  -0.001411
    8       10.372576   0.000000
    9       11.341798   0.000000
   10       15.124034   0.000000
   11       15.807703   0.000000
   12       18.314271   0.000000
   13       18.323196   0.000000
   14       18.915518   0.000000
   15       28.454555   0.000000
   16       28.682587   0.000000
   17       30.039943   0.000000
   18       31.232897   0.000000

  0.2941176E+00  0.3668569E-15  0.5882353E-01  0.2442499E-02
    1       -4.018359   1.000000
    2        1.650398   1.000000
    3        3.796738   1.000000
    4        4.702784   1.000000
    5        4.876751   1.000000
    6        8.733419   1.000000
    7        9.597166  -0.001228
    8       10.329632   0.000000
    9       11.543610   0.000000
   10       15.378738   0.000000
   11       15.697511   0.000000
   12       18.708633   0.000000
   13       19.731767   0.000000
   14       19.878478   0.000000
   15       27.671180   0.000000
   16       28.522137   0.000000
   17       29.344770   0.000000
   18       30.426187   0.000000

  0.3529412E+00  0.3820644E-15  0.5882353E-01  0.2442499E-02
    1       -3.374976   1.000000
    2        0.773050   1.000000
    3        3.584026   1.000000
    4        4.492305   1.000000
    5        4.825383   1.000000
    6        8.707631   1.000000
    7       10.041116   0.000000
    8       10.428778   0.000000
    9       11.517017   0.000000
   10       15.576515   0.000000
   11       15.957654   0.000000
   12       18.311870   0.000000
   13       20.983714   0.000000
   14       21.486768   0.000000
   15       26.654041   0.000000
   16       27.552943   0.000000
   17       28.325831   0.000000
   18       30.780874   0.000000

  0.4117647E+00  0.3552411E-15  0.5882353E-01  0.2442499E-02
    1       -2.661023   1.000000
    2       -0.098919   1.000000
    3        3.432648   1.000000
    4        4.287488   1.000000
    5        4.765445   1.000000
    6        8.681925   1.000000
    7       10.500766   0.000000
    8       10.597140   0.000000
    9       11.571627   0.000000
   10       15.440574   0.000000
   11       16.533346   0.000000
   12       17.790368   0.000000
   13       22.027688   0.000000
   14       23.014349   0.000000
   15       25.998729   0.000000
   16       26.608831   0.000000
   17       27.320771   0.000000
   18       31.008439   0.000000

  0.4705882E+00  0.3565347E-15  0.5882353E-01  0.2442499E-02
    1       -1.927652   1.000000
    2       -0.911933   1.000000
    3        3.355348   1.000000
    4        4.165813   1.000000
    5        4.727217   1.000000
    6        8.663656   1.000000
    7       10.654230   0.000000
    8       10.722172   0.000000
    9       11.851201   0.000000
   10       15.256290   0.000000
   11       16.800716   0.000000
   12       17.548889   0.000000
   13       22.612521   0.000000
   14       24.108863   0.000000
   15       25.884361   0.000000
   16       26.080066   0.000000
   17       26.518620   0.000000
   18       30.365776   0.000000

  0.5882353E-01  0.5882353E-01  0.5882353E-01  0.2442499E-02
    1       -5.420892   1.000000
    2        4.087983   1.000000
    3        4.176199   1.000000
    4        4.716320   1.000000
    5        5.366323   1.000000
    6        9.024598   1.019428
    7        9.717849  -0.038270
    8       10.815929   0.000000
    9       10.996810   0.000000
   10       14.826339   0.000000
   11       15.240553   0.000000
   12       15.704057   0.000000
   13       17.034723   0.000000
   14       18.284864   0.000000
   15       27.154022   0.000000
   16       27.993392   0.000000
   17       28.575665   0.000000
   18       31.318076   0.000000

  0.1176471E+00  0.5882353E-01  0.5882353E-01  0.4884999E-02
    1       -5.153028   1.000000
    2        3.616095   1.000000
    3        4.162493   1.000000
    4        4.658787   1.000000
    5        5.202684   1.000000
    6        8.804749   1.000000
    7        9.977663   0.000000
    8       10.443393   0.000000
    9       10.889530   0.000000
   10       15.155832   0.000000
   11       16.004685   0.000000
   12       16.204378   0.000000
   13       17.068868   0.000000
   14       18.580656   0.000000
   15       27.571100   0.000000
   16       28.819968   0.000000
   17       29.298147   0.000000
   18       31.339921   0.000000

  0.1764706E+00  0.5882353E-01  0.5882353E-01  0.4884999E-02
    1       -4.762147   1.000000
    2        2.894440   1.000000
    3        4.101347   1.000000
    4        4.509148   1.000000
    5        5.231921   1.000000
    6        8.570846   1.000000
    7        9.712388  -0.006917
    8       10.345642   0.000000
    9       11.305676   0.000000
   10       15.241749   0.000000
   11       15.850827   0.000000
   12       17.244090   0.000000
   13       18.208097   0.000000
   14       18.850713   0.000000
   15       28.013190   0.000000
   16       28.911116   0.000000
   17       30.485464   0.000000
   18       30.949065   0.000000

  0.2352941E+00  0.5882353E-01  0.5882353E-01  0.4884999E-02
    1       -4.259884   1.000000
    2        2.084584   1.000000
    3        3.895426   1.000000
    4        4.342805   1.000000
    5        5.309462   1.000000
    6        8.419107   1.000000