   49   49    1    1
  0.2411350E+02  0.8645320E-09  0.6085000E-09  0.2593596E-08  0.5000000E-15
   1.0000000000000000E-004
  CAR 
 Name                                    
    189    149    120

  0.3742002E-15  0.3742002E-15  0.3742002E-15  0.3367003E-02
    1      -14.022316   1.000000
    2      -12.640810   1.000000
    3      -12.531292   1.000000
    4      -12.021557   1.000000
    5      -11.588883   1.000000
    6      -11.258954   1.000000
    7      -11.211784   1.000000
    8      -11.184649   1.000000
    9      -11.046398   1.000000
   10      -10.740427   1.000000
   11      -10.729124   1.000000
   12      -10.343183   1.000000
   13      -10.204551   1.000000
   14      -10.163995   1.000000
   15       -9.860598   1.000000
   16       -9.778034   1.000000
   17       -8.990999   1.000000
   18       -8.893917   1.000000
   19       -8.878963   1.000000
   20       -8.683386   1.000000
   21       -8.620635   1.000000
   22       -8.568270   1.000000
   23       -8.216274   1.000000
   24       -8.127478   1.000000
   25       -8.037377   1.000000
   26       -8.027415   1.000000
   27       -7.357387   1.000000
   28       -7.139607   1.000000
   29       -6.921912   1.000000
   30       -6.570667   1.000000
   31       -6.540994   1.000000
   32       -6.211924   1.000000
   33       -6.066677   1.000000
   34       -5.956004   1.000000
   35       -5.668852   1.000000
   36       -5.615057   1.000000
   37       -5.538131   1.000000
   38       -5.469925   1.000000
   39       -5.353789   1.000000
   40       -5.273729   1.000000
   41       -5.174523   1.000000
   42       -5.151151   1.000000
   43       -5.089207   1.000000
   44       -4.937867   1.000000
   45       -4.865218   1.000000
   46       -4.823160   1.000000
   47       -4.760323   1.000000
   48       -4.648738   1.000000
   49       -4.602805   1.000000
   50       -4.591676   1.000000
   51       -4.485285   1.000000
   52       -4.458784   1.000000
   53       -4.412133   1.000000
   54       -4.259727   1.000000
   55       -4.208289   1.000000
   56       -4.112863   1.000000
   57       -4.084142   1.000000
   58       -4.049910   1.000000
   59       -3.982954   1.000000
   60       -3.884784   1.000000
   61       -3.579561   1.000000
   62       -3.486619   1.000000
   63       -3.460842   1.000000
   64       -3.442011   1.000000
   65       -3.395107   1.000000
   66       -3.360286   1.000000
   67       -3.327363   1.000000
   68       -3.287995   1.000000
   69       -3.218154   1.000000
   70       -3.094924   1.000000
   71       -2.907225   1.000000
   72       -2.748809   1.000000
   73       -2.693267   1.000000
   74       -2.526008   1.000000
   75       -2.486202   1.000000
   76       -2.321243   1.000000
   77       -2.291165   1.000000
   78       -2.259406   1.000000
   79       -2.215136   1.000000
   80       -2.089620   1.000000
   81       -1.786733   1.000000
   82       -1.599414   1.000000
   83       -1.254733   1.000000
   84       -1.240890   1.000000
   85       -1.161169   1.000000
   86       -1.075884   1.000000
   87       -0.976921   1.000000
   88       -0.908803   1.000000
   89       -0.546610   1.000000
   90       -0.379384   1.000000
   91       -0.348450   1.000000
   92       -0.059230   1.027388
   93        0.006936   0.785056
   94        0.042919   0.501611
   95        0.163172  -0.035365
   96        0.211736  -0.019150
   97        0.248135  -0.006774
   98        0.565307  -0.000000
   99        0.579775  -0.000000
  100        0.595975  -0.000000
  101        0.679768  -0.000000
  102        0.781659  -0.000000
  103        0.789731  -0.000000
  104        0.833642  -0.000000
  105        0.888298  -0.000000
  106        1.226952  -0.000000
  107        1.241062  -0.000000
  108        1.282353  -0.000000
  109        1.316868  -0.000000
  110        1.429330  -0.000000
  111        1.439989  -0.000000
  112        1.482015  -0.000000
  113        1.519912  -0.000000
  114        1.637686  -0.000000
  115        1.664610  -0.000000
  116        1.745710  -0.000000
  117        1.941022  -0.000000
  118        2.007207  -0.000000
  119        3.150906   0.000000
  120        3.779377   0.000000

  0.1111111E+00  0.3729374E-15  0.3860503E-15  0.6734007E-02
    1      -13.995361   1.000000
    2      -12.657017   1.000000
    3      -12.606654   1.000000
    4      -11.964869   1.000000
    5      -11.574095   1.000000
    6      -11.247077   1.000000
    7      -11.207479   1.000000
    8      -11.179321   1.000000
    9      -11.077021   1.000000
   10      -10.738212   1.000000
   11      -10.724801   1.000000
   12      -10.365341   1.000000
   13      -10.206426   1.000000
   14      -10.161470   1.000000
   15       -9.840225   1.000000
   16       -9.764094   1.000000
   17       -8.966133   1.000000
   18       -8.887144   1.000000
   19       -8.882897   1.000000
   20       -8.721177   1.000000
   21       -8.630423   1.000000
   22       -8.550822   1.000000
   23       -8.278081   1.000000
   24       -8.141960   1.000000
   25       -8.067263   1.000000
   26       -8.016676   1.000000
   27       -7.448079   1.000000
   28       -7.165613   1.000000
   29       -6.832853   1.000000
   30       -6.541079   1.000000
   31       -6.514883   1.000000
   32       -6.183309   1.000000
   33       -6.038415   1.000000
   34       -5.946967   1.000000
   35       -5.664791   1.000000
   36       -5.620451   1.000000
   37       -5.536962   1.000000
   38       -5.445150   1.000000
   39       -5.404938   1.000000
   40       -5.294768   1.000000
   41       -5.176928   1.000000
   42       -5.122906   1.000000
   43       -5.061874   1.000000
   44       -4.899537   1.000000
   45       -4.843581   1.000000
   46       -4.782288   1.000000
   47       -4.742974   1.000000
   48       -4.686353   1.000000
   49       -4.585474   1.000000
   50       -4.567352   1.000000
   51       -4.478976   1.000000
   52       -4.454835   1.000000
   53       -4.383942   1.000000
   54       -4.256590   1.000000
   55       -4.199454   1.000000
   56       -4.121428   1.000000
   57       -4.098601   1.000000
   58       -4.041907   1.000000
   59       -3.988516   1.000000
   60       -3.868690   1.000000
   61       -3.610617   1.000000
   62       -3.502021   1.000000
   63       -3.438787   1.000000
   64       -3.427969   1.000000
   65       -3.405406   1.000000
   66       -3.362342   1.000000
   67       -3.327916   1.000000
   68       -3.284937   1.000000
   69       -3.176635   1.000000
   70       -3.145799   1.000000
   71       -2.927353   1.000000
   72       -2.821995   1.000000
   73       -2.669947   1.000000
   74       -2.522799   1.000000
   75       -2.467686   1.000000
   76       -2.370201   1.000000
   77       -2.349643   1.000000
   78       -2.289306   1.000000
   79       -2.226666   1.000000
   80       -2.103204   1.000000
   81       -1.688819   1.000000
   82       -1.639286   1.000000
   83       -1.292749   1.000000
   84       -1.271269   1.000000
   85       -1.135972   1.000000
   86       -1.029719   1.000000
   87       -0.961182   1.000000
   88       -0.806691   1.000000
   89       -0.602214   1.000000
   90       -0.448988   1.000000
   91       -0.398190   1.000000
   92       -0.047607   1.012619
   93        0.054572   0.403700
   94        0.082052   0.196516
   95        0.153903  -0.033007
   96        0.207537  -0.021033
   97        0.217155  -0.016821
   98        0.538872  -0.000000
   99        0.590399  -0.000000
  100        0.600226  -0.000000
  101        0.707678  -0.000000
  102        0.794520  -0.000000
  103        0.816305  -0.000000
  104        0.855371  -0.000000
  105        0.920596  -0.000000
  106        1.222222  -0.000000
  107        1.237977  -0.000000
  108        1.263074  -0.000000
  109        1.348215  -0.000000
  110        1.407449  -0.000000
  111        1.454500  -0.000000
  112        1.494182  -0.000000
  113        1.527993  -0.000000
  114        1.627032  -0.000000
  115        1.678230  -0.000000
  116        1.720201  -0.000000
  117        1.834156  -0.000000
  118        1.903540  -0.000000
  119        2.050618  -0.000000
  120        3.228335   0.000000

  0.2222222E+00  0.3922785E-15  0.3630220E-15  0.6734007E-02
    1      -13.915280   1.000000
    2      -12.885792   1.000000
    3      -12.542918   1.000000
    4      -11.916993   1.000000
    5      -11.534995   1.000000
    6      -11.245406   1.000000
    7      -11.186207   1.000000
    8      -11.166316   1.000000
    9      -11.101072   1.000000
   10      -10.731126   1.000000
   11      -10.712059   1.000000
   12      -10.444892   1.000000
   13      -10.214436   1.000000
   14      -10.159879   1.000000
   15       -9.778554   1.000000
   16       -9.720217   1.000000
   17       -8.915216   1.000000
   18       -8.881788   1.000000
   19       -8.849568   1.000000
   20       -8.812780   1.000000
   21       -8.652680   1.000000
   22       -8.537384   1.000000
   23       -8.415401   1.000000
   24       -8.232420   1.000000
   25       -8.151777   1.000000
   26       -7.903276   1.000000
   27       -7.662358   1.000000
   28       -7.146415   1.000000
   29       -6.693415   1.000000
   30       -6.487477   1.000000
   31       -6.462476   1.000000
   32       -6.229506   1.000000
   33       -5.959687   1.000000
   34       -5.907519   1.000000
   35       -5.749461   1.000000
   36       -5.594173   1.000000
   37       -5.563178   1.000000
   38       -5.381143   1.000000
   39       -5.302402   1.000000
   40       -5.248815   1.000000
   41       -5.140369   1.000000
   42       -5.097099   1.000000
   43       -4.984519   1.000000
   44       -4.965816   1.000000
   45       -4.871352   1.000000
   46       -4.776940   1.000000
   47       -4.666445   1.000000
   48       -4.638406   1.000000
   49       -4.553421   1.000000
   50       -4.517191   1.000000
   51       -4.458346   1.000000
   52       -4.415265   1.000000
   53       -4.325654   1.000000
   54       -4.240090   1.000000
   55       -4.192914   1.000000
   56       -4.144027   1.000000
   57       -4.113191   1.000000
   58       -4.015568   1.000000
   59       -3.977410   1.000000
   60       -3.834583   1.000000
   61       -3.690965   1.000000
   62       -3.551064   1.000000
   63       -3.461169   1.000000
   64       -3.423883   1.000000
   65       -3.385216   1.000000
   66       -3.355798   1.000000
   67       -3.311902   1.000000
   68       -3.260754   1.000000
   69       -3.239214   1.000000
   70       -3.080551   1.000000
   71       -3.015998   1.000000
   72       -2.912517   1.000000
   73       -2.615068   1.000000
   74       -2.555708   1.000000
   75       -2.519317   1.000000
   76       -2.487583   1.000000
   77       -2.443427   1.000000
   78       -2.368116   1.000000
   79       -2.268440   1.000000
   80       -2.036348   1.000000
   81       -1.792103   1.000000
   82       -1.466799   1.000000
   83       -1.371990   1.000000
   84       -1.334361   1.000000
   85       -1.060026   1.000000
   86       -0.939333   1.000000
   87       -0.894336   1.000000
   88       -0.748825   1.000000
   89       -0.589358   1.000000
   90       -0.567739   1.000000
   91       -0.502687   1.000000
   92       -0.112809   1.024955
   93        0.066336   0.309202
   94        0.125415   0.004287
   95        0.147879  -0.029395
   96        0.220003  -0.015654
   97        0.388884  -0.000006
   98        0.506471  -0.000000
   99        0.529601  -0.000000
  100        0.547863  -0.000000
  101        0.758657  -0.000000
  102        0.864579  -0.000000
  103        0.881359  -0.000000
  104        0.902721  -0.000000
  105        0.986254  -0.000000
  106        1.178834  -0.000000
  107        1.269535  -0.000000
  108        1.288070  -0.000000
  109        1.388178  -0.000000
  110        1.446676  -0.000000
  111        1.459696  -0.000000
  112        1.555434  -0.000000
  113        1.578167  -0.000000
  114        1.637007  -0.000000
  115        1.701872  -0.000000
  116        1.779070  -0.000000
  117        1.833504  -0.000000
  118        1.929672  -0.000000
  119        1.995941  -0.000000
  120        2.274079  -0.000000

  0.3333333E+00  0.3713828E-15  0.3468587E-15  0.6734007E-02
    1      -13.784518   1.000000
    2      -13.143593   1.000000
    3      -12.432317   1.000000
    4      -11.974392   1.000000
    5      -11.484941   1.000000
    6      -11.266873   1.000000
    7      -11.162576   1.000000
    8      -11.154363   1.000000
    9      -11.035396   1.000000
   10      -10.720861   1.000000
   11      -10.694167   1.000000
   12      -10.577600   1.000000
   13      -10.228216   1.000000
   14      -10.167442   1.000000
   15       -9.681370   1.000000
   16       -9.650366   1.000000
   17       -8.997595   1.000000
   18       -8.898125   1.000000
   19       -8.831866   1.000000
   20       -8.711241   1.000000
   21       -8.681987   1.000000
   22       -8.567143   1.000000
   23       -8.526011   1.000000
   24       -8.333690   1.000000
   25       -8.254131   1.000000
   26       -7.931682   1.000000
   27       -7.691049   1.000000
   28       -7.051778   1.000000
   29       -6.670648   1.000000
   30       -6.482598   1.000000
   31       -6.419398   1.000000
   32       -6.340206   1.000000
   33       -6.040291   1.000000
   34       -5.818360   1.000000
   35       -5.711918   1.000000
   36       -5.486546   1.000000
   37       -5.457747   1.000000
   38       -5.279302   1.000000
   39       -5.253770   1.000000
   40       -5.197526   1.000000
   41       -5.160262   1.000000
   42       -5.067980   1.000000
   43       -5.022613   1.000000
   44       -4.928644   1.000000
   45       -4.833470   1.000000
   46       -4.768265   1.000000
   47       -4.652628   1.000000
   48       -4.612843   1.000000
   49       -4.506898   1.000000
   50       -4.489234   1.000000
   51       -4.419235   1.000000
   52       -4.353190   1.000000
   53       -4.262673   1.000000
   54       -4.227756   1.000000
   55       -4.188915   1.000000
   56       -4.144669   1.000000
   57       -4.066855   1.000000
   58       -3.979870   1.000000
   59       -3.930980   1.000000
   60       -3.854589   1.000000
   61       -3.730553   1.000000
   62       -3.645910   1.000000
   63       -3.487263   1.000000
   64       -3.454993   1.000000
   65       -3.430301   1.000000
   66       -3.367688   1.000000
   67       -3.321868   1.000000
   68       -3.261628   1.000000
   69       -3.198634   1.000000
   70       -3.057732   1.000000
   71       -2.972947   1.000000
   72       -2.927518   1.000000
   73       -2.748731   1.000000
   74       -2.716190   1.000000
   75       -2.607159   1.000000
   76       -2.535367   1.000000
   77       -2.460815   1.000000
   78       -2.383596   1.000000
   79       -2.329209   1.000000
   80       -1.974345   1.000000
   81       -1.863195   1.000000
   82       -1.536475   1.000000
   83       -1.451511   1.000000
   84       -1.164910   1.000000
   85       -0.997787   1.000000
   86       -0.892364   1.000000
   87       -0.836490   1.000000
   88       -0.790077   1.000000
   89       -0.729132   1.000000
   90       -0.590795   1.000000
   91       -0.310349   1.000003
   92       -0.259016   1.000083
   93        0.079449   0.213829
   94        0.117003   0.027266
   95        0.161553  -0.035193
   96        0.310774  -0.000507
   97        0.377365  -0.000012
   98        0.431537  -0.000000
   99        0.467446  -0.000000
  100        0.760870  -0.000000
  101        0.861276  -0.000000
  102        0.900484  -0.000000
  103        0.913377  -0.000000
  104        0.954396  -0.000000
  105        1.015281  -0.000000
  106        1.077269  -0.000000
  107        1.359989  -0.000000
  108        1.386952  -0.000000
  109        1.431095  -0.000000
  110        1.439919  -0.000000
  111        1.517733  -0.000000
  112        1.549367  -0.000000
  113        1.574698  -0.000000
  114        1.620458  -0.000000
  115        1.695672  -0.000000
  116        1.741138  -0.000000
  117        1.809353  -0.000000
  118        1.943134  -0.000000
  119        2.000376  -0.000000
  120        2.294352  -0.000000

  0.4444444E+00  0.3870091E-15  0.3932070E-15  0.6734007E-02
    1      -13.607705   1.000000
    2      -13.389278   1.000000
    3      -12.295774   1.000000
    4      -12.104897   1.000000
    5      -11.444433   1.000000
    6      -11.279626   1.000000
    7      -11.150496   1.000000
    8      -11.147231   1.000000
    9      -10.922249   1.000000
   10      -10.740800   1.000000
   11      -10.698218   1.000000
   12      -10.678024   1.000000
   13      -10.240343   1.000000
   14      -10.178127   1.000000
   15       -9.588635   1.000000
   16       -9.582472   1.000000
   17       -9.126582   1.000000
   18       -8.920598   1.000000
   19       -8.765174   1.000000
   20       -8.738913   1.000000
   21       -8.654312   1.000000
   22       -8.609121   1.000000
   23       -8.452975   1.000000
   24       -8.377432   1.000000
   25       -8.322774   1.000000
   26       -8.194940   1.000000
   27       -7.445661   1.000000
   28       -7.057428   1.000000
   29       -6.746138   1.000000
   30       -6.479496   1.000000
   31       -6.409024   1.000000
   32       -6.365705   1.000000
   33       -6.191860   1.000000
   34       -5.648908   1.000000
   35       -5.548654   1.000000
   36       -5.465229   1.000000
   37       -5.375517   1.000000
   38       -5.340096   1.000000
   39       -5.270944   1.000000
   40       -5.202776   1.000000
   41       -5.191393   1.000000
   42       -5.011664   1.000000
   43       -4.950796   1.000000
   44       -4.869074   1.000000
   45       -4.787212   1.000000
   46       -4.728088   1.000000
   47       -4.690043   1.000000
   48       -4.641212   1.000000
   49       -4.545206   1.000000
   50       -4.416460   1.000000
   51       -4.369423   1.000000
   52       -4.334755   1.000000
   53       -4.299370   1.000000
   54       -4.206258   1.000000
   55       -4.123456   1.000000
   56       -4.095727   1.000000
   57       -4.039164   1.000000
   58       -3.952945   1.000000
   59       -3.887687   1.000000
   60       -3.857091   1.000000
   61       -3.777341   1.000000
   62       -3.702069   1.000000
   63       -3.600491   1.000000
   64       -3.483250   1.000000
   65       -3.424305   1.000000
   66       -3.351888   1.000000
   67       -3.308315   1.000000
   68       -3.249360   1.000000
   69       -3.163681   1.000000
   70       -3.030337   1.000000
   71       -3.000067   1.000000
   72       -2.915581   1.000000
   73       -2.848413   1.000000
   74       -2.793637   1.000000
   75       -2.693106   1.000000
   76       -2.646619   1.000000
   77       -2.396818   1.000000
   78       -2.360339   1.000000
   79       -2.317173   1.000000
   80       -2.153056   1.000000
   81       -1.718555   1.000000
   82       -1.638948   1.000000
   83       -1.427397   1.000000
   84       -1.219211   1.000000
   85       -1.015357   1.000000
   86       -0.887774   1.000000
   87       -0.817401   1.000000
   88       -0.785857   1.000000
   89       -0.617160   1.000000
   90       -0.508972   1.000000
   91       -0.443894   1.000000
   92       -0.176518   1.004032
   93        0.035589   0.563444
   94        0.124531   0.006406
   95        0.152771  -0.032466
   96        0.290274  -0.001313
   97        0.363894  -0.000028
   98        0.396019  -0.000004
   99        0.627019  -0.000000
  100        0.745373  -0.000000
  101        0.809421  -0.000000
  102        0.903072  -0.000000
  103        0.915836  -0.000000
  104        0.980858  -0.000000
  105        1.203830  -0.000000
  106        1.232781  -0.000000
  107        1.327035  -0.000000
  108        1.432578  -0.000000
  109        1.460170  -0.000000
  110        1.518826  -0.000000
  111        1.539554  -0.000000
  112        1.565587  -0.000000
  113        1.582766  -0.000000
  114        1.609101  -0.000000
  115        1.701169  -0.000000
  116        1.727189  -0.000000
  117        1.802115  -0.000000
  118        1.910604  -0.000000
  119        2.125572  -0.000000
  120        2.319577  -0.000000

  0.3742002E-15  0.9090909E-01  0.3596334E-15  0.6734007E-02
    1      -13.989163   1.000000
    2      -12.612945   1.000000
    3      -12.535374   1.000000
    4      -11.989455   1.000000
    5      -11.571373   1.000000
    6      -11.393197   1.000000
    7      -11.345170   1.000000
    8      -11.215125   1.000000
    9      -11.046458   1.000000
   10      -10.751075   1.000000
   11      -10.702406   1.000000
   12      -10.317582   1.000000
   13      -10.169345   1.000000
   14      -10.114554   1.000000
   15       -9.841770   1.000000
   16       -9.765127   1.000000
   17       -9.074975   1.000000
   18       -8.982247   1.000000
   19       -8.935712   1.000000
   20       -8.689746   1.000000
   21       -8.610133   1.000000
   22       -8.447104   1.000000
   23       -8.039504   1.000000
   24       -8.001648   1.000000
   25       -7.929359   1.000000
   26       -7.910101   1.000000
   27       -7.409269   1.000000
   28       -7.117073   1.000000
   29       -6.872863   1.000000
   30       -6.608049   1.000000
   31       -6.532261   1.000000
   32       -6.209023   1.000000
   33       -6.076846   1.000000
   34       -5.954895   1.000000
   35       -5.705665   1.000000
   36       -5.630740   1.000000
   37       -5.477842   1.000000
   38       -5.433763   1.000000
   39       -5.374559   1.000000
   40       -5.303330   1.000000
   41       -5.211150   1.000000
   42       -5.187071   1.000000
   43       -5.090823   1.000000
   44       -5.053267   1.000000
   45       -4.930014   1.000000
   46       -4.829739   1.000000
   47       -4.790757   1.000000
   48       -4.697913   1.000000
   49       -4.629039   1.000000
   50       -4.585510   1.000000
   51       -4.495502   1.000000
   52       -4.454491   1.000000
   53       -4.423268   1.000000
   54       -4.371366   1.000000
   55       -4.219066   1.000000
   56       -4.120825   1.000000
   57       -4.044356   1.000000
   58       -4.010834   1.000000
   59       -3.943034   1.000000
   60       -3.892513   1.000000
   61       -3.593179   1.000000
   62       -3.521658   1.000000
   63       -3.481767   1.000000
   64       -3.457415   1.000000
   65       -3.400692   1.000000
   66       -3.376462   1.000000
   67       -3.307272   1.000000
   68       -3.234909   1.000000
   69       -3.200187   1.000000
   70       -3.117051   1.000000
   71       -2.903465   1.000000
   72       -2.866525   1.000000
   73       -2.690600   1.000000
   74       -2.487726   1.000000
   75       -2.403204   1.000000
   76       -2.345904   1.000000
   77       -2.320296   1.000000
   78       -2.266331   1.000000
   79       -2.151442   1.000000
   80       -2.088139   1.000000
   81       -1.818146   1.000000
   82       -1.537675   1.000000
   83       -1.303559   1.000000
   84       -1.288218   1.000000
   85       -1.191090   1.000000
   86       -1.053581   1.000000
   87       -1.041422   1.000000
   88       -0.969405   1.000000
   89       -0.545822   1.000000
   90       -0.467780   1.000000
   91       -0.307493   1.000004
   92       -0.169385   1.005230
   93       -0.089354   1.034120
   94       -0.038486   0.994018
   95        0.148009  -0.029493
   96        0.194769  -0.026906
   97        0.257795  -0.004835
   98        0.425563  -0.000000
   99        0.442670  -0.000000
  100        0.589740  -0.000000
  101        0.805438  -0.000000
  102        0.850588  -0.000000
  103        0.876279  -0.000000
  104        0.932015  -0.000000
  105        1.045934  -0.000000
  106        1.145167  -0.000000
  107        1.178219  -0.000000
  108        1.303070  -0.000000
  109        1.320236  -0.000000
  110        1.417093  -0.000000
  111        1.426065  -0.000000
  112        1.496165  -0.000000
  113        1.537914  -0.000000
  114        1.641282  -0.000000
  115        1.669456  -0.000000
  116        1.758641  -0.000000
  117        1.795302  -0.000000
  118        1.891757  -0.000000
  119        1.982366  -0.000000
  120        2.459960  -0.000000

  0.1111111E+00  0.9090909E-01  0.4822234E-15  0.6734007E-02
    1      -13.940421   1.000000
    2      -12.721614   1.000000
    3      -12.563620   1.000000
    4      -11.918012   1.000000
    5      -11.545001   1.000000
    6      -11.437319   1.000000
    7      -11.292409   1.000000
    8      -11.194547   1.000000
    9      -11.092189   1.000000
   10      -10.751912   1.000000
   11      -10.642844   1.000000
   12      -10.370486   1.000000
   13      -10.211571   1.000000
   14      -10.140178   1.000000
   15       -9.787092   1.000000
   16       -9.711732   1.000000
   17       -9.112392   1.000000
   18       -8.945918   1.000000
   19       -8.891246   1.000000
   20       -8.762157   1.000000
   21       -8.634310   1.000000
   22       -8.449536   1.000000
   23       -8.136838   1.000000
   24       -8.007413   1.000000
   25       -7.940026   1.000000
   26       -7.902475   1.000000
   27       -7.549263   1.000000
   28       -7.135413   1.000000
   29       -6.749809   1.000000
   30       -6.628931   1.000000
   31       -6.431720   1.000000
   32       -6.170513   1.000000
   33       -6.073549   1.000000
   34       -5.937693   1.000000
   35       -5.742742   1.000000
   36       -5.599031   1.000000
   37       -5.492462   1.000000
   38       -5.406095   1.000000
   39       -5.364408   1.000000
   40       -5.327197   1.000000
   41       -5.168276   1.000000
   42       -5.143783   1.000000
   43       -5.100724   1.000000
   44       -5.055884   1.000000
   45       -4.868921   1.000000
   46       -4.821418   1.000000
   47       -4.703704   1.000000
   48       -4.681904   1.000000
   49       -4.575143   1.000000
   50       -4.553862   1.000000
   51       -4.493815   1.000000
   52       -4.483092   1.000000
   53       -4.393602   1.000000
   54       -4.343448   1.000000
   55       -4.228861   1.000000
   56       -4.138948   1.000000
   57       -4.055218   1.000000
   58       -3.998287   1.000000
   59       -3.946010   1.000000
   60       -3.857713   1.000000
   61       -3.637399   1.000000
   62       -3.529725   1.000000
   63       -3.516947   1.000000
   64       -3.460447   1.000000
   65       -3.397251   1.000000
   66       -3.369156   1.000000
   67       -3.293449   1.000000
   68       -3.247230   1.000000
   69       -3.169904   1.000000
   70       -3.137667   1.000000
   71       -2.962295   1.000000
   72       -2.907217   1.000000
   73       -2.655266   1.000000
   74       -2.491017   1.000000
   75       -2.470602   1.000000
   76       -2.437606   1.000000
   77       -2.386065   1.000000
   78       -2.318391   1.000000
   79       -2.145116   1.000000
   80       -2.078293   1.000000
   81       -1.820658   1.000000
   82       -1.491307   1.000000
   83       -1.405424   1.000000
   84       -1.354296   1.000000
   85       -1.165978   1.000000
   86       -1.014511   1.000000
   87       -0.893548   1.000000
   88       -0.795756   1.000000
   89       -0.617020   1.000000
   90       -0.573518   1.000000
   91       -0.371943   1.000000
   92       -0.118367   1.022384
   93       -0.075104   1.035162
   94        0.092508   0.133224
   95        0.125271   0.004628
   96        0.190731  -0.028698
   97        0.231036  -0.011576
   98        0.358130  -0.000039
   99        0.391410  -0.000005
  100        0.727648  -0.000000
  101        0.816025  -0.000000
  102        0.841892  -0.000000
  103        0.918802  -0.000000
  104        0.954951  -0.000000
  105        1.034773  -0.000000
  106        1.123676  -0.000000
  107        1.258155  -0.000000
  108        1.267035  -0.000000
  109        1.348866  -0.000000
  110        1.363558  -0.000000
  111        1.467823  -0.000000
  112        1.531880  -0.000000
  113        1.589723  -0.000000
  114        1.610841  -0.000000
  115        1.697154  -0.000000
  116        1.733918  -0.000000
  117        1.781072  -0.000000
  118        1.843899  -0.000000
  119        1.995590  -0.000000
  120        2.042235  -0.000000

  0.2222222E+00  0.9090909E-01  0.3065600E-15  0.6734007E-02
    1      -13.839609   1.000000
    2      -12.968824   1.000000
    3      -12.477655   1.000000
    4      -11.911068   1.000000
    5      -11.505305   1.000000
    6      -11.466753   1.000000
    7      -11.245657   1.000000
    8      -11.206521   1.000000
    9      -11.068609   1.000000
   10      -10.720805   1.000000
   11      -10.559891   1.000000
   12      -10.478038   1.000000
   13      -10.288361   1.000000
   14      -10.186745   1.000000
   15       -9.693313   1.000000
   16       -9.610700   1.000000
   17       -9.139854   1.000000
   18       -9.005034   1.000000
   19       -8.819304   1.000000
   20       -8.767692   1.000000
   21       -8.706532   1.000000
   22       -8.482260   1.000000
   23       -8.235949   1.000000
   24       -8.087562   1.000000
   25       -7.983181   1.000000
   26       -7.797866   1.000000
   27       -7.750706   1.000000
   28       -7.083516   1.000000
   29       -6.655156   1.000000
   30       -6.627018   1.000000
   31       -6.335527   1.000000
   32       -6.266854   1.000000
   33       -6.054116   1.000000
   34       -5.886301   1.000000
   35       -5.771995   1.000000
   36       -5.611909   1.000000
   37       -5.387444   1.000000
   38       -5.365497   1.000000
   39       -5.292078   1.000000
   40       -5.262583   1.000000
   41       -5.176764   1.000000
   42       -5.137447   1.000000
   43       -5.042884   1.000000
   44       -5.017174   1.000000
   45       -4.840555   1.000000
   46       -4.801674   1.000000
   47       -4.673562   1.000000
   48       -4.646065   1.000000