   49   49   85    1
  0.2046891E+02  0.8733603E-09  0.6079487E-09  0.2183401E-08  0.5000000E-15
   1.0000000000000000E-004
  CAR 
 Name                                    
    185     50    120

  0.3742002E-15  0.3742002E-15  0.1262379E-14  0.1010101E-01
    1      -13.318872   1.000000
    2      -11.948811   1.000000
    3      -11.874662   1.000000
    4      -11.460390   1.000000
    5      -10.694422   1.000000
    6      -10.536992   1.000000
    7      -10.413638   1.000000
    8      -10.334900   1.000000
    9      -10.188541   1.000000
   10      -10.038363   1.000000
   11      -10.025204   1.000000
   12       -9.609860   1.000000
   13       -9.490902   1.000000
   14       -9.481429   1.000000
   15       -9.082459   1.000000
   16       -9.071307   1.000000
   17       -8.146821   1.000000
   18       -8.047893   1.000000
   19       -8.041670   1.000000
   20       -7.761329   1.000000
   21       -7.753079   1.000000
   22       -7.494681   1.000000
   23       -7.448241   1.000000
   24       -7.362203   1.000000
   25       -7.336327   1.000000
   26       -7.298493   1.000000
   27       -6.621586   1.000000
   28       -6.226703   1.000000
   29       -5.754913   1.000000
   30       -5.701962   1.000000
   31       -5.663985   1.000000
   32       -5.381125   1.000000
   33       -5.092905   1.000000
   34       -5.065309   1.000000
   35       -4.968145   1.000000
   36       -4.729987   1.000000
   37       -4.660520   1.000000
   38       -4.606097   1.000000
   39       -4.506526   1.000000
   40       -4.356992   1.000000
   41       -4.301888   1.000000
   42       -4.235979   1.000000
   43       -4.136309   1.000000
   44       -4.079115   1.000000
   45       -3.981880   1.000000
   46       -3.902996   1.000000
   47       -3.883143   1.000000
   48       -3.821133   1.000000
   49       -3.800345   1.000000
   50       -3.735242   1.000000
   51       -3.730091   1.000000
   52       -3.505580   1.000000
   53       -3.377592   1.000000
   54       -3.291134   1.000000
   55       -3.276429   1.000000
   56       -3.161119   1.000000
   57       -3.158225   1.000000
   58       -3.080886   1.000000
   59       -2.903328   1.000000
   60       -2.860069   1.000000
   61       -2.837334   1.000000
   62       -2.785201   1.000000
   63       -2.690106   1.000000
   64       -2.641653   1.000000
   65       -2.584241   1.000000
   66       -2.505165   1.000000
   67       -2.410621   1.000000
   68       -2.373906   1.000000
   69       -2.353727   1.000000
   70       -2.272028   1.000000
   71       -1.800579   1.000000
   72       -1.768909   1.000000
   73       -1.764586   1.000000
   74       -1.578458   1.000000
   75       -1.523344   1.000000
   76       -1.502007   1.000000
   77       -1.474872   1.000000
   78       -1.329694   1.000000
   79       -1.268164   1.000000
   80       -1.224292   1.000000
   81       -1.029230   1.000000
   82       -0.875808   1.000000
   83       -0.690370   1.000000
   84       -0.425568   1.000000
   85       -0.397270   1.000000
   86       -0.195301   1.000000
   87       -0.119965   1.000000
   88       -0.077499   1.000000
   89       -0.053052   1.000000
   90        0.336230   1.003813
   91        0.389613   1.019548
   92        0.666819  -0.032374
   93        0.700647  -0.030503
   94        0.733877  -0.015797
   95        0.751441  -0.009628
   96        0.797136  -0.001805
   97        0.912110  -0.000003
   98        1.074906  -0.000000
   99        1.195670  -0.000000
  100        1.204307  -0.000000
  101        1.234480  -0.000000
  102        1.288764  -0.000000
  103        1.314077  -0.000000
  104        1.367656  -0.000000
  105        1.373239  -0.000000
  106        1.728581  -0.000000
  107        1.759094  -0.000000
  108        1.784865  -0.000000
  109        1.821727  -0.000000
  110        1.831667  -0.000000
  111        1.906338  -0.000000
  112        1.950733  -0.000000
  113        1.969608  -0.000000
  114        1.989838  -0.000000
  115        2.098228  -0.000000
  116        2.114167  -0.000000
  117        2.163414  -0.000000
  118        2.362343  -0.000000
  119        2.365028  -0.000000
  120        2.379973  -0.000000

  0.1111111E+00  0.3694577E-15  0.1266495E-14  0.2020202E-01
    1      -13.293808   1.000000
    2      -12.002894   1.000000
    3      -11.926668   1.000000
    4      -11.381379   1.000000
    5      -10.684162   1.000000
    6      -10.565768   1.000000
    7      -10.402195   1.000000
    8      -10.336922   1.000000
    9      -10.190810   1.000000
   10      -10.029824   1.000000
   11      -10.015532   1.000000
   12       -9.611294   1.000000
   13       -9.493179   1.000000
   14       -9.484624   1.000000
   15       -9.065408   1.000000
   16       -9.053531   1.000000
   17       -8.136374   1.000000
   18       -8.048152   1.000000
   19       -8.037272   1.000000
   20       -7.772247   1.000000
   21       -7.765730   1.000000
   22       -7.545918   1.000000
   23       -7.531303   1.000000
   24       -7.342557   1.000000
   25       -7.337297   1.000000
   26       -7.234818   1.000000
   27       -6.707368   1.000000
   28       -6.242808   1.000000
   29       -5.723410   1.000000
   30       -5.672623   1.000000
   31       -5.575030   1.000000
   32       -5.361415   1.000000
   33       -5.109313   1.000000
   34       -5.062154   1.000000
   35       -4.964973   1.000000
   36       -4.917499   1.000000
   37       -4.613974   1.000000
   38       -4.590736   1.000000
   39       -4.381913   1.000000
   40       -4.368429   1.000000
   41       -4.352010   1.000000
   42       -4.125436   1.000000
   43       -4.115458   1.000000
   44       -4.067193   1.000000
   45       -3.936142   1.000000
   46       -3.927333   1.000000
   47       -3.897095   1.000000
   48       -3.815471   1.000000
   49       -3.782473   1.000000
   50       -3.723075   1.000000
   51       -3.709716   1.000000
   52       -3.498058   1.000000
   53       -3.365942   1.000000
   54       -3.295502   1.000000
   55       -3.257130   1.000000
   56       -3.193333   1.000000
   57       -3.182035   1.000000
   58       -3.104030   1.000000
   59       -2.936076   1.000000
   60       -2.857044   1.000000
   61       -2.833394   1.000000
   62       -2.755605   1.000000
   63       -2.693326   1.000000
   64       -2.679292   1.000000
   65       -2.572992   1.000000
   66       -2.524347   1.000000
   67       -2.382575   1.000000
   68       -2.365032   1.000000
   69       -2.351290   1.000000
   70       -2.248480   1.000000
   71       -1.879203   1.000000
   72       -1.801964   1.000000
   73       -1.737117   1.000000
   74       -1.613648   1.000000
   75       -1.566872   1.000000
   76       -1.522539   1.000000
   77       -1.493317   1.000000
   78       -1.364127   1.000000
   79       -1.297576   1.000000
   80       -1.224262   1.000000
   81       -0.986647   1.000000
   82       -0.782408   1.000000
   83       -0.726751   1.000000
   84       -0.460947   1.000000
   85       -0.433538   1.000000
   86       -0.210490   1.000000
   87       -0.106444   1.000000
   88       -0.059914   1.000000
   89        0.026490   1.000000
   90        0.306525   1.001116
   91        0.343717   1.005023
   92        0.626705   0.042363
   93        0.689125  -0.034285
   94        0.739641  -0.013563
   95        0.829412  -0.000408
   96        0.886498  -0.000017
   97        0.894662  -0.000010
   98        1.058022  -0.000000
   99        1.154175  -0.000000
  100        1.235132  -0.000000
  101        1.254817  -0.000000
  102        1.301821  -0.000000
  103        1.344173  -0.000000
  104        1.387221  -0.000000
  105        1.392829  -0.000000
  106        1.740876  -0.000000
  107        1.774057  -0.000000
  108        1.798000  -0.000000
  109        1.808020  -0.000000
  110        1.862620  -0.000000
  111        1.911434  -0.000000
  112        1.951981  -0.000000
  113        1.973241  -0.000000
  114        2.005988  -0.000000
  115        2.110966  -0.000000
  116        2.126424  -0.000000
  117        2.155539  -0.000000
  118        2.341736  -0.000000
  119        2.355632  -0.000000
  120        2.402663  -0.000000

  0.2222222E+00  0.3681327E-15  0.1265439E-14  0.2020202E-01
    1      -13.219262   1.000000
    2      -12.241248   1.000000
    3      -11.862350   1.000000
    4      -11.308523   1.000000
    5      -10.656659   1.000000
    6      -10.609189   1.000000
    7      -10.377475   1.000000
    8      -10.341850   1.000000
    9      -10.180985   1.000000
   10      -10.011854   1.000000
   11       -9.990246   1.000000
   12       -9.641405   1.000000
   13       -9.508011   1.000000
   14       -9.485735   1.000000
   15       -9.013869   1.000000
   16       -9.001644   1.000000
   17       -8.094405   1.000000
   18       -8.057127   1.000000
   19       -8.017665   1.000000
   20       -7.824208   1.000000
   21       -7.820724   1.000000
   22       -7.633392   1.000000
   23       -7.626269   1.000000
   24       -7.368198   1.000000
   25       -7.355126   1.000000
   26       -7.079396   1.000000
   27       -6.912500   1.000000
   28       -6.224343   1.000000
   29       -5.668543   1.000000
   30       -5.638165   1.000000
   31       -5.502004   1.000000
   32       -5.339110   1.000000
   33       -5.234371   1.000000
   34       -5.035150   1.000000
   35       -4.926805   1.000000
   36       -4.920660   1.000000
   37       -4.634095   1.000000
   38       -4.471346   1.000000
   39       -4.367943   1.000000
   40       -4.347154   1.000000
   41       -4.276524   1.000000
   42       -4.132647   1.000000
   43       -4.045218   1.000000
   44       -4.002648   1.000000
   45       -3.973981   1.000000
   46       -3.886076   1.000000
   47       -3.829888   1.000000
   48       -3.801584   1.000000
   49       -3.723652   1.000000
   50       -3.705367   1.000000
   51       -3.650117   1.000000
   52       -3.496196   1.000000
   53       -3.363090   1.000000
   54       -3.301205   1.000000
   55       -3.272463   1.000000
   56       -3.248363   1.000000
   57       -3.191118   1.000000
   58       -3.112835   1.000000
   59       -2.958680   1.000000
   60       -2.861920   1.000000
   61       -2.834005   1.000000
   62       -2.758097   1.000000
   63       -2.734548   1.000000
   64       -2.662072   1.000000
   65       -2.607826   1.000000
   66       -2.568900   1.000000
   67       -2.418267   1.000000
   68       -2.304769   1.000000
   69       -2.244643   1.000000
   70       -2.200598   1.000000
   71       -2.047973   1.000000
   72       -1.882495   1.000000
   73       -1.732222   1.000000
   74       -1.705654   1.000000
   75       -1.635029   1.000000
   76       -1.578787   1.000000
   77       -1.525648   1.000000
   78       -1.458491   1.000000
   79       -1.340921   1.000000
   80       -1.226621   1.000000
   81       -0.924805   1.000000
   82       -0.803275   1.000000
   83       -0.577238   1.000000
   84       -0.551881   1.000000
   85       -0.510849   1.000000
   86       -0.191023   1.000000
   87       -0.074868   1.000000
   88       -0.037572   1.000000
   89        0.205598   1.000004
   90        0.240279   1.000035
   91        0.254844   1.000081
   92        0.521941   0.779775
   93        0.683039  -0.035305
   94        0.815852  -0.000785
   95        0.865340  -0.000059
   96        0.906636  -0.000005
   97        1.035265  -0.000000
   98        1.056293  -0.000000
   99        1.161430  -0.000000
  100        1.231301  -0.000000
  101        1.303400  -0.000000
  102        1.338984  -0.000000
  103        1.391219  -0.000000
  104        1.438369  -0.000000
  105        1.461206  -0.000000
  106        1.733353  -0.000000
  107        1.794138  -0.000000
  108        1.805753  -0.000000
  109        1.844818  -0.000000
  110        1.894010  -0.000000
  111        1.927064  -0.000000
  112        1.974434  -0.000000
  113        1.987712  -0.000000
  114        2.039969  -0.000000
  115        2.119335  -0.000000
  116        2.162021  -0.000000
  117        2.196068  -0.000000
  118        2.309565  -0.000000
  119        2.316875  -0.000000
  120        2.352844  -0.000000

  0.3333333E+00  0.3672355E-15  0.1308213E-14  0.2020202E-01
    1      -13.097235   1.000000
    2      -12.492060   1.000000
    3      -11.759412   1.000000
    4      -11.352394   1.000000
    5      -10.621863   1.000000
    6      -10.610168   1.000000
    7      -10.362606   1.000000
    8      -10.346412   1.000000
    9      -10.129799   1.000000
   10       -9.993257   1.000000
   11       -9.961646   1.000000
   12       -9.732581   1.000000
   13       -9.514876   1.000000
   14       -9.491638   1.000000
   15       -8.935394   1.000000
   16       -8.925480   1.000000
   17       -8.109000   1.000000
   18       -8.105506   1.000000
   19       -7.941208   1.000000
   20       -7.894702   1.000000
   21       -7.872214   1.000000
   22       -7.681159   1.000000
   23       -7.637299   1.000000
   24       -7.422829   1.000000
   25       -7.412513   1.000000
   26       -7.159230   1.000000
   27       -6.862478   1.000000
   28       -6.104638   1.000000
   29       -5.880650   1.000000
   30       -5.627682   1.000000
   31       -5.613058   1.000000
   32       -5.366978   1.000000
   33       -5.046209   1.000000
   34       -4.965572   1.000000
   35       -4.851421   1.000000
   36       -4.835581   1.000000
   37       -4.542824   1.000000
   38       -4.497856   1.000000
   39       -4.296141   1.000000
   40       -4.242855   1.000000
   41       -4.224922   1.000000
   42       -4.209358   1.000000
   43       -4.080541   1.000000
   44       -4.025335   1.000000
   45       -3.966122   1.000000
   46       -3.816409   1.000000
   47       -3.798246   1.000000
   48       -3.717855   1.000000
   49       -3.709437   1.000000
   50       -3.634259   1.000000
   51       -3.574198   1.000000
   52       -3.520377   1.000000
   53       -3.431727   1.000000
   54       -3.346586   1.000000
   55       -3.259330   1.000000
   56       -3.236731   1.000000
   57       -3.109050   1.000000
   58       -3.092218   1.000000
   59       -2.981560   1.000000
   60       -2.854648   1.000000
   61       -2.850631   1.000000
   62       -2.807189   1.000000
   63       -2.790971   1.000000
   64       -2.685014   1.000000
   65       -2.620339   1.000000
   66       -2.545390   1.000000
   67       -2.474497   1.000000
   68       -2.260773   1.000000
   69       -2.184913   1.000000
   70       -2.157833   1.000000
   71       -2.146858   1.000000
   72       -1.976389   1.000000
   73       -1.840913   1.000000
   74       -1.794703   1.000000
   75       -1.653420   1.000000
   76       -1.617145   1.000000
   77       -1.572518   1.000000
   78       -1.538135   1.000000
   79       -1.371904   1.000000
   80       -1.229393   1.000000
   81       -1.041459   1.000000
   82       -0.701574   1.000000
   83       -0.666108   1.000000
   84       -0.622021   1.000000
   85       -0.351830   1.000000
   86       -0.161203   1.000000
   87       -0.050336   1.000000
   88        0.044713   1.000000
   89        0.143958   1.000000
   90        0.182525   1.000001
   91        0.398819   1.023750
   92        0.453635   1.028557
   93        0.610734   0.111836
   94        0.806781  -0.001187
   95        0.895660  -0.000009
   96        0.972019  -0.000000
   97        1.042493  -0.000000
   98        1.068188  -0.000000
   99        1.191646  -0.000000
  100        1.316804  -0.000000
  101        1.407022  -0.000000
  102        1.457953  -0.000000
  103        1.477393  -0.000000
  104        1.494559  -0.000000
  105        1.519799  -0.000000
  106        1.610782  -0.000000
  107        1.786339  -0.000000
  108        1.854544  -0.000000
  109        1.887347  -0.000000
  110        1.916261  -0.000000
  111        1.987727  -0.000000
  112        1.996435  -0.000000
  113        2.008738  -0.000000
  114        2.057478  -0.000000
  115        2.138039  -0.000000
  116        2.215268  -0.000000
  117        2.229111  -0.000000
  118        2.240051  -0.000000
  119        2.291824  -0.000000
  120        2.337999  -0.000000

  0.4444444E+00  0.3795814E-15  0.1235432E-14  0.2020202E-01
    1      -12.931365   1.000000
    2      -12.726440   1.000000
    3      -11.626245   1.000000
    4      -11.478886   1.000000
    5      -10.595688   1.000000
    6      -10.592251   1.000000
    7      -10.361488   1.000000
    8      -10.348730   1.000000
    9      -10.042807   1.000000
   10       -9.990002   1.000000
   11       -9.930600   1.000000
   12       -9.852139   1.000000
   13       -9.513471   1.000000
   14       -9.501469   1.000000
   15       -8.865001   1.000000
   16       -8.858871   1.000000
   17       -8.189232   1.000000
   18       -8.185085   1.000000
   19       -7.902720   1.000000
   20       -7.898474   1.000000
   21       -7.798593   1.000000
   22       -7.722518   1.000000
   23       -7.570239   1.000000
   24       -7.469192   1.000000
   25       -7.462059   1.000000
   26       -7.390950   1.000000
   27       -6.590017   1.000000
   28       -6.256908   1.000000
   29       -5.889015   1.000000
   30       -5.631914   1.000000
   31       -5.607056   1.000000
   32       -5.596103   1.000000
   33       -4.862531   1.000000
   34       -4.817229   1.000000
   35       -4.745409   1.000000
   36       -4.711724   1.000000
   37       -4.582138   1.000000
   38       -4.513084   1.000000
   39       -4.302308   1.000000
   40       -4.291317   1.000000
   41       -4.231393   1.000000
   42       -4.136764   1.000000
   43       -4.078376   1.000000
   44       -4.061508   1.000000
   45       -3.873463   1.000000
   46       -3.846540   1.000000
   47       -3.824881   1.000000
   48       -3.758707   1.000000
   49       -3.619021   1.000000
   50       -3.576332   1.000000
   51       -3.555977   1.000000
   52       -3.526825   1.000000
   53       -3.445796   1.000000
   54       -3.372978   1.000000
   55       -3.219687   1.000000
   56       -3.183460   1.000000
   57       -3.098990   1.000000
   58       -3.052310   1.000000
   59       -2.970134   1.000000
   60       -2.891625   1.000000
   61       -2.882986   1.000000
   62       -2.840814   1.000000
   63       -2.788305   1.000000
   64       -2.758222   1.000000
   65       -2.565545   1.000000
   66       -2.525526   1.000000
   67       -2.470363   1.000000
   68       -2.373511   1.000000
   69       -2.212570   1.000000
   70       -2.188488   1.000000
   71       -2.088085   1.000000
   72       -1.989040   1.000000
   73       -1.879300   1.000000
   74       -1.824195   1.000000
   75       -1.718514   1.000000
   76       -1.677651   1.000000
   77       -1.638170   1.000000
   78       -1.448993   1.000000
   79       -1.387481   1.000000
   80       -1.313777   1.000000
   81       -1.097616   1.000000
   82       -0.748705   1.000000
   83       -0.738505   1.000000
   84       -0.511029   1.000000
   85       -0.311131   1.000000
   86       -0.135464   1.000000
   87       -0.044927   1.000000
   88        0.075809   1.000000
   89        0.132884   1.000000
   90        0.273198   1.000220
   91        0.320838   1.002072
   92        0.548494   0.574536
   93        0.571858   0.378562
   94        0.705425  -0.028497
   95        0.889485  -0.000014
   96        0.958370  -0.000000
   97        1.072903  -0.000000
   98        1.137911  -0.000000
   99        1.278588  -0.000000
  100        1.321191  -0.000000
  101        1.420341  -0.000000
  102        1.452098  -0.000000
  103        1.521755  -0.000000
  104        1.543807  -0.000000
  105        1.600093  -0.000000
  106        1.710945  -0.000000
  107        1.799538  -0.000000
  108        1.865317  -0.000000
  109        1.912191  -0.000000
  110        1.937970  -0.000000
  111        2.012564  -0.000000
  112        2.036001  -0.000000
  113        2.073763  -0.000000
  114        2.101129  -0.000000
  115        2.117340  -0.000000
  116        2.141667  -0.000000
  117        2.180746  -0.000000
  118        2.192042  -0.000000
  119        2.209355  -0.000000
  120        2.323582  -0.000000

  0.3742002E-15  0.9090909E-01  0.1339361E-14  0.2020202E-01
    1      -13.286297   1.000000
    2      -11.920364   1.000000
    3      -11.883351   1.000000
    4      -11.421030   1.000000
    5      -10.680291   1.000000
    6      -10.604520   1.000000
    7      -10.553990   1.000000
    8      -10.522111   1.000000
    9      -10.271108   1.000000
   10       -9.973229   1.000000
   11       -9.883069   1.000000
   12       -9.572562   1.000000
   13       -9.489262   1.000000
   14       -9.472416   1.000000
   15       -9.027889   1.000000
   16       -9.023895   1.000000
   17       -8.166710   1.000000
   18       -8.080830   1.000000
   19       -8.058326   1.000000
   20       -7.938549   1.000000
   21       -7.891621   1.000000
   22       -7.338262   1.000000
   23       -7.268160   1.000000
   24       -7.230537   1.000000
   25       -7.163745   1.000000
   26       -7.116986   1.000000
   27       -6.664015   1.000000
   28       -6.204159   1.000000
   29       -5.779923   1.000000
   30       -5.695280   1.000000
   31       -5.643315   1.000000
   32       -5.400020   1.000000
   33       -5.237876   1.000000
   34       -4.978180   1.000000
   35       -4.910069   1.000000
   36       -4.772525   1.000000
   37       -4.633953   1.000000
   38       -4.584068   1.000000
   39       -4.478753   1.000000
   40       -4.403395   1.000000
   41       -4.370892   1.000000
   42       -4.267892   1.000000
   43       -4.260283   1.000000
   44       -4.099067   1.000000
   45       -4.049300   1.000000
   46       -4.007759   1.000000
   47       -3.890111   1.000000
   48       -3.814995   1.000000
   49       -3.784168   1.000000
   50       -3.768947   1.000000
   51       -3.684765   1.000000
   52       -3.510156   1.000000
   53       -3.458879   1.000000
   54       -3.389941   1.000000
   55       -3.296718   1.000000
   56       -3.154064   1.000000
   57       -3.133377   1.000000
   58       -3.065483   1.000000
   59       -2.936411   1.000000
   60       -2.843964   1.000000
   61       -2.799164   1.000000
   62       -2.785648   1.000000
   63       -2.679576   1.000000
   64       -2.614389   1.000000
   65       -2.595813   1.000000
   66       -2.511463   1.000000
   67       -2.450088   1.000000
   68       -2.357238   1.000000
   69       -2.281505   1.000000
   70       -2.230162   1.000000
   71       -2.010760   1.000000
   72       -1.776776   1.000000
   73       -1.744920   1.000000
   74       -1.551481   1.000000
   75       -1.525656   1.000000
   76       -1.500554   1.000000
   77       -1.432984   1.000000
   78       -1.317383   1.000000
   79       -1.255191   1.000000
   80       -1.194794   1.000000
   81       -1.023823   1.000000
   82       -0.864337   1.000000
   83       -0.633476   1.000000
   84       -0.472845   1.000000
   85       -0.393334   1.000000
   86       -0.257805   1.000000
   87       -0.173213   1.000000
   88       -0.126284   1.000000
   89       -0.088342   1.000000
   90        0.286878   1.000442
   91        0.388837   1.019204
   92        0.557711   0.496861
   93        0.654202  -0.021557
   94        0.661865  -0.029208
   95        0.751119  -0.009724
   96        0.769635  -0.005267
   97        0.911707  -0.000003
   98        1.066801  -0.000000
   99        1.092464  -0.000000
  100        1.183517  -0.000000
  101        1.296164  -0.000000
  102        1.364800  -0.000000
  103        1.388599  -0.000000
  104        1.421126  -0.000000
  105        1.536417  -0.000000
  106        1.702788  -0.000000
  107        1.739126  -0.000000
  108        1.774222  -0.000000
  109        1.823807  -0.000000
  110        1.846942  -0.000000
  111        1.909109  -0.000000
  112        1.934282  -0.000000
  113        1.985427  -0.000000
  114        2.013083  -0.000000
  115        2.107591  -0.000000
  116        2.157141  -0.000000
  117        2.165268  -0.000000
  118        2.308396  -0.000000
  119        2.347815  -0.000000
  120        2.368957  -0.000000

  0.1111111E+00  0.9090909E-01  0.1250028E-14  0.2020202E-01
    1      -13.240913   1.000000
    2      -12.075681   1.000000
    3      -11.880782   1.000000
    4      -11.319577   1.000000
    5      -10.670727   1.000000
    6      -10.658563   1.000000
    7      -10.564366   1.000000
    8      -10.496231   1.000000
    9      -10.217142   1.000000
   10       -9.966195   1.000000
   11       -9.856924   1.000000
   12       -9.584267   1.000000
   13       -9.535800   1.000000
   14       -9.500980   1.000000
   15       -8.996518   1.000000
   16       -8.955260   1.000000
   17       -8.197117   1.000000
   18       -8.069938   1.000000
   19       -8.022583   1.000000
   20       -8.018124   1.000000
   21       -7.878626   1.000000
   22       -7.484795   1.000000
   23       -7.294519   1.000000
   24       -7.175451   1.000000
   25       -7.125669   1.000000
   26       -7.101378   1.000000
   27       -6.788489   1.000000
   28       -6.218968   1.000000
   29       -5.788759   1.000000
   30       -5.630559   1.000000
   31       -5.462670   1.000000
   32       -5.379794   1.000000
   33       -5.267362   1.000000
   34       -5.112993   1.000000
   35       -4.933626   1.000000
   36       -4.801670   1.000000
   37       -4.606556   1.000000
   38       -4.542090   1.000000
   39       -4.434576   1.000000
   40       -4.398830   1.000000
   41       -4.361767   1.000000
   42       -4.260943   1.000000
   43       -4.148592   1.000000
   44       -4.047291   1.000000
   45       -4.022853   1.000000
   46       -3.935641   1.000000
   47       -3.867124   1.000000
   48       -3.822549   1.000000
   49       -3.795343   1.000000
   50       -3.726945   1.000000
   51       -3.674894   1.000000
   52       -3.523540   1.000000
   53       -3.436129   1.000000
   54       -3.384227   1.000000
   55       -3.229316   1.000000
   56       -3.226532   1.000000
   57       -3.154618   1.000000
   58       -3.041724   1.000000
   59       -2.996162   1.000000
   60       -2.858316   1.000000
   61       -2.825820   1.000000
   62       -2.793111   1.000000
   63       -2.686399   1.000000
   64       -2.653136   1.000000
   65       -2.604108   1.000000
   66       -2.515984   1.000000
   67       -2.428721   1.000000
   68       -2.292116   1.000000
   69       -2.282661   1.000000
   70       -2.241978   1.000000
   71       -2.062650   1.000000
   72       -1.835727   1.000000
   73       -1.718572   1.000000
   74       -1.645781   1.000000
   75       -1.596225   1.000000
   76       -1.545253   1.000000
   77       -1.482352   1.000000
   78       -1.362886   1.000000
   79       -1.281800   1.000000
   80       -1.172334   1.000000
   81       -0.976102   1.000000
   82       -0.848145   1.000000
   83       -0.606456   1.000000
   84       -0.584154   1.000000
   85       -0.431813   1.000000
   86       -0.262539   1.000000
   87       -0.158338   1.000000
   88        0.003510   1.000000
   89        0.027613   1.000000
   90        0.235567   1.000026
   91        0.344631   1.005190
   92        0.557228   0.500947
   93        0.633460   0.020557
   94        0.729118  -0.017779
   95        0.802074  -0.001460
   96        0.852061  -0.000125
   97        0.893993  -0.000010
   98        1.023683  -0.000000
   99        1.052415  -0.000000
  100        1.257383  -0.000000
  101        1.355649  -0.000000
  102        1.385096  -0.000000
  103        1.398529  -0.000000
  104        1.454460  -0.000000
  105        1.509968  -0.000000
  106        1.699160  -0.000000
  107        1.783756  -0.000000
  108        1.796255  -0.000000
  109        1.821400  -0.000000
  110        1.840289  -0.000000
  111        1.910136  -0.000000
  112        1.943590  -0.000000
  113        2.008337  -0.000000
  114        2.043800  -0.000000
  115        2.127276  -0.000000
  116        2.146035  -0.000000
  117        2.205289  -0.000000
  118        2.288076  -0.000000
  119        2.326255  -0.000000
  120        2.356654  -0.000000

  0.2222222E+00  0.9090909E-01  0.1327369E-14  0.2020202E-01
    1      -13.146935   1.000000
    2      -12.322014   1.000000
    3      -11.800764   1.000000
    4      -11.292025   1.000000
    5      -10.722892   1.000000
    6      -10.626529   1.000000
    7      -10.592798   1.000000
    8      -10.440053   1.000000
    9      -10.137550   1.000000
   10       -9.932036   1.000000
   11       -9.807994   1.000000
   12       -9.661794   1.000000
   13       -9.600938   1.000000
   14       -9.537246   1.000000
   15       -8.918690   1.000000
   16       -8.845734   1.000000
   17       -8.239057   1.000000
   18       -8.201611   1.000000
   19       -7.945827   1.000000
   20       -7.944616   1.000000
   21       -7.909477   1.000000
   22       -7.646176   1.000000
   23       -7.395289   1.000000
   24       -7.166568   1.000000
   25       -7.127813   1.000000
   26       -6.970176   1.000000
   27       -6.966975   1.000000
   28       -6.167569   1.000000
   29       -5.806379   1.000000
   30       -5.628231   1.000000
   31       -5.553594   1.000000
   32       -5.290420   1.000000
   33       -5.195790   1.000000
   34       -5.135957   1.000000
   35       -4.947263   1.000000
   36       -4.730005   1.000000
   37       -4.604547   1.000000
   38       -4.472767   1.000000
   39       -4.423583   1.000000
   40       -4.344081   1.000000
   41       -4.314314   1.000000
   42       -4.237590   1.000000
   43       -4.071722   1.000000
   44       -3.989196   1.000000
   45       -3.986570   1.000000
   46       -3.888478   1.000000
   47       -3.842017   1.000000
   48       -3.815709   1.000000