   73   73    1    1
  0.2139262E+02  0.1053953E-08  0.6141200E-09  0.2412750E-08  0.5000000E-15
   1.0000000000000000E-004
  CAR 
 Name                                    
    268     23    176

  0.3742002E-15  0.3742002E-15  0.1262379E-14  0.2222222E-01
    1      -13.744672   1.000000
    2      -12.695463   1.000000
    3      -12.491471   1.000000
    4      -12.315232   1.000000
    5      -11.734816   1.000000
    6      -11.586652   1.000000
    7      -11.481296   1.000000
    8      -11.210551   1.000000
    9      -11.176567   1.000000
   10      -11.055100   1.000000
   11      -10.964980   1.000000
   12      -10.779585   1.000000
   13      -10.575025   1.000000
   14      -10.271223   1.000000
   15      -10.204833   1.000000
   16      -10.080391   1.000000
   17      -10.024680   1.000000
   18       -9.897176   1.000000
   19       -9.675791   1.000000
   20       -9.583711   1.000000
   21       -9.375078   1.000000
   22       -9.306950   1.000000
   23       -9.283078   1.000000
   24       -9.077174   1.000000
   25       -8.776664   1.000000
   26       -8.748084   1.000000
   27       -8.522847   1.000000
   28       -8.257397   1.000000
   29       -8.190927   1.000000
   30       -7.998440   1.000000
   31       -7.853261   1.000000
   32       -7.782532   1.000000
   33       -7.444850   1.000000
   34       -7.300535   1.000000
   35       -7.276739   1.000000
   36       -7.136739   1.000000
   37       -7.015749   1.000000
   38       -6.810161   1.000000
   39       -6.719518   1.000000
   40       -6.639812   1.000000
   41       -6.633681   1.000000
   42       -6.512700   1.000000
   43       -6.467932   1.000000
   44       -6.279967   1.000000
   45       -6.066206   1.000000
   46       -5.992620   1.000000
   47       -5.986945   1.000000
   48       -5.910936   1.000000
   49       -5.910199   1.000000
   50       -5.733284   1.000000
   51       -5.646425   1.000000
   52       -5.618552   1.000000
   53       -5.593317   1.000000
   54       -5.397094   1.000000
   55       -5.356946   1.000000
   56       -5.351816   1.000000
   57       -5.221450   1.000000
   58       -5.147189   1.000000
   59       -5.113884   1.000000
   60       -5.039958   1.000000
   61       -4.987552   1.000000
   62       -4.924403   1.000000
   63       -4.753146   1.000000
   64       -4.669662   1.000000
   65       -4.575694   1.000000
   66       -4.527778   1.000000
   67       -4.427152   1.000000
   68       -4.414457   1.000000
   69       -4.400434   1.000000
   70       -4.247027   1.000000
   71       -4.224523   1.000000
   72       -4.207103   1.000000
   73       -4.100171   1.000000
   74       -4.053828   1.000000
   75       -3.963239   1.000000
   76       -3.948729   1.000000
   77       -3.881616   1.000000
   78       -3.783841   1.000000
   79       -3.765539   1.000000
   80       -3.734365   1.000000
   81       -3.645243   1.000000
   82       -3.590146   1.000000
   83       -3.504674   1.000000
   84       -3.478051   1.000000
   85       -3.454506   1.000000
   86       -3.355096   1.000000
   87       -3.319418   1.000000
   88       -3.223353   1.000000
   89       -3.177233   1.000000
   90       -3.139362   1.000000
   91       -3.055729   1.000000
   92       -2.973953   1.000000
   93       -2.926261   1.000000
   94       -2.845595   1.000000
   95       -2.757047   1.000000
   96       -2.692195   1.000000
   97       -2.629294   1.000000
   98       -2.483207   1.000000
   99       -2.396972   1.000000
  100       -2.373729   1.000000
  101       -2.331355   1.000000
  102       -2.294963   1.000000
  103       -2.178481   1.000000
  104       -2.155485   1.000000
  105       -2.134852   1.000000
  106       -2.070733   1.000000
  107       -2.057111   1.000000
  108       -2.013253   1.000000
  109       -1.962313   1.000000
  110       -1.917577   1.000000
  111       -1.776347   1.000000
  112       -1.736475   1.000000
  113       -1.654140   1.000000
  114       -1.580219   1.000000
  115       -1.473879   1.000000
  116       -1.361316   1.000000
  117       -1.333057   1.000000
  118       -1.134064   1.000000
  119       -1.030185   1.000000
  120       -1.001497   1.000000
  121       -0.981657   1.000000
  122       -0.834765   1.000000
  123       -0.614822   1.000000
  124       -0.484234   1.000000
  125       -0.399782   1.000005
  126       -0.341677   1.000031
  127       -0.285794   1.000153
  128       -0.137008   1.004504
  129       -0.029223   1.021804
  130        0.019047   1.032270
  131        0.067172   1.034380
  132        0.177973   0.916126
  133        0.196464   0.869528
  134        0.214592   0.815680
  135        0.351747   0.274922
  136        0.390694   0.145559
  137        0.429358   0.052751
  138        0.448225   0.020951
  139        0.535382  -0.035322
  140        0.717384  -0.005599
  141        0.751442  -0.002970
  142        0.768503  -0.002104
  143        0.824530  -0.000602
  144        0.886549  -0.000122
  145        0.945838  -0.000022
  146        1.030631  -0.000001
  147        1.147260  -0.000000
  148        1.187010  -0.000000
  149        1.239948  -0.000000
  150        1.274910  -0.000000
  151        1.291284  -0.000000
  152        1.348009  -0.000000
  153        1.379440  -0.000000
  154        1.410522  -0.000000
  155        1.419645  -0.000000
  156        1.446606  -0.000000
  157        1.543137  -0.000000
  158        1.580672  -0.000000
  159        1.616246  -0.000000
  160        1.642762  -0.000000
  161        1.651442  -0.000000
  162        1.668576  -0.000000
  163        1.697134  -0.000000
  164        1.717943  -0.000000
  165        1.755494  -0.000000
  166        1.786528  -0.000000
  167        1.831811  -0.000000
  168        1.886663  -0.000000
  169        1.953120  -0.000000
  170        1.978299  -0.000000
  171        2.092841  -0.000000
  172        2.287463  -0.000000
  173        2.432414  -0.000000
  174        2.566335  -0.000000
  175        2.600711  -0.000000
  176        2.851413  -0.000000

  0.2000000E+00  0.3742002E-15  0.1262379E-14  0.4444444E-01
    1      -13.717144   1.000000
    2      -12.816147   1.000000
    3      -12.597309   1.000000
    4      -12.006863   1.000000
    5      -11.860350   1.000000
    6      -11.733367   1.000000
    7      -11.240806   1.000000
    8      -11.184684   1.000000
    9      -11.103541   1.000000
   10      -11.000650   1.000000
   11      -10.926393   1.000000
   12      -10.785263   1.000000
   13      -10.551085   1.000000
   14      -10.433779   1.000000
   15      -10.297882   1.000000
   16      -10.095642   1.000000
   17      -10.082158   1.000000
   18      -10.013035   1.000000
   19       -9.728420   1.000000
   20       -9.629242   1.000000
   21       -9.423231   1.000000
   22       -9.333135   1.000000
   23       -9.212042   1.000000
   24       -9.023441   1.000000
   25       -8.814297   1.000000
   26       -8.708566   1.000000
   27       -8.254982   1.000000
   28       -8.196616   1.000000
   29       -8.092938   1.000000
   30       -7.930130   1.000000
   31       -7.901537   1.000000
   32       -7.744454   1.000000
   33       -7.420785   1.000000
   34       -7.341153   1.000000
   35       -7.277335   1.000000
   36       -7.193551   1.000000
   37       -7.056152   1.000000
   38       -6.853413   1.000000
   39       -6.789622   1.000000
   40       -6.688863   1.000000
   41       -6.641615   1.000000
   42       -6.614193   1.000000
   43       -6.467279   1.000000
   44       -6.366282   1.000000
   45       -6.251680   1.000000
   46       -6.058739   1.000000
   47       -5.943038   1.000000
   48       -5.786734   1.000000
   49       -5.777805   1.000000
   50       -5.725039   1.000000
   51       -5.656880   1.000000
   52       -5.617154   1.000000
   53       -5.563484   1.000000
   54       -5.557876   1.000000
   55       -5.315178   1.000000
   56       -5.302796   1.000000
   57       -5.175029   1.000000
   58       -5.142614   1.000000
   59       -5.043655   1.000000
   60       -4.949911   1.000000
   61       -4.917713   1.000000
   62       -4.862362   1.000000
   63       -4.784229   1.000000
   64       -4.662476   1.000000
   65       -4.613468   1.000000
   66       -4.524728   1.000000
   67       -4.443459   1.000000
   68       -4.429269   1.000000
   69       -4.335064   1.000000
   70       -4.253235   1.000000
   71       -4.223293   1.000000
   72       -4.177660   1.000000
   73       -4.080234   1.000000
   74       -4.018264   1.000000
   75       -3.967767   1.000000
   76       -3.935066   1.000000
   77       -3.869471   1.000000
   78       -3.791324   1.000000
   79       -3.786884   1.000000
   80       -3.755258   1.000000
   81       -3.667179   1.000000
   82       -3.651234   1.000000
   83       -3.589073   1.000000
   84       -3.525139   1.000000
   85       -3.477309   1.000000
   86       -3.347614   1.000000
   87       -3.295718   1.000000
   88       -3.285012   1.000000
   89       -3.149939   1.000000
   90       -3.140132   1.000000
   91       -3.071740   1.000000
   92       -2.969037   1.000000
   93       -2.944594   1.000000
   94       -2.823243   1.000000
   95       -2.730866   1.000000
   96       -2.682073   1.000000
   97       -2.621461   1.000000
   98       -2.506323   1.000000
   99       -2.490147   1.000000
  100       -2.412673   1.000000
  101       -2.301067   1.000000
  102       -2.288463   1.000000
  103       -2.242205   1.000000
  104       -2.160759   1.000000
  105       -2.146220   1.000000
  106       -2.062525   1.000000
  107       -2.029561   1.000000
  108       -1.951227   1.000000
  109       -1.863492   1.000000
  110       -1.841657   1.000000
  111       -1.763819   1.000000
  112       -1.700420   1.000000
  113       -1.585775   1.000000
  114       -1.535434   1.000000
  115       -1.446847   1.000000
  116       -1.367283   1.000000
  117       -1.306243   1.000000
  118       -1.108289   1.000000
  119       -1.047647   1.000000
  120       -1.003400   1.000000
  121       -0.979537   1.000000
  122       -0.910689   1.000000
  123       -0.683070   1.000000
  124       -0.534566   1.000000
  125       -0.500040   1.000000
  126       -0.372120   1.000012
  127       -0.340627   1.000032
  128       -0.251592   1.000372
  129       -0.092110   1.009604
  130       -0.051329   1.016926
  131        0.079820   1.031688
  132        0.149500   0.971117
  133        0.235879   0.743031
  134        0.253050   0.678176
  135        0.313844   0.425899
  136        0.374764   0.194484
  137        0.451491   0.016302
  138        0.495898  -0.024940
  139        0.557713  -0.034522
  140        0.664219  -0.012948
  141        0.768080  -0.002123
  142        0.799407  -0.001079
  143        0.853224  -0.000296
  144        0.899108  -0.000086
  145        1.026652  -0.000002
  146        1.040333  -0.000001
  147        1.136205  -0.000000
  148        1.219492  -0.000000
  149        1.237142  -0.000000
  150        1.283320  -0.000000
  151        1.334305  -0.000000
  152        1.348397  -0.000000
  153        1.401200  -0.000000
  154        1.441487  -0.000000
  155        1.486052  -0.000000
  156        1.539097  -0.000000
  157        1.566798  -0.000000
  158        1.594442  -0.000000
  159        1.633000  -0.000000
  160        1.670290  -0.000000
  161        1.684157  -0.000000
  162        1.691263  -0.000000
  163        1.730196  -0.000000
  164        1.759509  -0.000000
  165        1.781178  -0.000000
  166        1.843222  -0.000000
  167        1.877101  -0.000000
  168        1.899416  -0.000000
  169        1.936470  -0.000000
  170        2.128965  -0.000000
  171        2.301388  -0.000000
  172        2.386020  -0.000000
  173        2.462620  -0.000000
  174        2.546275  -0.000000
  175        2.723928  -0.000000
  176        2.925959  -0.000000

  0.4000000E+00  0.3742002E-15  0.1262379E-14  0.4444444E-01
    1      -13.661598   1.000000
    2      -13.021491   1.000000
    3      -12.502981   1.000000
    4      -12.196663   1.000000
    5      -11.730955   1.000000
    6      -11.445940   1.000000
    7      -11.278232   1.000000
    8      -11.186771   1.000000
    9      -10.964646   1.000000
   10      -10.931890   1.000000
   11      -10.811223   1.000000
   12      -10.792629   1.000000
   13      -10.589410   1.000000
   14      -10.502556   1.000000
   15      -10.416526   1.000000
   16      -10.356867   1.000000
   17      -10.115639   1.000000
   18       -9.986676   1.000000
   19       -9.953501   1.000000
   20       -9.819773   1.000000
   21       -9.349096   1.000000
   22       -9.267166   1.000000
   23       -9.196012   1.000000
   24       -8.975650   1.000000
   25       -8.916099   1.000000
   26       -8.558392   1.000000
   27       -8.106180   1.000000
   28       -8.022196   1.000000
   29       -7.857161   1.000000
   30       -7.825141   1.000000
   31       -7.673350   1.000000
   32       -7.617628   1.000000
   33       -7.554841   1.000000
   34       -7.451790   1.000000
   35       -7.268081   1.000000
   36       -7.261848   1.000000
   37       -7.154248   1.000000
   38       -7.142097   1.000000
   39       -6.948215   1.000000
   40       -6.882732   1.000000
   41       -6.667335   1.000000
   42       -6.648586   1.000000
   43       -6.404068   1.000000
   44       -6.373811   1.000000
   45       -6.329885   1.000000
   46       -6.053832   1.000000
   47       -5.914812   1.000000
   48       -5.886538   1.000000
   49       -5.760417   1.000000
   50       -5.739997   1.000000
   51       -5.665019   1.000000
   52       -5.620618   1.000000
   53       -5.505895   1.000000
   54       -5.378914   1.000000
   55       -5.300184   1.000000
   56       -5.237938   1.000000
   57       -5.209613   1.000000
   58       -5.149266   1.000000
   59       -5.114024   1.000000
   60       -4.986166   1.000000
   61       -4.784940   1.000000
   62       -4.739152   1.000000
   63       -4.731215   1.000000
   64       -4.642962   1.000000
   65       -4.538893   1.000000
   66       -4.466179   1.000000
   67       -4.436478   1.000000
   68       -4.362236   1.000000
   69       -4.300008   1.000000
   70       -4.251246   1.000000
   71       -4.230809   1.000000
   72       -4.145243   1.000000
   73       -4.105464   1.000000
   74       -3.992677   1.000000
   75       -3.954105   1.000000
   76       -3.912771   1.000000
   77       -3.886021   1.000000
   78       -3.870081   1.000000
   79       -3.816023   1.000000
   80       -3.750718   1.000000
   81       -3.730521   1.000000
   82       -3.723487   1.000000
   83       -3.630466   1.000000
   84       -3.586555   1.000000
   85       -3.446625   1.000000
   86       -3.430488   1.000000
   87       -3.329329   1.000000
   88       -3.279021   1.000000
   89       -3.172400   1.000000
   90       -3.134866   1.000000
   91       -3.097551   1.000000
   92       -2.933667   1.000000
   93       -2.906752   1.000000
   94       -2.850413   1.000000
   95       -2.847615   1.000000
   96       -2.714055   1.000000
   97       -2.609162   1.000000
   98       -2.602552   1.000000
   99       -2.537546   1.000000
  100       -2.368907   1.000000
  101       -2.348390   1.000000
  102       -2.259679   1.000000
  103       -2.234055   1.000000
  104       -2.181429   1.000000
  105       -2.046201   1.000000
  106       -2.024454   1.000000
  107       -1.978446   1.000000
  108       -1.952736   1.000000
  109       -1.772057   1.000000
  110       -1.722507   1.000000
  111       -1.681258   1.000000
  112       -1.671744   1.000000
  113       -1.495442   1.000000
  114       -1.482319   1.000000
  115       -1.391529   1.000000
  116       -1.304062   1.000000
  117       -1.266928   1.000000
  118       -1.125163   1.000000
  119       -1.060215   1.000000
  120       -1.052971   1.000000
  121       -0.978722   1.000000
  122       -0.912080   1.000000
  123       -0.784545   1.000000
  124       -0.669487   1.000000
  125       -0.570994   1.000000
  126       -0.519324   1.000000
  127       -0.486718   1.000000
  128       -0.354676   1.000021
  129       -0.246945   1.000418
  130       -0.127959   1.005302
  131        0.106676   1.018842
  132        0.115056   1.012423
  133        0.213808   0.818169
  134        0.264943   0.630713
  135        0.310703   0.439046
  136        0.396742   0.128572
  137        0.443110   0.028730
  138        0.521596  -0.033771
  139        0.587750  -0.029499
  140        0.665647  -0.012693
  141        0.748582  -0.003141
  142        0.822446  -0.000632
  143        0.910115  -0.000063
  144        0.946726  -0.000021
  145        1.072479  -0.000000
  146        1.098700  -0.000000
  147        1.150756  -0.000000
  148        1.242626  -0.000000
  149        1.302053  -0.000000
  150        1.350973  -0.000000
  151        1.378327  -0.000000
  152        1.396994  -0.000000
  153        1.467164  -0.000000
  154        1.502302  -0.000000
  155        1.573316  -0.000000
  156        1.584227  -0.000000
  157        1.590313  -0.000000
  158        1.623007  -0.000000
  159        1.652855  -0.000000
  160        1.694497  -0.000000
  161        1.735343  -0.000000
  162        1.760327  -0.000000
  163        1.793905  -0.000000
  164        1.805383  -0.000000
  165        1.835033  -0.000000
  166        1.886496  -0.000000
  167        1.901912  -0.000000
  168        1.987957  -0.000000
  169        2.051146  -0.000000
  170        2.148659  -0.000000
  171        2.182953  -0.000000
  172        2.313613  -0.000000
  173        2.376018  -0.000000
  174        2.450264  -0.000000
  175        2.703079  -0.000000
  176        3.210350  -0.000000

  0.3742002E-15  0.1111111E+00  0.1262379E-14  0.4444444E-01
    1      -13.698962   1.000000
    2      -12.654169   1.000000
    3      -12.455593   1.000000
    4      -12.283680   1.000000
    5      -11.816752   1.000000
    6      -11.556577   1.000000
    7      -11.450624   1.000000
    8      -11.251363   1.000000
    9      -11.208645   1.000000
   10      -11.095823   1.000000
   11      -10.941502   1.000000
   12      -10.797130   1.000000
   13      -10.606275   1.000000
   14      -10.290617   1.000000
   15      -10.181838   1.000000
   16      -10.081045   1.000000
   17      -10.036313   1.000000
   18       -9.889615   1.000000
   19       -9.669763   1.000000
   20       -9.551752   1.000000
   21       -9.390530   1.000000
   22       -9.310493   1.000000
   23       -9.276871   1.000000
   24       -9.085752   1.000000
   25       -8.794683   1.000000
   26       -8.731872   1.000000
   27       -8.509269   1.000000
   28       -8.271319   1.000000
   29       -8.184213   1.000000
   30       -8.016361   1.000000
   31       -7.851679   1.000000
   32       -7.647632   1.000000
   33       -7.527517   1.000000
   34       -7.395635   1.000000
   35       -7.257694   1.000000
   36       -7.134454   1.000000
   37       -7.097906   1.000000
   38       -6.846729   1.000000
   39       -6.703177   1.000000
   40       -6.682489   1.000000
   41       -6.579170   1.000000
   42       -6.465856   1.000000
   43       -6.423288   1.000000
   44       -6.218790   1.000000
   45       -6.101147   1.000000
   46       -6.017982   1.000000
   47       -5.960818   1.000000
   48       -5.925118   1.000000
   49       -5.862177   1.000000
   50       -5.742144   1.000000
   51       -5.663079   1.000000
   52       -5.632125   1.000000
   53       -5.568293   1.000000
   54       -5.452160   1.000000
   55       -5.325157   1.000000
   56       -5.245080   1.000000
   57       -5.218401   1.000000
   58       -5.142577   1.000000
   59       -5.118309   1.000000
   60       -5.001004   1.000000
   61       -4.926195   1.000000
   62       -4.888036   1.000000
   63       -4.767010   1.000000
   64       -4.649293   1.000000
   65       -4.595750   1.000000
   66       -4.506156   1.000000
   67       -4.455291   1.000000
   68       -4.421674   1.000000
   69       -4.329638   1.000000
   70       -4.286749   1.000000
   71       -4.242478   1.000000
   72       -4.208254   1.000000
   73       -4.141567   1.000000
   74       -4.079875   1.000000
   75       -4.029600   1.000000
   76       -3.888546   1.000000
   77       -3.825088   1.000000
   78       -3.814884   1.000000
   79       -3.763666   1.000000
   80       -3.722054   1.000000
   81       -3.686456   1.000000
   82       -3.602775   1.000000
   83       -3.529204   1.000000
   84       -3.487597   1.000000
   85       -3.420922   1.000000
   86       -3.383807   1.000000
   87       -3.305620   1.000000
   88       -3.230749   1.000000
   89       -3.153790   1.000000
   90       -3.139031   1.000000
   91       -3.060561   1.000000
   92       -2.994801   1.000000
   93       -2.924920   1.000000
   94       -2.880342   1.000000
   95       -2.836761   1.000000
   96       -2.732448   1.000000
   97       -2.649773   1.000000
   98       -2.569778   1.000000
   99       -2.489067   1.000000
  100       -2.382711   1.000000
  101       -2.329096   1.000000
  102       -2.309185   1.000000
  103       -2.207268   1.000000
  104       -2.182322   1.000000
  105       -2.159265   1.000000
  106       -2.104261   1.000000
  107       -2.071252   1.000000
  108       -1.987698   1.000000
  109       -1.957178   1.000000
  110       -1.877460   1.000000
  111       -1.789359   1.000000
  112       -1.682525   1.000000
  113       -1.665880   1.000000
  114       -1.528397   1.000000
  115       -1.399322   1.000000
  116       -1.331838   1.000000
  117       -1.279663   1.000000
  118       -1.128478   1.000000
  119       -1.052752   1.000000
  120       -1.014295   1.000000
  121       -0.917266   1.000000
  122       -0.726842   1.000000
  123       -0.645262   1.000000
  124       -0.533737   1.000000
  125       -0.423271   1.000002
  126       -0.392791   1.000006
  127       -0.253039   1.000359
  128       -0.190160   1.001560
  129       -0.153292   1.003315
  130       -0.085864   1.010557
  131        0.075322   1.032857
  132        0.133064   0.994020
  133        0.225367   0.780093
  134        0.277168   0.580366
  135        0.351748   0.274919
  136        0.410732   0.092768
  137        0.497293  -0.025656
  138        0.532249  -0.035130
  139        0.588925  -0.029251
  140        0.615064  -0.023342
  141        0.750150  -0.003046
  142        0.801612  -0.001027
  143        0.841379  -0.000399
  144        0.909641  -0.000064
  145        0.949238  -0.000020
  146        1.056539  -0.000001
  147        1.108945  -0.000000
  148        1.164003  -0.000000
  149        1.196958  -0.000000
  150        1.245740  -0.000000
  151        1.290679  -0.000000
  152        1.343438  -0.000000
  153        1.390444  -0.000000
  154        1.435439  -0.000000
  155        1.451221  -0.000000
  156        1.508704  -0.000000
  157        1.539490  -0.000000
  158        1.555272  -0.000000
  159        1.577119  -0.000000
  160        1.593950  -0.000000
  161        1.615865  -0.000000
  162        1.657757  -0.000000
  163        1.700245  -0.000000
  164        1.715240  -0.000000
  165        1.754832  -0.000000
  166        1.781978  -0.000000
  167        1.809393  -0.000000
  168        1.870673  -0.000000
  169        1.915929  -0.000000
  170        1.938624  -0.000000
  171        2.070040  -0.000000
  172        2.097732  -0.000000
  173        2.201284  -0.000000
  174        2.310216  -0.000000
  175        2.512096  -0.000000
  176        2.655874  -0.000000

  0.2000000E+00  0.1111111E+00  0.1262379E-14  0.4444444E-01
    1      -13.671714   1.000000
    2      -12.776438   1.000000
    3      -12.558833   1.000000
    4      -11.973584   1.000000
    5      -11.839527   1.000000
    6      -11.804380   1.000000
    7      -11.293620   1.000000
    8      -11.219487   1.000000
    9      -11.074553   1.000000
   10      -11.027599   1.000000
   11      -10.904208   1.000000
   12      -10.809760   1.000000
   13      -10.574908   1.000000
   14      -10.413602   1.000000
   15      -10.313147   1.000000
   16      -10.110099   1.000000
   17      -10.063346   1.000000
   18      -10.018355   1.000000
   19       -9.728354   1.000000
   20       -9.615516   1.000000
   21       -9.418349   1.000000
   22       -9.341786   1.000000
   23       -9.202285   1.000000
   24       -9.031889   1.000000
   25       -8.807346   1.000000
   26       -8.704854   1.000000
   27       -8.246411   1.000000
   28       -8.219819   1.000000
   29       -8.098674   1.000000
   30       -7.949793   1.000000
   31       -7.891236   1.000000
   32       -7.613614   1.000000
   33       -7.489393   1.000000
   34       -7.419298   1.000000
   35       -7.268385   1.000000
   36       -7.189790   1.000000
   37       -7.124693   1.000000
   38       -6.896385   1.000000
   39       -6.765316   1.000000
   40       -6.728870   1.000000
   41       -6.614327   1.000000
   42       -6.535312   1.000000
   43       -6.410879   1.000000
   44       -6.325328   1.000000
   45       -6.240421   1.000000
   46       -6.138546   1.000000
   47       -6.004839   1.000000
   48       -5.837817   1.000000
   49       -5.754516   1.000000
   50       -5.695790   1.000000
   51       -5.628670   1.000000
   52       -5.605884   1.000000
   53       -5.550049   1.000000
   54       -5.473133   1.000000
   55       -5.346487   1.000000
   56       -5.286322   1.000000
   57       -5.208983   1.000000
   58       -5.066585   1.000000
   59       -5.016807   1.000000
   60       -4.940817   1.000000
   61       -4.882460   1.000000
   62       -4.827240   1.000000
   63       -4.751033   1.000000
   64       -4.679046   1.000000
   65       -4.615282   1.000000
   66       -4.521331   1.000000
   67       -4.422921   1.000000
   68       -4.389148   1.000000
   69       -4.310062   1.000000
   70       -4.287046   1.000000
   71       -4.219213   1.000000
   72       -4.186336   1.000000
   73       -4.099691   1.000000
   74       -4.066623   1.000000
   75       -4.021343   1.000000
   76       -3.927453   1.000000
   77       -3.875362   1.000000
   78       -3.800284   1.000000
   79       -3.779577   1.000000
   80       -3.755891   1.000000
   81       -3.680120   1.000000
   82       -3.609453   1.000000
   83       -3.596611   1.000000
   84       -3.541865   1.000000
   85       -3.441680   1.000000
   86       -3.390764   1.000000
   87       -3.296921   1.000000
   88       -3.246527   1.000000
   89       -3.187623   1.000000
   90       -3.134037   1.000000
   91       -3.071801   1.000000
   92       -3.012077   1.000000
   93       -2.928949   1.000000
   94       -2.883910   1.000000
   95       -2.779905   1.000000
   96       -2.719337   1.000000
   97       -2.662901   1.000000
   98       -2.575492   1.000000
   99       -2.488427   1.000000
  100       -2.448837   1.000000
  101       -2.371221   1.000000
  102       -2.316406   1.000000
  103       -2.251510   1.000000
  104       -2.184796   1.000000
  105       -2.117747   1.000000
  106       -2.047796   1.000000
  107       -2.002166   1.000000
  108       -1.964466   1.000000
  109       -1.910896   1.000000
  110       -1.857935   1.000000
  111       -1.767338   1.000000
  112       -1.660321   1.000000
  113       -1.597238   1.000000
  114       -1.491644   1.000000
  115       -1.398496   1.000000
  116       -1.330382   1.000000
  117       -1.266827   1.000000
  118       -1.129337   1.000000
  119       -1.109155   1.000000
  120       -1.010151   1.000000
  121       -0.951654   1.000000
  122       -0.857476   1.000000
  123       -0.635909   1.000000
  124       -0.580646   1.000000
  125       -0.470666   1.000000
  126       -0.437711   1.000001
  127       -0.315459   1.000067
  128       -0.215383   1.000889
  129       -0.129783   1.005133
  130       -0.085491   1.010615
  131        0.055298   1.035395
  132        0.116533   1.011157
  133        0.201223   0.856155
  134        0.280754   0.565381
  135        0.321832   0.392757
  136        0.397134   0.127503
  137        0.474675  -0.010004
  138        0.511500  -0.031336
  139        0.625864  -0.020862
  140        0.681313  -0.010101
  141        0.728677  -0.004574
  142        0.826610  -0.000572
  143        0.851220  -0.000311
  144        0.943877  -0.000023
  145        1.030041  -0.000001
  146        1.069086  -0.000000
  147        1.125363  -0.000000
  148        1.179947  -0.000000
  149        1.215562  -0.000000
  150        1.268828  -0.000000
  151        1.334367  -0.000000
  152        1.366061  -0.000000
  153        1.410482  -0.000000
  154        1.444230  -0.000000
  155        1.480901  -0.000000
  156        1.514294  -0.000000
  157        1.563966  -0.000000
  158        1.574105  -0.000000
  159        1.594029  -0.000000
  160        1.612726  -0.000000
  161        1.635376  -0.000000
  162        1.669908  -0.000000
  163        1.687520  -0.000000
  164        1.720523  -0.000000
  165        1.769100  -0.000000
  166        1.805069  -0.000000
  167        1.869620  -0.000000
  168        1.884238  -0.000000
  169        1.959908  -0.000000
  170        2.006496  -0.000000
  171        2.078486  -0.000000
  172        2.121363  -0.000000
  173        2.249419  -0.000000
  174        2.383809  -0.000000
  175        2.449054  -0.000000
  176        4.019909  -0.000000

  0.4000000E+00  0.1111111E+00  0.1262379E-14  0.4444444E-01
    1      -13.616736   1.000000
    2      -12.980619   1.000000
    3      -12.465348   1.000000
    4      -12.158932   1.000000
    5      -11.806448   1.000000
    6      -11.436894   1.000000
    7      -11.329812   1.000000
    8      -11.219383   1.000000
    9      -10.952723   1.000000
   10      -10.930849   1.000000
   11      -10.831111   1.000000