   58   58    1    1
  0.1276512E+02  0.6042588E-09  0.6042559E-09  0.2341357E-08  0.5000000E-15
   1.0000000000000000E-004
  CAR 
 Name                                    
    200     41    132

  0.3742002E-15  0.3742002E-15  0.1262379E-14  0.1234568E-01
    1      -11.450236   1.000000
    2      -10.873612   1.000000
    3      -10.164010   1.000000
    4       -9.497110   1.000000
    5       -8.663126   1.000000
    6       -8.158831   1.000000
    7       -7.977502   1.000000
    8       -7.851237   1.000000
    9       -7.693469   1.000000
   10       -7.616871   1.000000
   11       -7.602376   1.000000
   12       -7.502803   1.000000
   13       -7.493013   1.000000
   14       -7.454316   1.000000
   15       -7.246767   1.000000
   16       -7.241715   1.000000
   17       -7.188304   1.000000
   18       -7.112575   1.000000
   19       -6.997394   1.000000
   20       -6.991349   1.000000
   21       -6.945945   1.000000
   22       -6.601865   1.000000
   23       -6.539342   1.000000
   24       -6.156355   1.000000
   25       -5.825631   1.000000
   26       -5.792806   1.000000
   27       -5.769648   1.000000
   28       -5.706098   1.000000
   29       -5.670120   1.000000
   30       -5.404959   1.000000
   31       -5.294222   1.000000
   32       -4.627388   1.000000
   33       -4.492786   1.000000
   34       -4.399581   1.000000
   35       -4.365187   1.000000
   36       -4.265157   1.000000
   37       -3.972369   1.000000
   38       -3.101984   1.000000
   39       -3.077963   1.000000
   40       -3.053802   1.000000
   41       -2.718577   1.000000
   42       -2.630721   1.000000
   43       -2.596061   1.000000
   44       -2.385088   1.000000
   45       -2.248696   1.000000
   46       -2.243531   1.000000
   47       -1.907346   1.000000
   48       -1.904315   1.000000
   49       -1.831617   1.000000
   50       -1.828560   1.000000
   51       -1.808643   1.000000
   52       -1.678667   1.000000
   53       -1.563044   1.000000
   54       -1.524898   1.000000
   55       -1.485090   1.000000
   56       -1.321527   1.000000
   57       -1.307051   1.000000
   58       -1.304101   1.000000
   59       -1.259785   1.000000
   60       -1.228068   1.000000
   61       -1.139092   1.000000
   62       -1.096979   1.000000
   63       -1.051272   1.000000
   64       -1.047994   1.000000
   65       -0.876778   1.000000
   66       -0.736686   1.000000
   67       -0.703037   1.000000
   68       -0.674151   1.000000
   69       -0.569172   1.000000
   70       -0.522859   1.000000
   71       -0.506209   1.000000
   72       -0.419169   1.000000
   73       -0.357745   1.000000
   74       -0.252754   1.000000
   75       -0.092748   1.000000
   76       -0.052253   1.000000
   77       -0.043920   1.000000
   78        0.071937   1.000000
   79        0.079815   1.000000
   80        0.250764   1.000000
   81        0.473575   1.000000
   82        0.536633   1.000000
   83        0.667355   1.000000
   84        0.923924   1.000000
   85        1.059279   1.000000
   86        1.400854   1.000000
   87        1.421724   1.000000
   88        1.499800   1.000000
   89        1.556094   1.000000
   90        1.610879   1.000000
   91        1.672272   1.000000
   92        1.713783   1.000000
   93        1.776967   1.000000
   94        1.787693   1.000000
   95        1.822565   1.000000
   96        1.904487   1.000002
   97        1.912193   1.000003
   98        2.212992   1.006333
   99        2.541763   0.826922
  100        2.881470  -0.035131
  101        2.935701  -0.025678
  102        2.998520  -0.012318
  103        3.112183  -0.001602
  104        3.146565  -0.000740
  105        3.204520  -0.000173
  106        3.356215  -0.000002
  107        3.435082  -0.000000
  108        3.519607  -0.000000
  109        3.637948  -0.000000
  110        3.671594  -0.000000
  111        3.764523  -0.000000
  112        3.777484  -0.000000
  113        3.880641  -0.000000
  114        3.890521  -0.000000
  115        3.940961  -0.000000
  116        3.981509  -0.000000
  117        4.003829  -0.000000
  118        4.104192  -0.000000
  119        4.157886  -0.000000
  120        4.249991  -0.000000
  121        4.270349  -0.000000
  122        4.418001  -0.000000
  123        4.464610  -0.000000
  124        4.816124  -0.000000
  125        5.099393  -0.000000
  126        5.386758  -0.000000
  127        6.046601  -0.000000
  128        6.188689  -0.000000
  129        6.256792  -0.000000
  130        6.341609  -0.000000
  131        6.432981  -0.000000
  132        6.628590  -0.000000

  0.1111111E+00  0.3867788E-15  0.1262378E-14  0.2469136E-01
    1      -11.393028   1.000000
    2      -10.820515   1.000000
    3      -10.119123   1.000000
    4       -9.459698   1.000000
    5       -8.626665   1.000000
    6       -8.226513   1.000000
    7       -8.192933   1.000000
    8       -8.055285   1.000000
    9       -8.000892   1.000000
   10       -7.815783   1.000000
   11       -7.791900   1.000000
   12       -7.663415   1.000000
   13       -7.633396   1.000000
   14       -7.523092   1.000000
   15       -7.406133   1.000000
   16       -7.131583   1.000000
   17       -7.027439   1.000000
   18       -6.947382   1.000000
   19       -6.917403   1.000000
   20       -6.679624   1.000000
   21       -6.634149   1.000000
   22       -6.540157   1.000000
   23       -6.343259   1.000000
   24       -6.029620   1.000000
   25       -5.873573   1.000000
   26       -5.826757   1.000000
   27       -5.746912   1.000000
   28       -5.684103   1.000000
   29       -5.454629   1.000000
   30       -5.292847   1.000000
   31       -5.224519   1.000000
   32       -4.440511   1.000000
   33       -4.426086   1.000000
   34       -4.294453   1.000000
   35       -4.211119   1.000000
   36       -4.188303   1.000000
   37       -3.862433   1.000000
   38       -3.096572   1.000000
   39       -3.088068   1.000000
   40       -3.008179   1.000000
   41       -2.735564   1.000000
   42       -2.699149   1.000000
   43       -2.649664   1.000000
   44       -2.451423   1.000000
   45       -2.299420   1.000000
   46       -2.279052   1.000000
   47       -2.154094   1.000000
   48       -2.023909   1.000000
   49       -1.864939   1.000000
   50       -1.841406   1.000000
   51       -1.779348   1.000000
   52       -1.710833   1.000000
   53       -1.631703   1.000000
   54       -1.542102   1.000000
   55       -1.497733   1.000000
   56       -1.460539   1.000000
   57       -1.366866   1.000000
   58       -1.303363   1.000000
   59       -1.257227   1.000000
   60       -1.223402   1.000000
   61       -1.181535   1.000000
   62       -1.126209   1.000000
   63       -1.049873   1.000000
   64       -0.989389   1.000000
   65       -0.941123   1.000000
   66       -0.878263   1.000000
   67       -0.741930   1.000000
   68       -0.718840   1.000000
   69       -0.607665   1.000000
   70       -0.533281   1.000000
   71       -0.463346   1.000000
   72       -0.455743   1.000000
   73       -0.349344   1.000000
   74       -0.235346   1.000000
   75       -0.133198   1.000000
   76       -0.071949   1.000000
   77        0.033669   1.000000
   78        0.060051   1.000000
   79        0.160178   1.000000
   80        0.225599   1.000000
   81        0.334592   1.000000
   82        0.413417   1.000000
   83        0.675783   1.000000
   84        0.807890   1.000000
   85        0.815945   1.000000
   86        1.213708   1.000000
   87        1.262262   1.000000
   88        1.452579   1.000000
   89        1.533360   1.000000
   90        1.597829   1.000000
   91        1.623125   1.000000
   92        1.656007   1.000000
   93        1.666270   1.000000
   94        1.786716   1.000000
   95        1.932847   1.000005
   96        1.992880   1.000035
   97        2.081884   1.000399
   98        2.368524   1.034815
   99        2.702740   0.203589
  100        2.834645  -0.028651
  101        2.915651  -0.030091
  102        2.969429  -0.018022
  103        3.026151  -0.008105
  104        3.077659  -0.003245
  105        3.195259  -0.000221
  106        3.454251  -0.000000
  107        3.501201  -0.000000
  108        3.624657  -0.000000
  109        3.654116  -0.000000
  110        3.674596  -0.000000
  111        3.741228  -0.000000
  112        3.798298  -0.000000
  113        3.830534  -0.000000
  114        3.850119  -0.000000
  115        3.871326  -0.000000
  116        3.907077  -0.000000
  117        3.955751  -0.000000
  118        3.974153  -0.000000
  119        4.008630  -0.000000
  120        4.099588  -0.000000
  121        4.144351  -0.000000
  122        4.249177  -0.000000
  123        4.315475  -0.000000
  124        4.397438  -0.000000
  125        4.554240  -0.000000
  126        4.833950  -0.000000
  127        4.909580  -0.000000
  128        5.113048  -0.000000
  129        6.211495  -0.000000
  130        6.329531  -0.000000
  131        6.480720  -0.000000
  132        6.686769  -0.000000

  0.2222222E+00  0.3825705E-15  0.1262378E-14  0.2469136E-01
    1      -11.223399   1.000000
    2      -10.663277   1.000000
    3       -9.987005   1.000000
    4       -9.349814   1.000000
    5       -8.867115   1.000000
    6       -8.573223   1.000000
    7       -8.519160   1.000000
    8       -8.413860   1.000000
    9       -8.094122   1.000000
   10       -8.055157   1.000000
   11       -7.937235   1.000000
   12       -7.913691   1.000000
   13       -7.800678   1.000000
   14       -7.760751   1.000000
   15       -7.631233   1.000000
   16       -7.191552   1.000000
   17       -6.997208   1.000000
   18       -6.880694   1.000000
   19       -6.561351   1.000000
   20       -6.541319   1.000000
   21       -6.318329   1.000000
   22       -6.303759   1.000000
   23       -5.880030   1.000000
   24       -5.840857   1.000000
   25       -5.675142   1.000000
   26       -5.622649   1.000000
   27       -5.550866   1.000000
   28       -5.389270   1.000000
   29       -5.036910   1.000000
   30       -5.018781   1.000000
   31       -4.979632   1.000000
   32       -4.244365   1.000000
   33       -4.205657   1.000000
   34       -4.132413   1.000000
   35       -4.002551   1.000000
   36       -3.710758   1.000000
   37       -3.517558   1.000000
   38       -3.138176   1.000000
   39       -3.121264   1.000000
   40       -2.987239   1.000000
   41       -2.927764   1.000000
   42       -2.846772   1.000000
   43       -2.835672   1.000000
   44       -2.655761   1.000000
   45       -2.630746   1.000000
   46       -2.425730   1.000000
   47       -2.277280   1.000000
   48       -2.156024   1.000000
   49       -1.971627   1.000000
   50       -1.914410   1.000000
   51       -1.886763   1.000000
   52       -1.798033   1.000000
   53       -1.732175   1.000000
   54       -1.613100   1.000000
   55       -1.562780   1.000000
   56       -1.508913   1.000000
   57       -1.462841   1.000000
   58       -1.415621   1.000000
   59       -1.362600   1.000000
   60       -1.333516   1.000000
   61       -1.248491   1.000000
   62       -1.208997   1.000000
   63       -1.166272   1.000000
   64       -1.102363   1.000000
   65       -0.965752   1.000000
   66       -0.954485   1.000000
   67       -0.893679   1.000000
   68       -0.786933   1.000000
   69       -0.771949   1.000000
   70       -0.692587   1.000000
   71       -0.559354   1.000000
   72       -0.479791   1.000000
   73       -0.371633   1.000000
   74       -0.255145   1.000000
   75       -0.207550   1.000000
   76       -0.061338   1.000000
   77       -0.014928   1.000000
   78        0.044175   1.000000
   79        0.091375   1.000000
   80        0.164062   1.000000
   81        0.262582   1.000000
   82        0.444726   1.000000
   83        0.561541   1.000000
   84        0.648553   1.000000
   85        0.792955   1.000000
   86        0.891191   1.000000
   87        1.009823   1.000000
   88        1.393596   1.000000
   89        1.417278   1.000000
   90        1.476360   1.000000
   91        1.567021   1.000000
   92        1.593895   1.000000
   93        1.628850   1.000000
   94        1.708148   1.000000
   95        2.027281   1.000094
   96        2.119406   1.000976
   97        2.150184   1.001913
   98        2.290011   1.019207
   99        2.540004   0.832340
  100        2.692011   0.240380
  101        2.863660  -0.035178
  102        3.028654  -0.007784
  103        3.230387  -0.000085
  104        3.282658  -0.000018
  105        3.358198  -0.000001
  106        3.459461  -0.000000
  107        3.495461  -0.000000
  108        3.527364  -0.000000
  109        3.548007  -0.000000
  110        3.585099  -0.000000
  111        3.644620  -0.000000
  112        3.734742  -0.000000
  113        3.799489  -0.000000
  114        3.805478  -0.000000
  115        3.837405  -0.000000
  116        3.855769  -0.000000
  117        3.880311  -0.000000
  118        3.934424  -0.000000
  119        4.051818  -0.000000
  120        4.083041  -0.000000
  121        4.112395  -0.000000
  122        4.158528  -0.000000
  123        4.206709  -0.000000
  124        4.264993  -0.000000
  125        4.398932  -0.000000
  126        4.481915  -0.000000
  127        4.557074  -0.000000
  128        4.714486  -0.000000
  129        4.880469  -0.000000
  130        5.010198  -0.000000
  131        6.208933  -0.000000
  132        6.555266  -0.000000

  0.3333333E+00  0.3885513E-15  0.1262378E-14  0.2469136E-01
    1      -10.948367   1.000000
    2      -10.408515   1.000000
    3       -9.776671   1.000000
    4       -9.493933   1.000000
    5       -9.170070   1.000000
    6       -9.093530   1.000000
    7       -8.768902   1.000000
    8       -8.336388   1.000000
    9       -8.231111   1.000000
   10       -8.182446   1.000000
   11       -8.162391   1.000000
   12       -8.074466   1.000000
   13       -8.015016   1.000000
   14       -7.915734   1.000000
   15       -7.671166   1.000000
   16       -7.292978   1.000000
   17       -7.219405   1.000000
   18       -7.084064   1.000000
   19       -6.369730   1.000000
   20       -6.361544   1.000000
   21       -5.891339   1.000000
   22       -5.878431   1.000000
   23       -5.673676   1.000000
   24       -5.633136   1.000000
   25       -5.619206   1.000000
   26       -5.303091   1.000000
   27       -4.867667   1.000000
   28       -4.748219   1.000000
   29       -4.686403   1.000000
   30       -4.637388   1.000000
   31       -4.380410   1.000000
   32       -4.025062   1.000000
   33       -3.934720   1.000000
   34       -3.922555   1.000000
   35       -3.752592   1.000000
   36       -3.560776   1.000000
   37       -3.428061   1.000000
   38       -3.346965   1.000000
   39       -3.308168   1.000000
   40       -3.253277   1.000000
   41       -3.219804   1.000000
   42       -3.178293   1.000000
   43       -2.930581   1.000000
   44       -2.702077   1.000000
   45       -2.517525   1.000000
   46       -2.455012   1.000000
   47       -2.405141   1.000000
   48       -2.198261   1.000000
   49       -2.126464   1.000000
   50       -2.106227   1.000000
   51       -2.054522   1.000000
   52       -1.938040   1.000000
   53       -1.842330   1.000000
   54       -1.776083   1.000000
   55       -1.761730   1.000000
   56       -1.684036   1.000000
   57       -1.602543   1.000000
   58       -1.570426   1.000000
   59       -1.459632   1.000000
   60       -1.437238   1.000000
   61       -1.411204   1.000000
   62       -1.306372   1.000000
   63       -1.297254   1.000000
   64       -1.269984   1.000000
   65       -1.172672   1.000000
   66       -1.155064   1.000000
   67       -0.907928   1.000000
   68       -0.862583   1.000000
   69       -0.836997   1.000000
   70       -0.702458   1.000000
   71       -0.642242   1.000000
   72       -0.546972   1.000000
   73       -0.455051   1.000000
   74       -0.355710   1.000000
   75       -0.241194   1.000000
   76       -0.120392   1.000000
   77       -0.090485   1.000000
   78       -0.018233   1.000000
   79        0.041063   1.000000
   80        0.117747   1.000000
   81        0.239186   1.000000
   82        0.357282   1.000000
   83        0.503512   1.000000
   84        0.626528   1.000000
   85        0.764525   1.000000
   86        0.914691   1.000000
   87        1.042642   1.000000
   88        1.236247   1.000000
   89        1.303660   1.000000
   90        1.390273   1.000000
   91        1.510265   1.000000
   92        1.535281   1.000000
   93        1.614227   1.000000
   94        1.693783   1.000000
   95        1.883396   1.000001
   96        2.084549   1.000426
   97        2.130792   1.001260
   98        2.316154   1.025182
   99        2.404079   1.033298
  100        2.540540   0.830695
  101        2.812746  -0.016060
  102        2.989472  -0.013962
  103        3.033294  -0.007213
  104        3.127508  -0.001145
  105        3.243575  -0.000058
  106        3.314643  -0.000007
  107        3.369135  -0.000001
  108        3.464022  -0.000000
  109        3.504907  -0.000000
  110        3.541602  -0.000000
  111        3.644118  -0.000000
  112        3.658725  -0.000000
  113        3.700155  -0.000000
  114        3.744030  -0.000000
  115        3.796003  -0.000000
  116        3.873634  -0.000000
  117        3.929049  -0.000000
  118        3.955972  -0.000000
  119        4.011757  -0.000000
  120        4.082826  -0.000000
  121        4.143548  -0.000000
  122        4.190697  -0.000000
  123        4.221112  -0.000000
  124        4.239965  -0.000000
  125        4.401390  -0.000000
  126        4.442052  -0.000000
  127        4.461869  -0.000000
  128        4.571615  -0.000000
  129        4.637756  -0.000000
  130        4.880546  -0.000000
  131        4.942709  -0.000000
  132        5.167195  -0.000000

  0.4444444E+00  0.3777319E-15  0.1262376E-14  0.2469136E-01
    1      -10.595284   1.000000
    2      -10.086417   1.000000
    3      -10.004443   1.000000
    4       -9.630595   1.000000
    5       -9.459462   1.000000
    6       -9.146108   1.000000
    7       -8.884015   1.000000
    8       -8.563038   1.000000
    9       -8.323736   1.000000
   10       -8.233247   1.000000
   11       -8.195294   1.000000
   12       -8.059219   1.000000
   13       -8.006089   1.000000
   14       -7.981214   1.000000
   15       -7.696398   1.000000
   16       -7.675894   1.000000
   17       -7.214182   1.000000
   18       -7.156792   1.000000
   19       -6.333125   1.000000
   20       -6.312589   1.000000
   21       -5.677914   1.000000
   22       -5.547024   1.000000
   23       -5.508615   1.000000
   24       -5.375748   1.000000
   25       -5.321438   1.000000
   26       -5.111011   1.000000
   27       -4.457679   1.000000
   28       -4.369458   1.000000
   29       -4.109909   1.000000
   30       -4.053487   1.000000
   31       -3.957971   1.000000
   32       -3.911397   1.000000
   33       -3.884688   1.000000
   34       -3.804628   1.000000
   35       -3.719547   1.000000
   36       -3.637877   1.000000
   37       -3.596516   1.000000
   38       -3.557387   1.000000
   39       -3.540245   1.000000
   40       -3.449959   1.000000
   41       -3.386484   1.000000
   42       -3.262367   1.000000
   43       -3.134071   1.000000
   44       -2.931859   1.000000
   45       -2.801949   1.000000
   46       -2.499736   1.000000
   47       -2.363988   1.000000
   48       -2.239434   1.000000
   49       -2.160069   1.000000
   50       -2.140521   1.000000
   51       -2.068715   1.000000
   52       -1.973280   1.000000
   53       -1.914967   1.000000
   54       -1.892785   1.000000
   55       -1.822671   1.000000
   56       -1.770171   1.000000
   57       -1.740194   1.000000
   58       -1.622999   1.000000
   59       -1.545766   1.000000
   60       -1.538581   1.000000
   61       -1.491681   1.000000
   62       -1.366482   1.000000
   63       -1.346650   1.000000
   64       -1.328925   1.000000
   65       -1.289981   1.000000
   66       -1.204919   1.000000
   67       -1.178169   1.000000
   68       -1.029668   1.000000
   69       -0.915095   1.000000
   70       -0.742352   1.000000
   71       -0.667043   1.000000
   72       -0.571317   1.000000
   73       -0.448281   1.000000
   74       -0.365205   1.000000
   75       -0.225959   1.000000
   76       -0.168889   1.000000
   77       -0.086477   1.000000
   78       -0.044811   1.000000
   79       -0.002241   1.000000
   80        0.097276   1.000000
   81        0.143268   1.000000
   82        0.335008   1.000000
   83        0.499840   1.000000
   84        0.521465   1.000000
   85        0.798232   1.000000
   86        0.957549   1.000000
   87        1.086229   1.000000
   88        1.195189   1.000000
   89        1.236794   1.000000
   90        1.371520   1.000000
   91        1.389803   1.000000
   92        1.495769   1.000000
   93        1.632117   1.000000
   94        1.740364   1.000000
   95        1.953501   1.000010
   96        2.024058   1.000086
   97        2.100663   1.000630
   98        2.362808   1.034210
   99        2.403612   1.033394
  100        2.539560   0.833694
  101        2.589562   0.655394
  102        2.744510   0.085660
  103        2.803646  -0.008380
  104        3.026308  -0.008085
  105        3.050099  -0.005409
  106        3.186894  -0.000274
  107        3.276520  -0.000022
  108        3.419049  -0.000000
  109        3.441997  -0.000000
  110        3.481234  -0.000000
  111        3.508854  -0.000000
  112        3.596132  -0.000000
  113        3.626239  -0.000000
  114        3.672900  -0.000000
  115        3.760114  -0.000000
  116        3.853302  -0.000000
  117        3.886602  -0.000000
  118        3.944304  -0.000000
  119        3.976543  -0.000000
  120        4.086243  -0.000000
  121        4.186373  -0.000000
  122        4.275259  -0.000000
  123        4.336172  -0.000000
  124        4.375220  -0.000000
  125        4.402329  -0.000000
  126        4.440590  -0.000000
  127        4.593665  -0.000000
  128        4.724500  -0.000000
  129        4.769721  -0.000000
  130        4.879494  -0.000000
  131        5.029654  -0.000000
  132        5.352896  -0.000000

  0.3742002E-15  0.1111111E+00  0.1262378E-14  0.2469136E-01
    1      -11.393028   1.000000
    2      -10.820516   1.000000
    3      -10.119129   1.000000
    4       -9.459707   1.000000
    5       -8.626666   1.000000
    6       -8.226504   1.000000
    7       -8.192896   1.000000
    8       -8.055262   1.000000
    9       -8.000917   1.000000
   10       -7.815821   1.000000
   11       -7.791924   1.000000
   12       -7.663454   1.000000
   13       -7.633444   1.000000
   14       -7.523090   1.000000
   15       -7.405637   1.000000
   16       -7.131496   1.000000
   17       -7.027706   1.000000
   18       -6.947396   1.000000
   19       -6.917685   1.000000
   20       -6.679735   1.000000
   21       -6.633987   1.000000
   22       -6.540191   1.000000
   23       -6.343221   1.000000
   24       -6.029606   1.000000
   25       -5.873451   1.000000
   26       -5.826798   1.000000
   27       -5.746990   1.000000
   28       -5.684164   1.000000
   29       -5.454602   1.000000
   30       -5.292938   1.000000
   31       -5.224561   1.000000
   32       -4.440364   1.000000
   33       -4.426094   1.000000
   34       -4.295249   1.000000
   35       -4.209891   1.000000
   36       -4.188336   1.000000
   37       -3.862722   1.000000
   38       -3.096585   1.000000
   39       -3.088069   1.000000
   40       -3.008154   1.000000
   41       -2.735580   1.000000
   42       -2.699070   1.000000
   43       -2.649715   1.000000
   44       -2.451372   1.000000
   45       -2.299523   1.000000
   46       -2.279147   1.000000
   47       -2.154046   1.000000
   48       -2.023824   1.000000
   49       -1.864816   1.000000
   50       -1.841297   1.000000
   51       -1.779264   1.000000
   52       -1.710987   1.000000
   53       -1.631938   1.000000
   54       -1.542149   1.000000
   55       -1.497691   1.000000
   56       -1.460599   1.000000
   57       -1.366900   1.000000
   58       -1.303356   1.000000
   59       -1.257202   1.000000
   60       -1.223393   1.000000
   61       -1.181581   1.000000
   62       -1.126179   1.000000
   63       -1.049850   1.000000
   64       -0.989613   1.000000
   65       -0.940880   1.000000
   66       -0.878390   1.000000
   67       -0.741932   1.000000
   68       -0.718696   1.000000
   69       -0.607542   1.000000
   70       -0.533125   1.000000
   71       -0.463531   1.000000
   72       -0.455339   1.000000
   73       -0.349840   1.000000
   74       -0.235404   1.000000
   75       -0.133235   1.000000
   76       -0.071938   1.000000
   77        0.033619   1.000000
   78        0.060496   1.000000
   79        0.160163   1.000000
   80        0.225623   1.000000
   81        0.334427   1.000000
   82        0.413163   1.000000
   83        0.675477   1.000000
   84        0.808422   1.000000
   85        0.815952   1.000000
   86        1.213625   1.000000
   87        1.262296   1.000000
   88        1.452444   1.000000
   89        1.533416   1.000000
   90        1.597921   1.000000
   91        1.622990   1.000000
   92        1.655833   1.000000
   93        1.666124   1.000000
   94        1.786958   1.000000
   95        1.932783   1.000005
   96        1.992922   1.000035
   97        2.081861   1.000398
   98        2.368490   1.034812
   99        2.702853   0.203212
  100        2.834625  -0.028643
  101        2.915449  -0.030132
  102        2.969434  -0.018021
  103        3.026104  -0.008112
  104        3.077967  -0.003225
  105        3.195269  -0.000221
  106        3.454394  -0.000000
  107        3.501250  -0.000000
  108        3.624463  -0.000000
  109        3.654212  -0.000000
  110        3.674731  -0.000000
  111        3.741665  -0.000000
  112        3.798009  -0.000000
  113        3.825267  -0.000000
  114        3.846074  -0.000000
  115        3.870876  -0.000000
  116        3.903761  -0.000000
  117        3.953790  -0.000000
  118        3.962045  -0.000000
  119        4.002894  -0.000000
  120        4.104464  -0.000000
  121        4.152370  -0.000000
  122        4.185099  -0.000000
  123        4.266798  -0.000000
  124        4.360111  -0.000000
  125        4.602511  -0.000000
  126        4.647954  -0.000000
  127        4.863907  -0.000000
  128        5.283537  -0.000000
  129        6.192317  -0.000000
  130        6.342361  -0.000000
  131        6.509496  -0.000000
  132        6.651989  -0.000000

  0.1111111E+00  0.1111111E+00  0.1262378E-14  0.2469136E-01
    1      -11.280106   1.000000
    2      -10.715123   1.000000
    3      -10.029439   1.000000
    4       -9.385519   1.000000
    5       -8.599548   1.000000
    6       -8.549609   1.000000
    7       -8.380674   1.000000
    8       -8.331118   1.000000
    9       -8.298593   1.000000
   10       -8.131301   1.000000
   11       -8.109134   1.000000
   12       -7.709759   1.000000
   13       -7.569320   1.000000
   14       -7.507457   1.000000
   15       -7.422231   1.000000
   16       -7.226457   1.000000
   17       -7.181917   1.000000
   18       -6.838078   1.000000
   19       -6.710667   1.000000
   20       -6.598407   1.000000
   21       -6.505671   1.000000
   22       -6.182988   1.000000
   23       -5.916304   1.000000
   24       -5.851401   1.000000
   25       -5.835787   1.000000
   26       -5.660395   1.000000
   27       -5.610533   1.000000
   28       -5.469151   1.000000
   29       -5.291146   1.000000
   30       -5.189476   1.000000
   31       -5.091799   1.000000
   32       -4.520917   1.000000
   33       -4.123726   1.000000
   34       -4.041976   1.000000
   35       -3.941516   1.000000
   36       -3.905197   1.000000
   37       -3.674890   1.000000
   38       -3.160839   1.000000
   39       -3.087609   1.000000
   40       -2.981604   1.000000
   41       -2.924367   1.000000
   42       -2.814801   1.000000
   43       -2.732696   1.000000
   44       -2.630662   1.000000
   45       -2.371239   1.000000
   46       -2.331010   1.000000
   47       -2.175667   1.000000
   48       -2.101842   1.000000
   49       -2.060797   1.000000
   50       -1.882944   1.000000
   51       -1.840029   1.000000
   52       -1.768725   1.000000
   53       -1.695940   1.000000
   54       -1.650396   1.000000
   55       -1.493906   1.000000
   56       -1.456504   1.000000
   57       -1.438763   1.000000
   58       -1.430157   1.000000
   59       -1.388331   1.000000
   60       -1.334943   1.000000
   61       -1.190658   1.000000
   62       -1.133268   1.000000
   63       -1.084473   1.000000
   64       -1.059590   1.000000
   65       -1.033857   1.000000
   66       -0.979990   1.000000
   67       -0.940533   1.000000
   68       -0.828582   1.000000
   69       -0.644508   1.000000
   70       -0.564999   1.000000
   71       -0.498729   1.000000
   72       -0.454957   1.000000
   73       -0.407819   1.000000
   74       -0.319384   1.000000
   75       -0.230040   1.000000
   76       -0.044640   1.000000
   77        0.021951   1.000000
   78        0.127543   1.000000
   79        0.181780   1.000000
   80        0.254609   1.000000
   81        0.287531   1.000000
   82        0.493678   1.000000
   83        0.561039   1.000000
   84        0.600496   1.000000
   85        0.733728   1.000000
   86        0.804147   1.000000
   87        1.145918   1.000000
   88        1.486127   1.000000
   89        1.509425   1.000000
   90        1.534843   1.000000
   91        1.566054   1.000000
   92        1.628093   1.000000
   93        1.678627   1.000000
   94        1.717413   1.000000
   95        1.950959   1.000010
   96        1.970150   1.000017
   97        2.180785   1.003534
   98        2.365800   1.034549