 running on   54 total cores
 distrk:  each k-point on   54 cores,    1 groups
 distr:  one band on    9 cores,    6 groups
 using from now: INCAR     
 vasp.5.4.4.18Apr17-6-g9f103f2a35 (build Dec  7 2020 12:43:57) complex           
 POSCAR found type information on POSCAR  Mo V  B  H 
 POSCAR found :  4 types and      58 ions
 scaLAPACK will be used

 ----------------------------------------------------------------------------- 
|                                                                             |
|  ADVICE TO THIS USER RUNNING 'VASP/VAMP'   (HEAR YOUR MASTER'S VOICE ...):  |
|                                                                             |
|      You enforced a specific xc-type in the INCAR file,                     |
|      a different type was found on the POTCAR file                          |
|          I HOPE YOU KNOW, WHAT YOU ARE  DOING                               |
|                                                                             |
 ----------------------------------------------------------------------------- 

 LDA part: xc-table for Pade appr. of Perdew
 POSCAR, INCAR and KPOINTS ok, starting setup
 resort distribution
 resort distribution
 resort distribution
 resort distribution
 resort distribution
 resort distribution
 resort distribution
 resort distribution
 resort distribution
 resort distribution
 resort distribution
 resort distribution
 resort distribution
 resort distribution
 resort distribution
 resort distribution
 resort distribution
 resort distribution
 resort distribution
 resort distribution
 resort distribution
 resort distribution
 resort distribution
 resort distribution
 resort distribution
 resort distribution
 resort distribution
 resort distribution
 resort distribution
 resort distribution
 resort distribution
 resort distribution
 resort distribution
 resort distribution
 resort distribution
 resort distribution
 resort distribution
 resort distribution
 resort distribution
 resort distribution
 resort distribution
 resort distribution
 resort distribution
 resort distribution
 resort distribution
 resort distribution
 resort distribution
 resort distribution
 resort distribution
 resort distribution
 resort distribution
 resort distribution
 resort distribution
 resort distribution
 FFT: planning ...
 WAVECAR not read
 augmentation electrons   200.01961666988490     
 soft         electrons   0.0000000000000000     
 augmentation electrons   200.01961666988490     
 soft         electrons   0.0000000000000000     
 augmentation electrons   200.01961666988490     
 soft         electrons   0.0000000000000000     
 augmentation electrons   200.01961666988490     
 soft         electrons   0.0000000000000000     
 augmentation electrons   200.01961666988490     
 soft         electrons   0.0000000000000000     
 augmentation electrons   200.01961666988490     
 soft         electrons   0.0000000000000000     
 augmentation electrons   200.01961666988490     
 soft         electrons   0.0000000000000000     
 augmentation electrons   200.01961666988490     
 soft         electrons   0.0000000000000000     
 augmentation electrons   200.01961666988490     
 augmentation electrons   200.01961666988490     
 soft         electrons   0.0000000000000000     
 augmentation electrons   200.01961666988490     
 soft         electrons   0.0000000000000000     
 augmentation electrons   200.01961666988490     
 soft         electrons   0.0000000000000000     
 augmentation electrons   200.01961666988490     
 soft         electrons   0.0000000000000000     
 augmentation electrons   200.01961666988490     
 soft         electrons   0.0000000000000000     
 augmentation electrons   200.01961666988490     
 soft         electrons   0.0000000000000000     
 augmentation electrons   200.01961666988490     
 soft         electrons   0.0000000000000000     
 augmentation electrons   200.01961666988490     
 augmentation electrons   200.01961666988490     
 soft         electrons   0.0000000000000000     
 augmentation electrons   200.01961666988490     
 soft         electrons   0.0000000000000000     
 augmentation electrons   200.01961666988490     
 soft         electrons   0.0000000000000000     
 augmentation electrons   200.01961666988490     
 augmentation electrons   200.01961666988490     
 soft         electrons   0.0000000000000000     
 augmentation electrons   200.01961666988490     
 soft         electrons   0.0000000000000000     
 augmentation electrons   200.01961666988490     
 soft         electrons   0.0000000000000000     
 augmentation electrons   200.01961666988490     
 soft         electrons   0.0000000000000000     
 augmentation electrons   200.01961666988490     
 soft         electrons   0.0000000000000000     
 augmentation electrons   200.01961666988490     
 augmentation electrons   200.01961666988490     
 soft         electrons   0.0000000000000000     
 soft         electrons   0.0000000000000000     
 augmentation electrons   200.01961666988490     
 soft         electrons   0.0000000000000000     
 augmentation electrons   200.01961666988490     
 soft         electrons   0.0000000000000000     
 augmentation electrons   200.01961666988490     
 soft         electrons   0.0000000000000000     
 augmentation electrons   200.01961666988490     
 soft         electrons   0.0000000000000000     
 augmentation electrons   200.01961666988490     
 soft         electrons   0.0000000000000000     
 augmentation electrons   200.01961666988490     
 soft         electrons   0.0000000000000000     
 augmentation electrons   200.01961666988490     
 soft         electrons   0.0000000000000000     
 augmentation electrons   200.01961666988490     
 soft         electrons   0.0000000000000000     
 augmentation electrons   200.01961666988490     
 soft         electrons   0.0000000000000000     
 augmentation electrons   200.01961666988490     
 soft         electrons   0.0000000000000000     
 augmentation electrons   200.01961666988490     
 soft         electrons   0.0000000000000000     
 augmentation electrons   200.01961666988490     
 soft         electrons   0.0000000000000000     
 augmentation electrons   200.01961666988490     
 soft         electrons   0.0000000000000000     
 soft         electrons   0.0000000000000000     
 augmentation electrons   200.01961666988490     
 soft         electrons   0.0000000000000000     
 augmentation electrons   200.01961666988490     
 soft         electrons   0.0000000000000000     
 augmentation electrons   200.01961666988490     
 soft         electrons   0.0000000000000000     
 soft         electrons   0.0000000000000000     
 augmentation electrons   200.01961666988490     
 soft         electrons   0.0000000000000000     
 augmentation electrons   200.01961666988490     
 soft         electrons   0.0000000000000000     
 augmentation electrons   200.01961666988490     
 soft         electrons   0.0000000000000000     
 augmentation electrons   200.01961666988490     
 soft         electrons   0.0000000000000000     
 soft         electrons   0.0000000000000000     
 augmentation electrons   200.01961666988490     
 soft         electrons   0.0000000000000000     
 augmentation electrons   200.01961666988490     
 soft         electrons   0.0000000000000000     
 augmentation electrons   200.01961666988490     
 soft         electrons   0.0000000000000000     
 augmentation electrons   200.01961666988490     
 soft         electrons   0.0000000000000000     
 augmentation electrons   200.01961666988490     
 soft         electrons   0.0000000000000000     
 augmentation electrons   200.01961666988490     
 soft         electrons   0.0000000000000000     
 total        electrons   200.01961666988490     
 total        electrons   200.01961666988490     
 total        electrons   200.01961666988490     
 total        electrons   200.01961666988490     
 total        electrons   200.01961666988490     
 total        electrons   200.01961666988490     
 total        electrons   200.01961666988490     
 total        electrons   200.01961666988490     
 total        electrons   200.01961666988490     
 total        electrons   200.01961666988490     
 total        electrons   200.01961666988490     
 total        electrons   200.01961666988490     
 total        electrons   200.01961666988490     
 total        electrons   200.01961666988490     
 total        electrons   200.01961666988490     
 total        electrons   200.01961666988490     
 total        electrons   200.01961666988490     
 total        electrons   200.01961666988490     
 total        electrons   200.01961666988490     
 total        electrons   200.01961666988490     
 total        electrons   200.01961666988490     
 total        electrons   200.01961666988490     
 total        electrons   200.01961666988490     
 total        electrons   200.01961666988490     
 total        electrons   200.01961666988490     
 total        electrons   200.01961666988490     
 total        electrons   200.01961666988490     
 total        electrons   200.01961666988490     
 total        electrons   200.01961666988490     
 total        electrons   200.01961666988490     
 total        electrons   200.01961666988490     
 total        electrons   200.01961666988490     
 total        electrons   200.01961666988490     
 total        electrons   200.01961666988490     
 total        electrons   200.01961666988490     
 total        electrons   200.01961666988490     
 total        electrons   200.01961666988490     
 total        electrons   200.01961666988490     
 total        electrons   200.01961666988490     
 total        electrons   200.01961666988490     
 total        electrons   200.01961666988490     
 total        electrons   200.01961666988490     
 total        electrons   200.01961666988490     
 total        electrons   200.01961666988490     
 total        electrons   200.01961666988490     
 total        electrons   200.01961666988490     
 total        electrons   200.01961666988490     
 total        electrons   200.01961666988490     
 total        electrons   200.01961666988490     
 total        electrons   200.01961666988490     
 total        electrons   200.01961666988490     
 total        electrons   200.01961666988490     
 total        electrons   200.01961666988490     
 total        electrons   200.01961666988490     
 augmentation electrons   556.95117846320568     
 soft         electrons   0.0000000000000000     
 total        electrons   556.95117846320568     
 augmentation electrons   556.95117846320568     
 soft         electrons   0.0000000000000000     
 total        electrons   556.95117846320568     
 augmentation electrons   556.95117846320568     
 soft         electrons   0.0000000000000000     
 augmentation electrons   556.95117846320568     
 soft         electrons   0.0000000000000000     
 total        electrons   556.95117846320568     
 augmentation electrons   556.95117846320568     
 soft         electrons   0.0000000000000000     
 total        electrons   556.95117846320568     
 augmentation electrons   556.95117846320568     
 soft         electrons   0.0000000000000000     
 total        electrons   556.95117846320568     
 augmentation electrons   556.95117846320568     
 soft         electrons   0.0000000000000000     
 total        electrons   556.95117846320568     
 augmentation electrons   556.95117846320568     
 soft         electrons   0.0000000000000000     
 total        electrons   556.95117846320568     
 augmentation electrons   556.95117846320568     
 soft         electrons   0.0000000000000000     
 total        electrons   556.95117846320568     
 augmentation electrons   556.95117846320568     
 soft         electrons   0.0000000000000000     
 total        electrons   556.95117846320568     
 augmentation electrons   556.95117846320568     
 soft         electrons   0.0000000000000000     
 total        electrons   556.95117846320568     
 augmentation electrons   556.95117846320568     
 soft         electrons   0.0000000000000000     
 total        electrons   556.95117846320568     
 augmentation electrons   556.95117846320568     
 soft         electrons   0.0000000000000000     
 total        electrons   556.95117846320568     
 augmentation electrons   556.95117846320568     
 soft         electrons   0.0000000000000000     
 total        electrons   556.95117846320568     
 augmentation electrons   556.95117846320568     
 soft         electrons   0.0000000000000000     
 total        electrons   556.95117846320568     
 augmentation electrons   556.95117846320568     
 soft         electrons   0.0000000000000000     
 total        electrons   556.95117846320568     
 augmentation electrons   556.95117846320568     
 soft         electrons   0.0000000000000000     
 total        electrons   556.95117846320568     
 augmentation electrons   556.95117846320568     
 soft         electrons   0.0000000000000000     
 total        electrons   556.95117846320568     
 augmentation electrons   556.95117846320568     
 soft         electrons   0.0000000000000000     
 total        electrons   556.95117846320568     
 augmentation electrons   556.95117846320568     
 soft         electrons   0.0000000000000000     
 total        electrons   556.95117846320568     
 augmentation electrons   556.95117846320568     
 soft         electrons   0.0000000000000000     
 total        electrons   556.95117846320568     
 augmentation electrons   556.95117846320568     
 soft         electrons   0.0000000000000000     
 total        electrons   556.95117846320568     
 augmentation electrons   556.95117846320568     
 soft         electrons   0.0000000000000000     
 total        electrons   556.95117846320568     
 augmentation electrons   556.95117846320568     
 soft         electrons   0.0000000000000000     
 total        electrons   556.95117846320568     
 augmentation electrons   556.95117846320568     
 soft         electrons   0.0000000000000000     
 total        electrons   556.95117846320568     
 augmentation electrons   556.95117846320568     
 soft         electrons   0.0000000000000000     
 total        electrons   556.95117846320568     
 augmentation electrons   556.95117846320568     
 soft         electrons   0.0000000000000000     
 total        electrons   556.95117846320568     
 augmentation electrons   556.95117846320568     
 soft         electrons   0.0000000000000000     
 total        electrons   556.95117846320568     
 augmentation electrons   556.95117846320568     
 soft         electrons   0.0000000000000000     
 total        electrons   556.95117846320568     
 augmentation electrons   556.95117846320568     
 soft         electrons   0.0000000000000000     
 total        electrons   556.95117846320568     
 augmentation electrons   556.95117846320568     
 soft         electrons   0.0000000000000000     
 total        electrons   556.95117846320568     
 augmentation electrons   556.95117846320568     
 soft         electrons   0.0000000000000000     
 total        electrons   556.95117846320568     
 augmentation electrons   556.95117846320568     
 soft         electrons   0.0000000000000000     
 total        electrons   556.95117846320568     
 augmentation electrons   556.95117846320568     
 soft         electrons   0.0000000000000000     
 total        electrons   556.95117846320568     
 augmentation electrons   556.95117846320568     
 soft         electrons   0.0000000000000000     
 total        electrons   556.95117846320568     
 augmentation electrons   556.95117846320568     
 soft         electrons   0.0000000000000000     
 total        electrons   556.95117846320568     
 augmentation electrons   556.95117846320568     
 soft         electrons   0.0000000000000000     
 total        electrons   556.95117846320568     
 augmentation electrons   556.95117846320568     
 soft         electrons   0.0000000000000000     
 total        electrons   556.95117846320568     
 augmentation electrons   556.95117846320568     
 soft         electrons   0.0000000000000000     
 total        electrons   556.95117846320568     
 augmentation electrons   556.95117846320568     
 soft         electrons   0.0000000000000000     
 total        electrons   556.95117846320568     
 augmentation electrons   556.95117846320568     
 soft         electrons   0.0000000000000000     
 total        electrons   556.95117846320568     
 augmentation electrons   556.95117846320568     
 soft         electrons   0.0000000000000000     
 total        electrons   556.95117846320568     
 augmentation electrons   556.95117846320568     
 soft         electrons   0.0000000000000000     
 total        electrons   556.95117846320568     
 augmentation electrons   556.95117846320568     
 soft         electrons   0.0000000000000000     
 total        electrons   556.95117846320568     
 augmentation electrons   556.95117846320568     
 soft         electrons   0.0000000000000000     
 total        electrons   556.95117846320568     
 augmentation electrons   556.95117846320568     
 soft         electrons   0.0000000000000000     
 total        electrons   556.95117846320568     
 augmentation electrons   556.95117846320568     
 soft         electrons   0.0000000000000000     
 total        electrons   556.95117846320568     
 augmentation electrons   556.95117846320568     
 soft         electrons   0.0000000000000000     
 total        electrons   556.95117846320568     
 augmentation electrons   556.95117846320568     
 soft         electrons   0.0000000000000000     
 total        electrons   556.95117846320568     
 augmentation electrons   556.95117846320568     
 soft         electrons   0.0000000000000000     
 total        electrons   556.95117846320568     
 augmentation electrons   556.95117846320568     
 soft         electrons   0.0000000000000000     
 total        electrons   556.95117846320568     
 augmentation electrons   556.95117846320568     
 soft         electrons   0.0000000000000000     
 total        electrons   556.95117846320568     
 augmentation electrons   556.95117846320568     
 soft         electrons   0.0000000000000000     
 total        electrons   556.95117846320568     
 augmentation electrons   556.95117846320568     
 soft         electrons   0.0000000000000000     
 total        electrons   556.95117846320568     
 total        electrons   556.95117846320568     
 entering main loop
       N       E                     dE             d eps       ncg     rms          rms(c)
DAV:   1     0.203409962218E+04    0.20341E+04   -0.72326E+04 10824   0.137E+03
DAV:   2    -0.279313311921E+02   -0.20620E+04   -0.19006E+04 11280   0.364E+02
DAV:   3    -0.464008661824E+03   -0.43608E+03   -0.41716E+03 15204   0.173E+02
DAV:   4    -0.500726909311E+03   -0.36718E+02   -0.35842E+02 17700   0.582E+01
DAV:   5    -0.502054470795E+03   -0.13276E+01   -0.13015E+01 18072   0.126E+01    0.109E+02
RMM:   6    -0.485499504157E+03    0.16555E+02   -0.10046E+03 14547   0.113E+02    0.721E+01
RMM:   7    -0.514930723149E+03   -0.29431E+02   -0.39189E+02 12054   0.895E+01    0.427E+01
RMM:   8    -0.465315564032E+03    0.49615E+02   -0.95981E+01 14597   0.327E+01    0.330E+01
RMM:   9    -0.444605639445E+03    0.20710E+02   -0.32869E+01 13260   0.224E+01    0.277E+01
RMM:  10    -0.423483692257E+03    0.21122E+02   -0.16720E+01 12294   0.160E+01    0.191E+01
RMM:  11    -0.418370898483E+03    0.51128E+01   -0.10899E+01 16007   0.777E+00    0.150E+01
RMM:  12    -0.418406697724E+03   -0.35799E-01   -0.91309E-01 15800   0.253E+00    0.139E+01
RMM:  13    -0.418235514381E+03    0.17118E+00   -0.16647E-01 14665   0.109E+00    0.130E+01
RMM:  14    -0.417069573226E+03    0.11659E+01   -0.27448E+00 12425   0.658E+00    0.638E+00
RMM:  15    -0.416659917307E+03    0.40966E+00   -0.22956E+00 13905   0.489E+00    0.277E+00
RMM:  16    -0.416636657979E+03    0.23259E-01   -0.61752E-01 15510   0.195E+00    0.194E+00
RMM:  17    -0.416642758400E+03   -0.61004E-02   -0.22120E-01 13553   0.165E+00    0.228E+00
RMM:  18    -0.416595342789E+03    0.47416E-01   -0.11538E-01 13554   0.124E+00    0.140E+00
RMM:  19    -0.416578253217E+03    0.17090E-01   -0.76511E-02 15803   0.565E-01    0.612E-01
RMM:  20    -0.416576298995E+03    0.19542E-02   -0.16455E-02 14013   0.389E-01    0.580E-01
RMM:  21    -0.416571243151E+03    0.50558E-02   -0.16048E-02 15001   0.384E-01    0.268E-01
RMM:  22    -0.416569683551E+03    0.15596E-02   -0.54530E-03 15835   0.177E-01    0.170E-01
RMM:  23    -0.416569397768E+03    0.28578E-03   -0.36999E-03 13310   0.218E-01    0.230E-01
RMM:  24    -0.416569109436E+03    0.28833E-03   -0.29732E-03 15326   0.159E-01    0.122E-01
RMM:  25    -0.416569415714E+03   -0.30628E-03   -0.12313E-03 13360   0.126E-01    0.105E-01
RMM:  26    -0.416570121556E+03   -0.70584E-03   -0.98640E-04 14294   0.983E-02    0.661E-02
RMM:  27    -0.416571264622E+03   -0.11431E-02   -0.63154E-04 15584   0.569E-02    0.572E-02
RMM:  28    -0.416572408958E+03   -0.11443E-02   -0.32682E-04 13858   0.527E-02    0.415E-02
RMM:  29    -0.416572571202E+03   -0.16224E-03   -0.10725E-04 14777   0.275E-02    0.279E-02
RMM:  30    -0.416572763679E+03   -0.19248E-03   -0.39563E-05 14241   0.179E-02    0.167E-02
RMM:  31    -0.416573000959E+03   -0.23728E-03   -0.46999E-05 13076   0.231E-02    0.180E-02
RMM:  32    -0.416573060295E+03   -0.59336E-04   -0.15929E-05 12112   0.132E-02    0.481E-03
RMM:  33    -0.416573109222E+03   -0.48927E-04   -0.10841E-05 11769   0.882E-03    0.855E-03
RMM:  34    -0.416573134339E+03   -0.25116E-04   -0.36749E-06 10097   0.563E-03    0.447E-03
RMM:  35    -0.416573145257E+03   -0.10918E-04   -0.16108E-06  9334   0.372E-03    0.367E-03
RMM:  36    -0.416573148398E+03   -0.31407E-05   -0.13603E-06  8817   0.400E-03    0.187E-03
RMM:  37    -0.416573149838E+03   -0.14399E-05   -0.75987E-07  8300   0.319E-03    0.131E-03
RMM:  38    -0.416573150906E+03   -0.10686E-05   -0.42860E-07  7352   0.152E-03    0.111E-03
RMM:  39    -0.416573151327E+03   -0.42090E-06   -0.19214E-07  6795   0.164E-03
   1 F= -.41657315E+03 E0= -.41657572E+03  d E =0.770094E-02
 augmentation electrons   21.110068741181241     
 soft         electrons   178.95844478665242     
 total        electrons   200.06851352783366     
 augmentation electrons   21.110068741181241     
 soft         electrons   178.95844478665242     
 total        electrons   200.06851352783366     
 augmentation electrons   21.110068741181241     
 soft         electrons   178.95844478665242     
 total        electrons   200.06851352783366     
 augmentation electrons   21.110068741181241     
 soft         electrons   178.95844478665242     
 total        electrons   200.06851352783366     
 augmentation electrons   21.110068741181241     
 soft         electrons   178.95844478665242     
 total        electrons   200.06851352783366     
 augmentation electrons   21.110068741181241     
 soft         electrons   178.95844478665242     
 total        electrons   200.06851352783366     
 augmentation electrons   21.110068741181241     
 soft         electrons   178.95844478665242     
 total        electrons   200.06851352783366     
 augmentation electrons   21.110068741181241     
 soft         electrons   178.95844478665242     
 total        electrons   200.06851352783366     
 augmentation electrons   21.110068741181241     
 soft         electrons   178.95844478665242     
 total        electrons   200.06851352783366     
 augmentation electrons   21.110068741181241     
 soft         electrons   178.95844478665242     
 total        electrons   200.06851352783366     
 augmentation electrons   21.110068741181241     
 soft         electrons   178.95844478665242     
 total        electrons   200.06851352783366     
 augmentation electrons   21.110068741181241     
 soft         electrons   178.95844478665242     
 total        electrons   200.06851352783366     
 augmentation electrons   21.110068741181241     
 soft         electrons   178.95844478665242     
 total        electrons   200.06851352783366     
 augmentation electrons   21.110068741181241     
 soft         electrons   178.95844478665242     
 total        electrons   200.06851352783366     
 augmentation electrons   21.110068741181241     
 soft         electrons   178.95844478665242     
 total        electrons   200.06851352783366     
 augmentation electrons   21.110068741181241     
 soft         electrons   178.95844478665242     
 total        electrons   200.06851352783366     
 augmentation electrons   21.110068741181241     
 soft         electrons   178.95844478665242     
 total        electrons   200.06851352783366     
 augmentation electrons   21.110068741181241     
 soft         electrons   178.95844478665242     
 total        electrons   200.06851352783366     
 augmentation electrons   21.110068741181241     
 soft         electrons   178.95844478665242     
 total        electrons   200.06851352783366     
 augmentation electrons   21.110068741181241     
 soft         electrons   178.95844478665242     
 total        electrons   200.06851352783366     
 augmentation electrons   21.110068741181241     
 soft         electrons   178.95844478665242     
 total        electrons   200.06851352783366     
 augmentation electrons   21.110068741181241     
 soft         electrons   178.95844478665242     
 total        electrons   200.06851352783366     
 augmentation electrons   21.110068741181241     
 soft         electrons   178.95844478665242     
 total        electrons   200.06851352783366     
 augmentation electrons   21.110068741181241     
 soft         electrons   178.95844478665242     
 total        electrons   200.06851352783366     
 augmentation electrons   21.110068741181241     
 soft         electrons   178.95844478665242     
 total        electrons   200.06851352783366     
 augmentation electrons   21.110068741181241     
 soft         electrons   178.95844478665242     
 total        electrons   200.06851352783366     
 augmentation electrons   21.110068741181241     
 soft         electrons   178.95844478665242     
 total        electrons   200.06851352783366     
 augmentation electrons   21.110068741181241     
 soft         electrons   178.95844478665242     
 total        electrons   200.06851352783366     
 augmentation electrons   21.110068741181241     
 soft         electrons   178.95844478665242     
 total        electrons   200.06851352783366     
 augmentation electrons   21.110068741181241     
 soft         electrons   178.95844478665242     
 total        electrons   200.06851352783366     
 augmentation electrons   21.110068741181241     
 soft         electrons   178.95844478665242     
 total        electrons   200.06851352783366     
 augmentation electrons   21.110068741181241     
 soft         electrons   178.95844478665242     
 total        electrons   200.06851352783366     
 augmentation electrons   21.110068741181241     
 soft         electrons   178.95844478665242     
 total        electrons   200.06851352783366     
 augmentation electrons   21.110068741181241     
 soft         electrons   178.95844478665242     
 total        electrons   200.06851352783366     
 augmentation electrons   21.110068741181241     
 soft         electrons   178.95844478665242     
 total        electrons   200.06851352783366     
 augmentation electrons   21.110068741181241     
 soft         electrons   178.95844478665242     
 total        electrons   200.06851352783366     
 augmentation electrons   21.110068741181241     
 soft         electrons   178.95844478665242     
 total        electrons   200.06851352783366     
 augmentation electrons   21.110068741181241     
 soft         electrons   178.95844478665242     
 total        electrons   200.06851352783366     
 augmentation electrons   21.110068741181241     
 soft         electrons   178.95844478665242     
 total        electrons   200.06851352783366     
 augmentation electrons   21.110068741181241     
 soft         electrons   178.95844478665242     
 total        electrons   200.06851352783366     
 augmentation electrons   21.110068741181241     
 soft         electrons   178.95844478665242     
 total        electrons   200.06851352783366     
 augmentation electrons   21.110068741181241     
 soft         electrons   178.95844478665242     
 total        electrons   200.06851352783366     
 augmentation electrons   21.110068741181241     
 soft         electrons   178.95844478665242     
 total        electrons   200.06851352783366     
 augmentation electrons   21.110068741181241     
 soft         electrons   178.95844478665242     
 total        electrons   200.06851352783366     
 augmentation electrons   21.110068741181241     
 soft         electrons   178.95844478665242     
 total        electrons   200.06851352783366     
 augmentation electrons   21.110068741181241     
 soft         electrons   178.95844478665242     
 total        electrons   200.06851352783366     
 augmentation electrons   21.110068741181241     
 soft         electrons   178.95844478665242     
 total        electrons   200.06851352783366     
 augmentation electrons   21.110068741181241     
 soft         electrons   178.95844478665242     
 total        electrons   200.06851352783366     
 augmentation electrons   21.110068741181241     
 soft         electrons   178.95844478665242     
 total        electrons   200.06851352783366     
 augmentation electrons   21.110068741181241     
 soft         electrons   178.95844478665242     
 total        electrons   200.06851352783366     
 augmentation electrons   21.110068741181241     
 soft         electrons   178.95844478665242     
 augmentation electrons   21.110068741181241     
 soft         electrons   178.95844478665242     
 total        electrons   200.06851352783366     
 augmentation electrons   21.110068741181241     
 soft         electrons   178.95844478665242     
 total        electrons   200.06851352783366     
 augmentation electrons   21.110068741181241     
 soft         electrons   178.95844478665242     
 total        electrons   200.06851352783366     
 total        electrons   200.06851352783366     
Note: The following floating-point exceptions are signalling: IEEE_OVERFLOW_FLAG
Note: The following floating-point exceptions are signalling: IEEE_OVERFLOW_FLAG
Note: The following floating-point exceptions are signalling: IEEE_OVERFLOW_FLAG
Note: The following floating-point exceptions are signalling: IEEE_OVERFLOW_FLAG
Note: The following floating-point exceptions are signalling: IEEE_OVERFLOW_FLAG
Note: The following floating-point exceptions are signalling: IEEE_OVERFLOW_FLAG
Note: The following floating-point exceptions are signalling: IEEE_OVERFLOW_FLAG
Note: The following floating-point exceptions are signalling: IEEE_OVERFLOW_FLAG
Note: The following floating-point exceptions are signalling: IEEE_OVERFLOW_FLAG
Note: The following floating-point exceptions are signalling: IEEE_OVERFLOW_FLAG
Note: The following floating-point exceptions are signalling: IEEE_OVERFLOW_FLAG
Note: The following floating-point exceptions are signalling: IEEE_OVERFLOW_FLAG
Note: The following floating-point exceptions are signalling: IEEE_OVERFLOW_FLAG
Note: The following floating-point exceptions are signalling: IEEE_OVERFLOW_FLAG
Note: The following floating-point exceptions are signalling: IEEE_OVERFLOW_FLAG
Note: The following floating-point exceptions are signalling: IEEE_OVERFLOW_FLAG
Note: The following floating-point exceptions are signalling: IEEE_OVERFLOW_FLAG
Note: The following floating-point exceptions are signalling: IEEE_OVERFLOW_FLAG
Note: The following floating-point exceptions are signalling: IEEE_OVERFLOW_FLAG
Note: The following floating-point exceptions are signalling: IEEE_OVERFLOW_FLAG
Note: The following floating-point exceptions are signalling: IEEE_OVERFLOW_FLAG
Note: The following floating-point exceptions are signalling: IEEE_OVERFLOW_FLAG
Note: The following floating-point exceptions are signalling: IEEE_OVERFLOW_FLAG
Note: The following floating-point exceptions are signalling: IEEE_OVERFLOW_FLAG
Note: The following floating-point exceptions are signalling: IEEE_OVERFLOW_FLAG
Note: The following floating-point exceptions are signalling: IEEE_OVERFLOW_FLAG
Note: The following floating-point exceptions are signalling: IEEE_OVERFLOW_FLAG
Note: The following floating-point exceptions are signalling: IEEE_OVERFLOW_FLAG
Note: The following floating-point exceptions are signalling: IEEE_OVERFLOW_FLAG
Note: The following floating-point exceptions are signalling: IEEE_OVERFLOW_FLAG
Note: The following floating-point exceptions are signalling: IEEE_OVERFLOW_FLAG
Note: The following floating-point exceptions are signalling: IEEE_OVERFLOW_FLAG
Note: The following floating-point exceptions are signalling: IEEE_OVERFLOW_FLAG
Note: The following floating-point exceptions are signalling: IEEE_OVERFLOW_FLAG
Note: The following floating-point exceptions are signalling: IEEE_OVERFLOW_FLAG
Note: The following floating-point exceptions are signalling: IEEE_OVERFLOW_FLAG
Note: The following floating-point exceptions are signalling: IEEE_OVERFLOW_FLAG
Note: The following floating-point exceptions are signalling: IEEE_OVERFLOW_FLAG
Note: The following floating-point exceptions are signalling: IEEE_OVERFLOW_FLAG
Note: The following floating-point exceptions are signalling: IEEE_OVERFLOW_FLAG
Note: The following floating-point exceptions are signalling: IEEE_OVERFLOW_FLAG
Note: The following floating-point exceptions are signalling: IEEE_OVERFLOW_FLAG
Note: The following floating-point exceptions are signalling: IEEE_OVERFLOW_FLAG
Note: The following floating-point exceptions are signalling: IEEE_OVERFLOW_FLAG
Note: The following floating-point exceptions are signalling: IEEE_OVERFLOW_FLAG
Note: The following floating-point exceptions are signalling: IEEE_OVERFLOW_FLAG
Note: The following floating-point exceptions are signalling: IEEE_OVERFLOW_FLAG
Note: The following floating-point exceptions are signalling: IEEE_OVERFLOW_FLAG
Note: The following floating-point exceptions are signalling: IEEE_OVERFLOW_FLAG
Note: The following floating-point exceptions are signalling: IEEE_OVERFLOW_FLAG
Note: The following floating-point exceptions are signalling: IEEE_OVERFLOW_FLAG
Note: The following floating-point exceptions are signalling: IEEE_OVERFLOW_FLAG
Note: The following floating-point exceptions are signalling: IEEE_OVERFLOW_FLAG
Note: The following floating-point exceptions are signalling: IEEE_OVERFLOW_FLAG
