   50   50    1    1
  0.2363123E+02  0.8645320E-09  0.6085000E-09  0.2593596E-08  0.5000000E-15
   1.0000000000000000E-004
  CAR 
 Name                                    
    190    149    128

  0.3742002E-15  0.3742002E-15  0.3742002E-15  0.3367003E-02
    1      -13.941520   1.000000
    2      -12.590679   1.000000
    3      -12.455081   1.000000
    4      -11.903139   1.000000
    5      -11.566818   1.000000
    6      -11.139122   1.000000
    7      -11.127304   1.000000
    8      -11.101931   1.000000
    9      -10.973512   1.000000
   10      -10.659683   1.000000
   11      -10.646408   1.000000
   12      -10.334656   1.000000
   13      -10.197663   1.000000
   14      -10.128476   1.000000
   15       -9.751905   1.000000
   16       -9.700939   1.000000
   17       -9.135435   1.000000
   18       -9.092303   1.000000
   19       -8.821906   1.000000
   20       -8.484980   1.000000
   21       -8.467988   1.000000
   22       -8.401091   1.000000
   23       -8.177223   1.000000
   24       -8.048977   1.000000
   25       -7.998192   1.000000
   26       -7.950755   1.000000
   27       -7.539859   1.000000
   28       -7.264681   1.000000
   29       -6.550514   1.000000
   30       -6.524992   1.000000
   31       -6.458420   1.000000
   32       -6.298971   1.000000
   33       -6.144805   1.000000
   34       -5.967143   1.000000
   35       -5.843046   1.000000
   36       -5.661111   1.000000
   37       -5.470035   1.000000
   38       -5.448523   1.000000
   39       -5.383165   1.000000
   40       -5.230868   1.000000
   41       -5.119733   1.000000
   42       -5.047402   1.000000
   43       -5.008469   1.000000
   44       -4.870981   1.000000
   45       -4.804385   1.000000
   46       -4.732096   1.000000
   47       -4.656735   1.000000
   48       -4.581662   1.000000
   49       -4.554311   1.000000
   50       -4.539170   1.000000
   51       -4.472078   1.000000
   52       -4.444885   1.000000
   53       -4.332750   1.000000
   54       -4.260992   1.000000
   55       -4.135866   1.000000
   56       -4.086193   1.000000
   57       -4.021570   1.000000
   58       -4.007410   1.000000
   59       -3.954278   1.000000
   60       -3.853753   1.000000
   61       -3.775134   1.000000
   62       -3.505576   1.000000
   63       -3.456044   1.000000
   64       -3.395882   1.000000
   65       -3.359920   1.000000
   66       -3.338466   1.000000
   67       -3.319308   1.000000
   68       -3.252792   1.000000
   69       -3.202620   1.000000
   70       -3.158310   1.000000
   71       -3.044314   1.000000
   72       -3.033545   1.000000
   73       -2.667177   1.000000
   74       -2.474744   1.000000
   75       -2.363686   1.000000
   76       -2.309921   1.000000
   77       -2.225465   1.000000
   78       -2.124975   1.000000
   79       -2.048527   1.000000
   80       -1.927757   1.000000
   81       -1.713682   1.000000
   82       -1.587249   1.000000
   83       -1.496236   1.000000
   84       -1.279822   1.000000
   85       -1.152296   1.000000
   86       -1.079829   1.000000
   87       -0.972958   1.000000
   88       -0.903567   1.000000
   89       -0.852784   1.000000
   90       -0.323285   1.000000
   91       -0.160716   1.000265
   92       -0.002508   1.035458
   93        0.080328   0.807635
   94        0.148538   0.268371
   95        0.230293  -0.032819
   96        0.234863  -0.034495
   97        0.261813  -0.031055
   98        0.514264  -0.000000
   99        0.592299  -0.000000
  100        0.662903  -0.000000
  101        0.668384  -0.000000
  102        0.803213  -0.000000
  103        0.852740  -0.000000
  104        0.887788  -0.000000
  105        0.960499  -0.000000
  106        1.031031  -0.000000
  107        1.299523  -0.000000
  108        1.318582  -0.000000
  109        1.365806  -0.000000
  110        1.439112  -0.000000
  111        1.491078  -0.000000
  112        1.519497  -0.000000
  113        1.565541  -0.000000
  114        1.589341  -0.000000
  115        1.721136  -0.000000
  116        1.744618  -0.000000
  117        1.792296  -0.000000
  118        1.939646  -0.000000
  119        1.962794  -0.000000
  120        1.998461  -0.000000
  121        2.034931  -0.000000
  122        2.079484  -0.000000
  123        2.211096  -0.000000
  124        2.303329  -0.000000
  125        2.474044  -0.000000
  126        2.555240  -0.000000
  127        2.972622   0.000000
  128        3.837351   0.000000

  0.1111111E+00  0.3729374E-15  0.3860503E-15  0.6734007E-02
    1      -13.914549   1.000000
    2      -12.583421   1.000000
    3      -12.551012   1.000000
    4      -11.846879   1.000000
    5      -11.554662   1.000000
    6      -11.142255   1.000000
    7      -11.118091   1.000000
    8      -11.092705   1.000000
    9      -11.006784   1.000000
   10      -10.655971   1.000000
   11      -10.642097   1.000000
   12      -10.347400   1.000000
   13      -10.186202   1.000000
   14      -10.123504   1.000000
   15       -9.746345   1.000000
   16       -9.687977   1.000000
   17       -9.147098   1.000000
   18       -9.064378   1.000000
   19       -8.824590   1.000000
   20       -8.492800   1.000000
   21       -8.481863   1.000000
   22       -8.430575   1.000000
   23       -8.230141   1.000000
   24       -8.037485   1.000000
   25       -7.991120   1.000000
   26       -7.972259   1.000000
   27       -7.577117   1.000000
   28       -7.313759   1.000000
   29       -6.525514   1.000000
   30       -6.476532   1.000000
   31       -6.423476   1.000000
   32       -6.233241   1.000000
   33       -6.116945   1.000000
   34       -5.952416   1.000000
   35       -5.910809   1.000000
   36       -5.640803   1.000000
   37       -5.511168   1.000000
   38       -5.394353   1.000000
   39       -5.318442   1.000000
   40       -5.253619   1.000000
   41       -5.153284   1.000000
   42       -5.063091   1.000000
   43       -5.005715   1.000000
   44       -4.825966   1.000000
   45       -4.759556   1.000000
   46       -4.725988   1.000000
   47       -4.675125   1.000000
   48       -4.603859   1.000000
   49       -4.553033   1.000000
   50       -4.514748   1.000000
   51       -4.449877   1.000000
   52       -4.414916   1.000000
   53       -4.312781   1.000000
   54       -4.246211   1.000000
   55       -4.150376   1.000000
   56       -4.098485   1.000000
   57       -4.041577   1.000000
   58       -4.022324   1.000000
   59       -3.955516   1.000000
   60       -3.846238   1.000000
   61       -3.753996   1.000000
   62       -3.567783   1.000000
   63       -3.453892   1.000000
   64       -3.377250   1.000000
   65       -3.355636   1.000000
   66       -3.321938   1.000000
   67       -3.312149   1.000000
   68       -3.229433   1.000000
   69       -3.202756   1.000000
   70       -3.129295   1.000000
   71       -3.105688   1.000000
   72       -3.018366   1.000000
   73       -2.726518   1.000000
   74       -2.474262   1.000000
   75       -2.378630   1.000000
   76       -2.353084   1.000000
   77       -2.198981   1.000000
   78       -2.182603   1.000000
   79       -2.077463   1.000000
   80       -1.949901   1.000000
   81       -1.640726   1.000000
   82       -1.601206   1.000000
   83       -1.499632   1.000000
   84       -1.274928   1.000000
   85       -1.184638   1.000000
   86       -1.051859   1.000000
   87       -0.951062   1.000000
   88       -0.886046   1.000000
   89       -0.764588   1.000000
   90       -0.389126   1.000000
   91       -0.222639   1.000007
   92        0.016521   1.028294
   93        0.093603   0.714298
   94        0.159379   0.193065
   95        0.169032   0.134751
   96        0.225943  -0.030310
   97        0.296597  -0.015736
   98        0.525408  -0.000000
   99        0.605910  -0.000000
  100        0.624291  -0.000000
  101        0.682836  -0.000000
  102        0.828370  -0.000000
  103        0.871211  -0.000000
  104        0.902778  -0.000000
  105        0.973758  -0.000000
  106        1.044989  -0.000000
  107        1.316359  -0.000000
  108        1.346007  -0.000000
  109        1.359512  -0.000000
  110        1.470727  -0.000000
  111        1.487020  -0.000000
  112        1.533245  -0.000000
  113        1.587881  -0.000000
  114        1.621161  -0.000000
  115        1.714795  -0.000000
  116        1.736543  -0.000000
  117        1.773718  -0.000000
  118        1.935420  -0.000000
  119        1.960947  -0.000000
  120        1.978615  -0.000000
  121        2.049123  -0.000000
  122        2.068626  -0.000000
  123        2.129772  -0.000000
  124        2.339642  -0.000000
  125        2.388937  -0.000000
  126        2.447570  -0.000000
  127        2.921924   0.000000
  128        3.921906   0.000000

  0.2222222E+00  0.3922785E-15  0.3630220E-15  0.6734007E-02
    1      -13.834413   1.000000
    2      -12.804989   1.000000
    3      -12.490741   1.000000
    4      -11.803952   1.000000
    5      -11.518170   1.000000
    6      -11.168965   1.000000
    7      -11.101389   1.000000
    8      -11.080644   1.000000
    9      -11.011553   1.000000
   10      -10.644523   1.000000
   11      -10.629229   1.000000
   12      -10.407984   1.000000
   13      -10.159851   1.000000
   14      -10.116685   1.000000
   15       -9.729444   1.000000
   16       -9.644930   1.000000
   17       -9.179906   1.000000
   18       -8.964520   1.000000
   19       -8.828030   1.000000
   20       -8.571389   1.000000
   21       -8.545222   1.000000
   22       -8.450090   1.000000
   23       -8.335423   1.000000
   24       -8.114997   1.000000
   25       -8.068123   1.000000
   26       -7.818822   1.000000
   27       -7.708730   1.000000
   28       -7.346005   1.000000
   29       -6.479365   1.000000
   30       -6.400087   1.000000
   31       -6.338318   1.000000
   32       -6.156657   1.000000
   33       -6.087322   1.000000
   34       -6.043155   1.000000
   35       -5.859136   1.000000
   36       -5.563803   1.000000
   37       -5.506192   1.000000
   38       -5.445687   1.000000
   39       -5.274027   1.000000
   40       -5.188859   1.000000
   41       -5.057431   1.000000
   42       -5.030225   1.000000
   43       -4.941421   1.000000
   44       -4.898675   1.000000
   45       -4.834077   1.000000
   46       -4.742913   1.000000
   47       -4.601400   1.000000
   48       -4.580909   1.000000
   49       -4.526917   1.000000
   50       -4.475361   1.000000
   51       -4.411211   1.000000
   52       -4.373869   1.000000
   53       -4.311128   1.000000
   54       -4.229168   1.000000
   55       -4.139072   1.000000
   56       -4.087298   1.000000
   57       -4.064497   1.000000
   58       -4.035063   1.000000
   59       -3.920275   1.000000
   60       -3.854091   1.000000
   61       -3.720631   1.000000
   62       -3.656300   1.000000
   63       -3.484298   1.000000
   64       -3.402986   1.000000
   65       -3.347334   1.000000
   66       -3.327817   1.000000
   67       -3.286821   1.000000
   68       -3.270053   1.000000
   69       -3.175725   1.000000
   70       -3.137646   1.000000
   71       -3.069905   1.000000
   72       -2.937833   1.000000
   73       -2.839454   1.000000
   74       -2.539593   1.000000
   75       -2.452695   1.000000
   76       -2.382619   1.000000
   77       -2.309302   1.000000
   78       -2.177705   1.000000
   79       -2.163126   1.000000
   80       -1.942864   1.000000
   81       -1.746640   1.000000
   82       -1.534520   1.000000
   83       -1.375139   1.000000
   84       -1.303247   1.000000
   85       -1.214063   1.000000
   86       -0.997330   1.000000
   87       -0.903271   1.000000
   88       -0.820234   1.000000
   89       -0.541424   1.000000
   90       -0.508527   1.000000
   91       -0.364733   1.000000
   92       -0.068808   1.011313
   93        0.040962   0.987301
   94        0.128841   0.424728
   95        0.192466   0.031513
   96        0.278245  -0.023835
   97        0.413861  -0.000130
   98        0.460050  -0.000008
   99        0.587922  -0.000000
  100        0.609675  -0.000000
  101        0.698914  -0.000000
  102        0.833038  -0.000000
  103        0.925672  -0.000000
  104        0.949961  -0.000000
  105        1.026632  -0.000000
  106        1.179235  -0.000000
  107        1.266167  -0.000000
  108        1.368657  -0.000000
  109        1.454268  -0.000000
  110        1.479559  -0.000000
  111        1.507105  -0.000000
  112        1.581860  -0.000000
  113        1.618959  -0.000000
  114        1.658192  -0.000000
  115        1.686710  -0.000000
  116        1.751910  -0.000000
  117        1.780959  -0.000000
  118        1.917747  -0.000000
  119        1.944645  -0.000000
  120        1.950600  -0.000000
  121        2.005794  -0.000000
  122        2.043916  -0.000000
  123        2.084913  -0.000000
  124        2.212379  -0.000000
  125        2.365040  -0.000000
  126        2.415200  -0.000000
  127        2.885039   0.000000
  128        3.764574   0.000000

  0.3333333E+00  0.3713828E-15  0.3468587E-15  0.6734007E-02
    1      -13.703528   1.000000
    2      -13.062685   1.000000
    3      -12.375557   1.000000
    4      -11.880053   1.000000
    5      -11.463765   1.000000
    6      -11.197722   1.000000
    7      -11.086621   1.000000
    8      -11.074071   1.000000
    9      -10.934279   1.000000
   10      -10.627920   1.000000
   11      -10.611397   1.000000
   12      -10.520081   1.000000
   13      -10.136627   1.000000
   14      -10.119865   1.000000
   15       -9.702401   1.000000
   16       -9.570947   1.000000
   17       -9.206684   1.000000
   18       -8.853270   1.000000
   19       -8.793386   1.000000
   20       -8.705360   1.000000
   21       -8.646965   1.000000
   22       -8.449616   1.000000
   23       -8.405678   1.000000
   24       -8.192223   1.000000
   25       -8.166743   1.000000
   26       -7.963910   1.000000
   27       -7.545466   1.000000
   28       -7.279246   1.000000
   29       -6.514764   1.000000
   30       -6.422263   1.000000
   31       -6.358250   1.000000
   32       -6.272798   1.000000
   33       -6.038075   1.000000
   34       -5.878651   1.000000
   35       -5.736317   1.000000
   36       -5.506833   1.000000
   37       -5.449926   1.000000
   38       -5.377499   1.000000
   39       -5.198274   1.000000
   40       -5.142120   1.000000
   41       -5.104297   1.000000
   42       -5.048836   1.000000
   43       -4.936812   1.000000
   44       -4.888932   1.000000
   45       -4.820017   1.000000
   46       -4.728516   1.000000
   47       -4.584261   1.000000
   48       -4.552375   1.000000
   49       -4.483480   1.000000
   50       -4.438619   1.000000
   51       -4.417760   1.000000
   52       -4.347023   1.000000
   53       -4.287553   1.000000
   54       -4.171352   1.000000
   55       -4.140068   1.000000
   56       -4.099762   1.000000
   57       -4.018649   1.000000
   58       -3.989279   1.000000
   59       -3.898650   1.000000
   60       -3.839578   1.000000
   61       -3.768478   1.000000
   62       -3.642371   1.000000
   63       -3.604929   1.000000
   64       -3.452559   1.000000
   65       -3.396523   1.000000
   66       -3.352975   1.000000
   67       -3.304480   1.000000
   68       -3.251190   1.000000
   69       -3.161017   1.000000
   70       -3.132627   1.000000
   71       -2.968651   1.000000
   72       -2.888166   1.000000
   73       -2.808434   1.000000
   74       -2.720413   1.000000
   75       -2.510619   1.000000
   76       -2.458185   1.000000
   77       -2.394692   1.000000
   78       -2.263914   1.000000
   79       -2.198104   1.000000
   80       -1.929533   1.000000
   81       -1.816431   1.000000
   82       -1.573896   1.000000
   83       -1.434901   1.000000
   84       -1.211484   1.000000
   85       -1.109252   1.000000
   86       -0.927073   1.000000
   87       -0.780784   1.000000
   88       -0.724716   1.000000
   89       -0.666989   1.000000
   90       -0.505075   1.000000
   91       -0.264857   1.000000
   92       -0.208028   1.000018
   93       -0.075704   1.009189
   94        0.120638   0.493823
   95        0.206265  -0.004571
   96        0.306883  -0.011898
   97        0.384710  -0.000583
   98        0.450366  -0.000015
   99        0.532697  -0.000000
  100        0.690501  -0.000000
  101        0.759227  -0.000000
  102        0.944159  -0.000000
  103        0.969675  -0.000000
  104        1.006943  -0.000000
  105        1.096454  -0.000000
  106        1.133214  -0.000000
  107        1.375706  -0.000000
  108        1.449111  -0.000000
  109        1.480445  -0.000000
  110        1.514899  -0.000000
  111        1.541215  -0.000000
  112        1.598381  -0.000000
  113        1.624010  -0.000000
  114        1.644966  -0.000000
  115        1.670059  -0.000000
  116        1.791463  -0.000000
  117        1.827328  -0.000000
  118        1.883722  -0.000000
  119        1.912221  -0.000000
  120        1.966572  -0.000000
  121        1.994151  -0.000000
  122        2.046641  -0.000000
  123        2.075318  -0.000000
  124        2.104135  -0.000000
  125        2.185028  -0.000000
  126        2.269099  -0.000000
  127        2.537656  -0.000000
  128        2.791710  -0.000000

  0.4444444E+00  0.3870091E-15  0.3932070E-15  0.6734007E-02
    1      -13.526276   1.000000
    2      -13.308809   1.000000
    3      -12.231487   1.000000
    4      -12.028937   1.000000
    5      -11.420081   1.000000
    6      -11.208674   1.000000
    7      -11.077688   1.000000
    8      -11.067889   1.000000
    9      -10.830009   1.000000
   10      -10.654387   1.000000
   11      -10.611598   1.000000
   12      -10.593330   1.000000
   13      -10.128671   1.000000
   14      -10.126926   1.000000
   15       -9.677625   1.000000
   16       -9.498132   1.000000
   17       -9.214082   1.000000
   18       -8.901805   1.000000
   19       -8.805478   1.000000
   20       -8.693483   1.000000
   21       -8.625568   1.000000
   22       -8.454034   1.000000
   23       -8.432933   1.000000
   24       -8.244367   1.000000
   25       -8.234117   1.000000
   26       -8.172238   1.000000
   27       -7.300185   1.000000
   28       -7.141099   1.000000
   29       -6.834316   1.000000
   30       -6.424742   1.000000
   31       -6.385664   1.000000
   32       -6.308967   1.000000
   33       -6.005262   1.000000
   34       -5.658128   1.000000
   35       -5.573707   1.000000
   36       -5.456012   1.000000
   37       -5.408547   1.000000
   38       -5.335392   1.000000
   39       -5.274837   1.000000
   40       -5.236734   1.000000
   41       -5.147667   1.000000
   42       -5.078921   1.000000
   43       -4.894928   1.000000
   44       -4.808700   1.000000
   45       -4.740344   1.000000
   46       -4.665943   1.000000
   47       -4.629544   1.000000
   48       -4.578364   1.000000
   49       -4.492820   1.000000
   50       -4.429267   1.000000
   51       -4.357398   1.000000
   52       -4.297565   1.000000
   53       -4.273123   1.000000
   54       -4.206743   1.000000
   55       -4.087669   1.000000
   56       -4.066379   1.000000
   57       -4.025576   1.000000
   58       -3.954510   1.000000
   59       -3.863024   1.000000
   60       -3.816840   1.000000
   61       -3.789938   1.000000
   62       -3.739645   1.000000
   63       -3.612095   1.000000
   64       -3.519880   1.000000
   65       -3.421512   1.000000
   66       -3.381881   1.000000
   67       -3.287387   1.000000
   68       -3.215740   1.000000
   69       -3.155963   1.000000
   70       -3.138614   1.000000
   71       -2.979415   1.000000
   72       -2.852000   1.000000
   73       -2.778063   1.000000
   74       -2.680322   1.000000
   75       -2.608800   1.000000
   76       -2.559442   1.000000
   77       -2.479309   1.000000
   78       -2.291595   1.000000
   79       -2.168526   1.000000
   80       -2.059081   1.000000
   81       -1.785277   1.000000
   82       -1.584705   1.000000
   83       -1.481287   1.000000
   84       -1.224071   1.000000
   85       -0.953222   1.000000
   86       -0.860114   1.000000
   87       -0.810767   1.000000
   88       -0.740932   1.000000
   89       -0.563739   1.000000
   90       -0.444260   1.000000
   91       -0.401160   1.000000
   92       -0.198457   1.000032
   93       -0.103097   1.003548
   94        0.104517   0.628547
   95        0.168385   0.138377
   96        0.287217  -0.019735
   97        0.358760  -0.001878
   98        0.457162  -0.000010
   99        0.658190  -0.000000
  100        0.698785  -0.000000
  101        0.720327  -0.000000
  102        0.886246  -0.000000
  103        0.985284  -0.000000
  104        1.038763  -0.000000
  105        1.269289  -0.000000
  106        1.309109  -0.000000
  107        1.391563  -0.000000
  108        1.491201  -0.000000
  109        1.516571  -0.000000
  110        1.550025  -0.000000
  111        1.596651  -0.000000
  112        1.607387  -0.000000
  113        1.627448  -0.000000
  114        1.652026  -0.000000
  115        1.681286  -0.000000
  116        1.689861  -0.000000
  117        1.804396  -0.000000
  118        1.820174  -0.000000
  119        1.850999  -0.000000
  120        1.883069  -0.000000
  121        1.990919  -0.000000
  122        2.057229  -0.000000
  123        2.097326  -0.000000
  124        2.171177  -0.000000
  125        2.316748  -0.000000
  126        2.421326  -0.000000
  127        3.204302   0.000000
  128        3.855996   0.000000

  0.3742002E-15  0.9090909E-01  0.3596334E-15  0.6734007E-02
    1      -13.908350   1.000000
    2      -12.561363   1.000000
    3      -12.459173   1.000000
    4      -11.871445   1.000000
    5      -11.546339   1.000000
    6      -11.313626   1.000000
    7      -11.262091   1.000000
    8      -11.093625   1.000000
    9      -10.978675   1.000000
   10      -10.657998   1.000000
   11      -10.628583   1.000000
   12      -10.318714   1.000000
   13      -10.151947   1.000000
   14      -10.073663   1.000000
   15       -9.779595   1.000000
   16       -9.680144   1.000000
   17       -9.153485   1.000000
   18       -9.064412   1.000000
   19       -8.909095   1.000000
   20       -8.589970   1.000000
   21       -8.514709   1.000000
   22       -8.259508   1.000000
   23       -8.006749   1.000000
   24       -7.974410   1.000000
   25       -7.839828   1.000000
   26       -7.812183   1.000000
   27       -7.533533   1.000000
   28       -7.299823   1.000000
   29       -6.580238   1.000000
   30       -6.501640   1.000000
   31       -6.445630   1.000000
   32       -6.279273   1.000000
   33       -6.133606   1.000000
   34       -6.010723   1.000000
   35       -5.800011   1.000000
   36       -5.669092   1.000000
   37       -5.533667   1.000000
   38       -5.426767   1.000000
   39       -5.299348   1.000000
   40       -5.235023   1.000000
   41       -5.199538   1.000000
   42       -5.119246   1.000000
   43       -5.022252   1.000000
   44       -4.919167   1.000000
   45       -4.822475   1.000000
   46       -4.764885   1.000000
   47       -4.711923   1.000000
   48       -4.666559   1.000000
   49       -4.566628   1.000000
   50       -4.542755   1.000000
   51       -4.491606   1.000000
   52       -4.452393   1.000000
   53       -4.335432   1.000000
   54       -4.282363   1.000000
   55       -4.173025   1.000000
   56       -4.099328   1.000000
   57       -4.042258   1.000000
   58       -3.997216   1.000000
   59       -3.902730   1.000000
   60       -3.885183   1.000000
   61       -3.783121   1.000000
   62       -3.508287   1.000000
   63       -3.473666   1.000000
   64       -3.412688   1.000000
   65       -3.380985   1.000000
   66       -3.301950   1.000000
   67       -3.271934   1.000000
   68       -3.233108   1.000000
   69       -3.203182   1.000000
   70       -3.163730   1.000000
   71       -3.030851   1.000000
   72       -2.995482   1.000000
   73       -2.835998   1.000000
   74       -2.410165   1.000000
   75       -2.352176   1.000000
   76       -2.329021   1.000000
   77       -2.212357   1.000000
   78       -2.127723   1.000000
   79       -2.025511   1.000000
   80       -1.940461   1.000000
   81       -1.759791   1.000000
   82       -1.522527   1.000000
   83       -1.467174   1.000000
   84       -1.313675   1.000000
   85       -1.185818   1.000000
   86       -1.057316   1.000000
   87       -0.961736   1.000000
   88       -0.940616   1.000000
   89       -0.890664   1.000000
   90       -0.447108   1.000000
   91       -0.231939   1.000004
   92       -0.040244   1.022996
   93       -0.018308   1.032405
   94        0.052167   0.951736
   95        0.155581   0.218349
   96        0.222711  -0.027797
   97        0.299769  -0.014485
   98        0.434386  -0.000041
   99        0.505059  -0.000000
  100        0.608726  -0.000000
  101        0.780316  -0.000000
  102        0.840769  -0.000000
  103        0.902104  -0.000000
  104        1.022384  -0.000000
  105        1.029009  -0.000000
  106        1.120589  -0.000000
  107        1.249393  -0.000000
  108        1.311663  -0.000000
  109        1.391386  -0.000000
  110        1.453349  -0.000000
  111        1.494268  -0.000000
  112        1.507870  -0.000000
  113        1.594056  -0.000000
  114        1.616401  -0.000000
  115        1.718278  -0.000000
  116        1.748275  -0.000000
  117        1.791481  -0.000000
  118        1.854229  -0.000000
  119        1.916805  -0.000000
  120        2.010609  -0.000000
  121        2.037835  -0.000000
  122        2.112508  -0.000000
  123        2.159642  -0.000000
  124        2.254378  -0.000000
  125        2.362852  -0.000000
  126        2.398610  -0.000000
  127        2.542585  -0.000000
  128        3.839163   0.000000

  0.1111111E+00  0.9090909E-01  0.4822234E-15  0.6734007E-02
    1      -13.859597   1.000000
    2      -12.641223   1.000000
    3      -12.512637   1.000000
    4      -11.800870   1.000000
    5      -11.523612   1.000000
    6      -11.358871   1.000000
    7      -11.208892   1.000000
    8      -11.092495   1.000000
    9      -11.016004   1.000000
   10      -10.660328   1.000000
   11      -10.566596   1.000000
   12      -10.346375   1.000000
   13      -10.168050   1.000000
   14      -10.101707   1.000000
   15       -9.761398   1.000000
   16       -9.635609   1.000000
   17       -9.169412   1.000000
   18       -9.008023   1.000000
   19       -8.907096   1.000000
   20       -8.646097   1.000000
   21       -8.552561   1.000000
   22       -8.326525   1.000000
   23       -8.063123   1.000000
   24       -7.896472   1.000000
   25       -7.865687   1.000000
   26       -7.833393   1.000000
   27       -7.617374   1.000000
   28       -7.338306   1.000000
   29       -6.603148   1.000000
   30       -6.412070   1.000000
   31       -6.358970   1.000000
   32       -6.180662   1.000000
   33       -6.105231   1.000000
   34       -6.019078   1.000000
   35       -5.881727   1.000000
   36       -5.676230   1.000000
   37       -5.464854   1.000000
   38       -5.382039   1.000000
   39       -5.329594   1.000000
   40       -5.223002   1.000000
   41       -5.170465   1.000000
   42       -5.082308   1.000000
   43       -5.038067   1.000000
   44       -4.955381   1.000000
   45       -4.791094   1.000000
   46       -4.763856   1.000000
   47       -4.652219   1.000000
   48       -4.610116   1.000000
   49       -4.553993   1.000000
   50       -4.519074   1.000000
   51       -4.436168   1.000000
   52       -4.432980   1.000000
   53       -4.366874   1.000000
   54       -4.247189   1.000000
   55       -4.187350   1.000000
   56       -4.147996   1.000000
   57       -4.072329   1.000000
   58       -3.988238   1.000000
   59       -3.899927   1.000000
   60       -3.870518   1.000000
   61       -3.742924   1.000000
   62       -3.552857   1.000000
   63       -3.481865   1.000000
   64       -3.449447   1.000000
   65       -3.417143   1.000000
   66       -3.309238   1.000000
   67       -3.279528   1.000000
   68       -3.185955   1.000000
   69       -3.161139   1.000000
   70       -3.139461   1.000000
   71       -3.057232   1.000000
   72       -2.996536   1.000000
   73       -2.880022   1.000000
   74       -2.467862   1.000000
   75       -2.418765   1.000000
   76       -2.360887   1.000000
   77       -2.218573   1.000000
   78       -2.191815   1.000000
   79       -2.019581   1.000000
   80       -1.967538   1.000000
   81       -1.781232   1.000000
   82       -1.545282   1.000000
   83       -1.413179   1.000000
   84       -1.289432   1.000000
   85       -1.276544   1.000000
   86       -1.037496   1.000000
   87       -0.917302   1.000000
   88       -0.834097   1.000000
   89       -0.749697   1.000000
   90       -0.530493   1.000000
   91       -0.251150   1.000001
   92       -0.060815   1.014155
   93       -0.012143   1.034222
   94        0.072439   0.855876
   95        0.154099   0.228548
   96        0.260012  -0.031734
   97        0.268810  -0.028138
   98        0.393233  -0.000384
   99        0.466163  -0.000006
  100        0.684250  -0.000000
  101        0.805332  -0.000000
  102        0.833275  -0.000000
  103        0.900159  -0.000000
  104        1.034398  -0.000000
  105        1.067543  -0.000000
  106        1.111126  -0.000000
  107        1.310586  -0.000000
  108        1.338398  -0.000000
  109        1.379533  -0.000000
  110        1.420149  -0.000000
  111        1.517992  -0.000000
  112        1.563102  -0.000000
  113        1.627412  -0.000000
  114        1.657475  -0.000000
  115        1.704894  -0.000000
  116        1.738345  -0.000000
  117        1.775302  -0.000000
  118        1.854200  -0.000000
  119        1.922697  -0.000000
  120        1.978408  -0.000000
  121        2.044699  -0.000000
  122        2.076467  -0.000000