    3    3   60    1
  0.8144830E+01  0.3039000E-09  0.3039000E-09  0.3055000E-09  0.5000000E-15
   1.0000000000000000E-004
  CAR 
 Name                                    
     12    216     10

  0.3742002E-15  0.3742002E-15  0.3742002E-15  0.2962963E-03
    1       -5.669911   1.000000
    2        4.233386   1.000000
    3        4.233388   1.000000
    4        4.994622   1.000000
    5        5.835043   1.000000
    6        8.739432   1.000000
    7        8.739433   1.000000
    8       11.653497  -0.000000
    9       11.653499  -0.000000
   10       13.259002   0.000000

  0.6666667E-01  0.3766815E-15  0.3742002E-15  0.1777778E-02
    1       -5.583927   1.000000
    2        4.019894   1.000000
    3        4.267256   1.000000
    4        5.045709   1.000000
    5        5.602683   1.000000
    6        8.705094   1.000000
    7        9.058603   1.000285
    8       11.130724  -0.000000
    9       11.209468  -0.000000
   10       13.706678   0.000000

  0.1333333E+00  0.3754153E-15  0.3742002E-15  0.1777778E-02
    1       -5.329492   1.000000
    2        3.450644   1.000000
    3        4.355205   1.000000
    4        5.109416   1.000000
    5        5.167014   1.000000
    6        8.609762   1.000000
    7        9.786675  -0.000000
    8       10.306076  -0.000000
    9       10.579406  -0.000000
   10       14.276026   0.000000

  0.2000000E+00  0.3870416E-15  0.3742002E-15  0.1777778E-02
    1       -4.916743   1.000000
    2        2.665866   1.000000
    3        4.460626   1.000000
    4        4.590005   1.000000
    5        5.250629   1.000000
    6        8.473485   1.000000
    7        9.718424  -0.000001
    8       10.132824  -0.000000
    9       10.592365  -0.000000
   10       14.674220   0.000000

  0.2666667E+00  0.4120044E-15  0.3742002E-15  0.1777778E-02
    1       -4.361248   1.000000
    2        1.773558   1.000000
    3        4.139331   1.000000
    4        4.541375   1.000000
    5        5.159886   1.000000
    6        8.322726   1.000000
    7        9.616350  -0.000294
    8        9.927683  -0.000000
    9       11.173533  -0.000000
   10       14.917790   0.000000

  0.3333333E+00  0.4025434E-15  0.3742002E-15  0.1777778E-02
    1       -3.682878   1.000000
    2        0.833377   1.000000
    3        3.790808   1.000000
    4        4.575406   1.000000
    5        4.897338   1.000000
    6        8.183798   1.000000
    7        9.933982  -0.000000
    8       10.019619  -0.000000
    9       11.323783  -0.000000
   10       15.064010   0.000000

  0.4000000E+00  0.3732510E-15  0.3742002E-15  0.1777778E-02
    1       -2.906134   1.000000
    2       -0.119293   1.000000
    3        3.556089   1.000000
    4        4.573317   1.000000
    5        4.615127   1.000000
    6        8.078542   1.000000
    7       10.053882  -0.000000
    8       10.703306  -0.000000
    9       11.208219  -0.000000
   10       15.168415   0.000000

  0.4666667E+00  0.3915456E-15  0.3742002E-15  0.1777778E-02
    1       -2.080479   1.000000
    2       -1.033191   1.000000
    3        3.438445   1.000000
    4        4.444822   1.000000
    5        4.562322   1.000000
    6        8.022094   1.000000
    7       10.159731  -0.000000
    8       11.091211  -0.000000
    9       11.282612  -0.000000
   10       15.277430   0.000000

  0.6666667E-01  0.6666667E-01  0.3742002E-15  0.1777778E-02
    1       -5.413687   1.000000
    2        3.644416   1.000000
    3        4.303736   1.000000
    4        5.141369   1.000000
    5        5.252542   1.000000
    6        8.621595   1.000000
    7        9.590462  -0.001026
    8       10.561721  -0.000000
    9       10.686143  -0.000000
   10       14.430426   0.000000

  0.1333333E+00  0.6666667E-01  0.3742002E-15  0.3555556E-02
    1       -5.079906   1.000000
    2        3.003244   1.000000
    3        4.313168   1.000000
    4        4.778526   1.000000
    5        5.303151   1.000000
    6        8.455381   1.000000
    7        9.865748  -0.000000
    8       10.264634  -0.000000
    9       10.394432  -0.000000
   10       14.760255   0.000000

  0.2000000E+00  0.6666667E-01  0.3742002E-15  0.3555556E-02
    1       -4.595196   1.000000
    2        2.202514   1.000000
    3        4.240242   1.000000
    4        4.327971   1.000000
    5        5.449062   1.000000
    6        8.240451   1.000000
    7        9.397572   0.080879
    8       10.128439  -0.000000
    9       11.181379  -0.000000
   10       15.030174   0.000000

  0.2666667E+00  0.6666667E-01  0.3742002E-15  0.3555556E-02
    1       -3.976978   1.000000
    2        1.315899   1.000000
    3        3.959167   1.000000
    4        4.067277   1.000000
    5        5.493252   1.000000
    6        8.013984   1.000000
    7        9.320101   0.646973
    8       10.288555  -0.000000
    9       11.645106  -0.000000
   10       15.051092   0.000000

  0.3333333E+00  0.6666667E-01  0.3742002E-15  0.3555556E-02
    1       -3.246689   1.000000
    2        0.386738   1.000000
    3        3.692324   1.000000
    4        3.849473   1.000000
    5        5.439621   1.000000
    6        7.814595   1.000000
    7        9.563689  -0.003171
    8       10.663699  -0.000000
    9       11.698596  -0.000000
   10       15.311833   0.000000

  0.4000000E+00  0.6666667E-01  0.3742002E-15  0.3555556E-02
    1       -2.433314   1.000000
    2       -0.548560   1.000000
    3        3.532500   1.000000
    4        3.675189   1.000000
    5        5.366448   1.000000
    6        7.677718   1.000000
    7        9.879922  -0.000000
    8       11.083176  -0.000000
    9       11.601844  -0.000000
   10       15.439205   0.000000

  0.4666667E+00  0.6666667E-01  0.3742002E-15  0.1777778E-02
    1       -1.737217   1.000000
    2       -1.285784   1.000000
    3        3.479430   1.000000
    4        3.609694   1.000000
    5        5.335492   1.000000
    6        7.628945   1.000000
    7       10.019082  -0.000000
    8       11.280491  -0.000000
    9       11.552067  -0.000000
   10       15.567596   0.000000

  0.1333333E+00  0.1333333E+00  0.3742002E-15  0.1777778E-02
    1       -4.673717   1.000000
    2        2.409644   1.000000
    3        4.036511   1.000000
    4        4.412247   1.000000
    5        5.590629   1.000000
    6        8.141303   1.000000
    7        9.310206   0.723731
    8       10.218282  -0.000000
    9       11.259775  -0.000000
   10       15.009420   0.000000

  0.2000000E+00  0.1333333E+00  0.3742002E-15  0.3555556E-02
    1       -4.124821   1.000000
    2        1.702890   1.000000
    3        3.616761   1.000000
    4        4.097016   1.000000
    5        5.925551   1.000000
    6        7.749584   1.000000
    7        8.894714   1.000000
    8       10.460389  -0.000000
    9       12.111345   0.000000
   10       14.735731   0.000000

  0.2666667E+00  0.1333333E+00  0.3742002E-15  0.3555556E-02
    1       -3.451512   1.000000
    2        0.897675   1.000000
    3        3.197151   1.000000
    4        3.865354   1.000000
    5        6.147747   1.000000
    6        7.361626   1.000000
    7        8.842302   1.000000
    8       10.805888  -0.000000
    9       12.582551   0.000000
   10       15.001454   0.000000

  0.3333333E+00  0.1333333E+00  0.3742002E-15  0.3555556E-02
    1       -2.676641   1.000000
    2        0.019975   1.000000
    3        2.879862   1.000000
    4        3.720862   1.000000
    5        6.192578   1.000000
    6        7.051455   1.000000
    7        9.166505   1.017999
    8       11.028200  -0.000000
    9       12.637422   0.000000
   10       15.711432   0.000000

  0.4000000E+00  0.1333333E+00  0.3742002E-15  0.3555556E-02
    1       -1.837844   1.000000
    2       -0.876946   1.000000
    3        2.713291   1.000000
    4        3.653653   1.000000
    5        6.166952   1.000000
    6        6.878988   1.000000
    7        9.566278  -0.002865
    8       11.023958  -0.000000
    9       12.593194   0.000000
   10       16.180585   0.000000

  0.2000000E+00  0.2000000E+00  0.3742002E-15  0.1777778E-02
    1       -3.519810   1.000000
    2        1.166555   1.000000
    3        2.880752   1.000000
    4        3.949404   1.000000
    5        6.485830   1.000000
    6        7.160579   1.000000
    7        8.481959   1.000000
    8       10.863053  -0.000000
    9       13.144466   0.000000
   10       14.566892   0.000000

  0.2666667E+00  0.2000000E+00  0.3742002E-15  0.3555556E-02
    1       -2.799156   1.000000
    2        0.530246   1.000000
    3        2.253516   1.000000
    4        3.894529   1.000000
    5        6.608931   1.000000
    6        6.910349   1.000000
    7        8.421479   1.000000
    8       11.036148  -0.000000
    9       13.742610   0.000000
   10       14.932115   0.000000

  0.3333333E+00  0.2000000E+00  0.3742002E-15  0.3555556E-02
    1       -1.988497   1.000000
    2       -0.250103   1.000000
    3        1.875119   1.000000
    4        3.903852   1.000000
    5        6.206854   1.000000
    6        7.010488   1.000000
    7        8.840346   1.000000
    8       10.830854  -0.000000
    9       13.778376   0.000000
   10       15.745192   0.000000

  0.4000000E+00  0.2000000E+00  0.3742002E-15  0.1777778E-02
    1       -1.183028   1.000000
    2       -1.054960   1.000000
    3        1.755113   1.000000
    4        3.919032   1.000000
    5        6.056261   1.000000
    6        7.000479   1.000000
    7        9.186652   1.027150
    8       10.582614  -0.000000
    9       13.759366   0.000000
   10       16.131055   0.000000

  0.2666667E+00  0.2666667E+00  0.3742002E-15  0.1777778E-02
    1       -2.042056   1.000000
    2        0.154249   1.000000
    3        1.401987   1.000000
    4        4.047384   1.000000
    5        5.913957   1.000000
    6        7.679711   1.000000
    7        8.184292   1.000000
    8       10.770904  -0.000000
    9       14.849221   0.000000
   10       14.915504   0.000000

  0.3333333E+00  0.2666667E+00  0.3742002E-15  0.3555556E-02
    1       -1.220383   1.000000
    2       -0.420408   1.000000
    3        0.911657   1.000000
    4        4.251504   1.000000
    5        5.423665   1.000000
    6        7.847528   1.000000
    7        8.622639   1.000000
    8       10.218821  -0.000000
    9       14.830131   0.000000
   10       15.704573   0.000000

  0.3333333E+00  0.3333333E+00  0.3742002E-15  0.5925926E-03
    1       -0.581766   1.000000
    2       -0.581763   1.000000
    3        0.310438   1.000000
    4        4.762337   1.000000
    5        4.762339   1.000000
    6        8.447378   1.000000
    7        8.447378   1.000000
    8        9.764394  -0.000000
    9       15.484278   0.000000
   10       15.484278   0.000000

  0.3742002E-15  0.3742002E-15  0.6666667E-01  0.5925926E-03
    1       -5.605973   1.000000
    2        4.286085   1.000000
    3        4.286087   1.000000
    4        4.520998   1.000000
    5        6.254518   1.000000
    6        8.534159   1.000000
    7        8.534160   1.000000
    8       11.506031  -0.000000
    9       11.506034  -0.000000
   10       13.701632   0.000000

  0.6666667E-01  0.3766815E-15  0.6666667E-01  0.3555556E-02
    1       -5.520984   1.000000
    2        4.066642   1.000000
    3        4.314196   1.000000
    4        4.532143   1.000000
    5        6.033261   1.000000
    6        8.488131   1.000000
    7        8.860367   1.000000
    8       11.130949  -0.000000
    9       11.209187  -0.000000
   10       13.871171   0.000000

  0.1333333E+00  0.3754153E-15  0.6666667E-01  0.3555556E-02
    1       -5.269616   1.000000
    2        3.479425   1.000000
    3        4.382794   1.000000
    4        4.506744   1.000000
    5        5.664863   1.000000
    6        8.378161   1.000000
    7        9.453418  -0.034671
    8       10.586529  -0.000000
    9       10.727905  -0.000000
   10       14.285374   0.000000

  0.2000000E+00  0.3870416E-15  0.6666667E-01  0.3555556E-02
    1       -4.862077   1.000000
    2        2.670908   1.000000
    3        4.333547   1.000000
    4        4.451835   1.000000
    5        5.413750   1.000000
    6        8.272898   1.000000
    7        9.544865  -0.006314
    8       10.350611  -0.000000
    9       10.775470  -0.000000
   10       14.490281   0.000000

  0.2666667E+00  0.4120044E-15  0.6666667E-01  0.3555556E-02
    1       -4.314007   1.000000
    2        1.759090   1.000000
    3        4.056289   1.000000
    4        4.480637   1.000000
    5        5.191607   1.000000
    6        8.229091   1.000000
    7        9.553186  -0.004709
    8       10.127761  -0.000000
    9       11.231711  -0.000000
   10       14.623847   0.000000

  0.3333333E+00  0.4025434E-15  0.6666667E-01  0.3555556E-02
    1       -3.644849   1.000000
    2        0.808281   1.000000
    3        3.796500   1.000000
    4        4.459473   1.000000
    5        4.899556   1.000000
    6        8.240832   1.000000
    7        9.920894  -0.000000
    8       10.060683  -0.000000
    9       11.366193  -0.000000
   10       15.090534   0.000000

  0.4000000E+00  0.3732510E-15  0.6666667E-01  0.3555556E-02
    1       -2.877173   1.000000
    2       -0.147251   1.000000
    3        3.611302   1.000000
    4        4.414300   1.000000
    5        4.617506   1.000000
    6        8.262605   1.000000
    7       10.109061  -0.000000
    8       10.399714  -0.000000
    9       11.432615  -0.000000
   10       15.205136   0.000000

  0.4666667E+00  0.3915456E-15  0.6666667E-01  0.3555556E-02
    1       -2.047603   1.000000
    2       -1.070331   1.000000
    3        3.517331   1.000000
    4        4.380711   1.000000
    5        4.449830   1.000000
    6        8.271892   1.000000
    7       10.177352  -0.000000
    8       10.574690  -0.000000
    9       11.734332  -0.000000
   10       15.021232   0.000000

  0.6666667E-01  0.6666667E-01  0.6666667E-01  0.3555556E-02
    1       -5.352782   1.000000
    2        3.683823   1.000000
    3        4.328062   1.000000
    4        4.527410   1.000000
    5        5.775773   1.000000
    6        8.364758   1.000000
    7        9.364062   0.285802
    8       10.672245  -0.000000
    9       10.854442  -0.000000
   10       14.467113   0.000000

  0.1333333E+00  0.6666667E-01  0.6666667E-01  0.7111111E-02
    1       -5.023152   1.000000
    2        3.026845   1.000000
    3        4.255944   1.000000
    4        4.457801   1.000000
    5        5.602124   1.000000
    6        8.150699   1.000000
    7        9.799348  -0.000000
    8       10.248985  -0.000000
    9       10.731047  -0.000000
   10       14.698933   0.000000

  0.2000000E+00  0.6666667E-01  0.6666667E-01  0.7111111E-02
    1       -4.544843   1.000000
    2        2.203880   1.000000
    3        4.048066   1.000000
    4        4.325075   1.000000
    5        5.560233   1.000000
    6        7.969115   1.000000
    7        9.606268  -0.000487
    8       10.177380  -0.000000
    9       11.236753  -0.000000
   10       14.658449   0.000000

  0.2666667E+00  0.6666667E-01  0.6666667E-01  0.7111111E-02
    1       -3.935165   1.000000
    2        1.299479   1.000000
    3        3.811782   1.000000
    4        4.123378   1.000000
    5        5.479242   1.000000
    6        7.913210   1.000000
    7        9.546890  -0.005889
    8       10.279377  -0.000000
    9       11.630332  -0.000000
   10       14.811949   0.000000

  0.3333333E+00  0.6666667E-01  0.6666667E-01  0.7111111E-02
    1       -3.214724   1.000000
    2        0.362026   1.000000
    3        3.633804   1.000000
    4        3.886644   1.000000
    5        5.326993   1.000000
    6        7.934300   1.000000
    7        9.695823  -0.000003
    8       10.559922  -0.000000
    9       11.717534  -0.000000
   10       15.256578   0.000000

  0.4000000E+00  0.6666667E-01  0.6666667E-01  0.7111111E-02
    1       -2.408533   1.000000
    2       -0.575700   1.000000
    3        3.546433   1.000000
    4        3.683054   1.000000
    5        5.191908   1.000000
    6        7.941025   1.000000
    7        9.928823  -0.000000
    8       10.801504  -0.000000
    9       11.808447  -0.000000
   10       15.244746   0.000000

  0.4666667E+00  0.6666667E-01  0.6666667E-01  0.3555556E-02
    1       -1.672627   1.000000
    2       -1.355607   1.000000
    3        3.555925   1.000000
    4        3.569698   1.000000
    5        5.140376   1.000000
    6        7.937228   1.000000
    7       10.041261  -0.000000
    8       10.863212  -0.000000
    9       11.913216  -0.000000
   10       15.170387   0.000000

  0.1333333E+00  0.1333333E+00  0.6666667E-01  0.3555556E-02
    1       -4.622350   1.000000
    2        2.429477   1.000000
    3        3.871755   1.000000
    4        4.331221   1.000000
    5        5.793580   1.000000
    6        7.733288   1.000000
    7        9.699471  -0.000002
    8       10.170843  -0.000000
    9       11.296717  -0.000000
   10       14.832556   0.000000

  0.2000000E+00  0.1333333E+00  0.6666667E-01  0.7111111E-02
    1       -4.081192   1.000000
    2        1.707793   1.000000
    3        3.448915   1.000000
    4        4.126638   1.000000
    5        6.038661   1.000000
    6        7.379911   1.000000
    7        9.326910   0.591311
    8       10.454772  -0.000000
    9       12.039866  -0.000000
   10       14.587203   0.000000

  0.2666667E+00  0.1333333E+00  0.6666667E-01  0.7111111E-02
    1       -3.417760   1.000000
    2        0.885106   1.000000
    3        3.088812   1.000000
    4        3.924152   1.000000
    5        6.038669   1.000000
    6        7.326007   1.000000
    7        9.164127   1.016989
    8       10.779279  -0.000000
    9       12.473182   0.000000
   10       14.820646   0.000000

  0.3333333E+00  0.1333333E+00  0.6666667E-01  0.7111111E-02
    1       -2.653674   1.000000
    2       -0.000816   1.000000
    3        2.829341   1.000000
    4        3.781998   1.000000
    5        5.842371   1.000000
    6        7.416016   1.000000
    7        9.318979   0.655953
    8       10.970141  -0.000000
    9       12.574584   0.000000
   10       15.308363   0.000000

  0.4000000E+00  0.1333333E+00  0.6666667E-01  0.7111111E-02
    1       -1.817884   1.000000
    2       -0.903013   1.000000
    3        2.693356   1.000000
    4        3.713958   1.000000
    5        5.696937   1.000000
    6        7.438531   1.000000
    7        9.624430  -0.000193
    8       10.951990  -0.000000
    9       12.589486   0.000000
   10       15.542540   0.000000

  0.2000000E+00  0.2000000E+00  0.6666667E-01  0.3555556E-02
    1       -3.485468   1.000000
    2        1.168786   1.000000
    3        2.764047   1.000000
    4        3.987303   1.000000
    5        6.626993   1.000000
    6        6.759544   1.000000
    7        8.940646   1.000000
    8       10.853850  -0.000000
    9       12.976639   0.000000
   10       14.449308   0.000000

  0.2666667E+00  0.2000000E+00  0.6666667E-01  0.7111111E-02
    1       -2.776576   1.000000
    2        0.519739   1.000000
    3        2.198280   1.000000
    4        3.928990   1.000000
    5        6.195373   1.000000
    6        7.193917   1.000000
    7        8.756309   1.000000
    8       11.022069  -0.000000
    9       13.568627   0.000000
   10       14.756576   0.000000

  0.3333333E+00  0.2000000E+00  0.6666667E-01  0.7111111E-02
    1       -1.978910   1.000000
    2       -0.267101   1.000000
    3        1.863414   1.000000
    4        3.935942   1.000000
    5        5.800841   1.000000
    6        7.463586   1.000000
    7        8.986374   1.000004
    8       10.829444  -0.000000
    9       13.667189   0.000000
   10       15.437259   0.000000

  0.4000000E+00  0.2000000E+00  0.6666667E-01  0.3555556E-02
    1       -1.138360   1.000000
    2       -1.112763   1.000000
    3        1.757302   1.000000
    4        3.951493   1.000000
    5        5.653033   1.000000
    6        7.501258   1.000000
    7        9.265837   0.966443
    8       10.598869  -0.000000
    9       13.667995   0.000000
   10       15.759997   0.000000

  0.2666667E+00  0.2666667E+00  0.6666667E-01  0.3555556E-02
    1       -2.034289   1.000000
    2        0.137278   1.000000
    3        1.393609   1.000000
    4        4.059275   1.000000
    5        5.692843   1.000000
    6        7.806955   1.000000
    7        8.500214   1.000000
    8       10.780184  -0.000000
    9       14.676770   0.000000
   10       14.743119   0.000000

  0.3333333E+00  0.2666667E+00  0.6666667E-01  0.7111111E-02
    1       -1.232992   1.000000
    2       -0.438267   1.000000
    3        0.936824   1.000000
    4        4.246008   1.000000
    5        5.260850   1.000000
    6        8.093998   1.000000
    7        8.764116   1.000000
    8       10.254660  -0.000000
    9       14.712025   0.000000
   10       15.506292   0.000000

  0.3333333E+00  0.3333333E+00  0.6666667E-01  0.1185185E-02
    1       -0.619967   1.000000
    2       -0.619964   1.000000
    3        0.385751   1.000000
    4        4.699617   1.000000
    5        4.699619   1.000000
    6        8.621055   1.000000
    7        8.621056   1.000000
    8        9.807849  -0.000000
    9       15.351506   0.000000
   10       15.351506   0.000000

  0.3742002E-15  0.3742002E-15  0.1333333E+00  0.5925926E-03
    1       -5.417765   1.000000
    2        3.732425   1.000000
    3        4.443764   1.000000
    4        4.443766   1.000000
    5        6.900292   1.000000
    6        8.053223   1.000000
    7        8.053225   1.000000
    8       11.092172  -0.000000
    9       11.092175  -0.000000
   10       13.690016   0.000000

  0.6666667E-01  0.3766815E-15  0.1333333E+00  0.3555556E-02
    1       -5.335905   1.000000
    2        3.747333   1.000000
    3        4.209126   1.000000
    4        4.452635   1.000000
    5        6.555612   1.000000
    6        7.999285   1.000000
    7        8.471919   1.000000
    8       10.938681  -0.000000
    9       11.037362  -0.000000
   10       13.976419   0.000000

  0.1333333E+00  0.3754153E-15  0.1333333E+00  0.3555556E-02
    1       -5.094029   1.000000
    2        3.505795   1.000000
    3        3.857889   1.000000
    4        4.458500   1.000000
    5        6.063480   1.000000
    6        7.908489   1.000000
    7        9.030616   1.000062
    8       10.787044  -0.000000
    9       10.901645  -0.000000
   10       14.460448   0.000000

  0.2000000E+00  0.3870416E-15  0.1333333E+00  0.3555556E-02
    1       -4.702826   1.000000
    2        2.663538   1.000000
    3        3.867989   1.000000
    4        4.417135   1.000000
    5        5.639866   1.000000
    6        7.915040   1.000000
    7        9.231524   1.030454
    8       10.729836  -0.000000
    9       11.074839  -0.000000
   10       14.233305   0.000000

  0.2666667E+00  0.4120044E-15  0.1333333E+00  0.3555556E-02
    1       -4.178116   1.000000
    2        1.716186   1.000000
    3        3.851085   1.000000
    4        4.308693   1.000000
    5        5.253678   1.000000
    6        8.088385   1.000000
    7        9.362402   0.298401
    8       10.554443  -0.000000
    9       11.453012  -0.000000
   10       14.187156   0.000000

  0.3333333E+00  0.4025434E-15  0.1333333E+00  0.3555556E-02
    1       -3.538655   1.000000
    2        0.750651   1.000000
    3        3.802746   1.000000
    4        4.163723   1.000000
    5        4.893414   1.000000
    6        8.386349   1.000000
    7        9.658362  -0.000028
    8       10.401024  -0.000000
    9       11.574212  -0.000000
   10       14.548994   0.000000

  0.4000000E+00  0.3732510E-15  0.1333333E+00  0.3555556E-02
    1       -2.803785   1.000000
    2       -0.200213   1.000000
    3        3.755002   1.000000
    4        4.033896   1.000000
    5        4.603665   1.000000
    6        8.695220   1.000000
    7        9.934089  -0.000000
    8       10.289776  -0.000000
    9       11.766066  -0.000000
   10       14.769712   0.000000

  0.4666667E+00  0.3915456E-15  0.1333333E+00  0.3555556E-02
    1       -1.991935   1.000000
    2       -1.118825   1.000000
    3        3.728676   1.000000
    4        3.959223   1.000000
    5        4.441377   1.000000
    6        8.890232   1.000000
    7       10.016807  -0.000000
    8       10.232752  -0.000000
    9       12.159314   0.000000
   10       14.509849   0.000000

  0.6666667E-01  0.6666667E-01  0.1333333E+00  0.3555556E-02
    1       -5.174022   1.000000
    2        3.755949   1.000000
    3        3.798826   1.000000
    4        4.438303   1.000000
    5        6.240185   1.000000
    6        7.829569   1.000000
    7        8.998865   1.000009
    8       10.708866  -0.000000
    9       10.998617  -0.000000
   10       14.488670   0.000000

  0.1333333E+00  0.6666667E-01  0.1333333E+00  0.7111111E-02
    1       -4.857374   1.000000
    2        3.079769   1.000000
    3        3.740800   1.000000
    4        4.372675   1.000000
    5        5.990302   1.000000
    6        7.603325   1.000000
    7        9.475967  -0.032411
    8       10.539812  -0.000000
    9       11.065756  -0.000000
   10       14.612375   0.000000

  0.2000000E+00  0.6666667E-01  0.1333333E+00  0.7111111E-02
    1       -4.399080   1.000000
    2        2.197805   1.000000
    3        3.671806   1.000000
    4        4.260259   1.000000
    5        5.739727   1.000000
    6        7.583135   1.000000
    7        9.625908  -0.000179
    8       10.492635  -0.000000
    9       11.419984  -0.000000
   10       14.301116   0.000000

  0.2666667E+00  0.6666667E-01  0.1333333E+00  0.7111111E-02
    1       -3.816437   1.000000
    2        1.257187   1.000000
    3        3.574874   1.000000
    4        4.106303   1.000000
    5        5.410366   1.000000
    6        7.835308   1.000000
    7        9.791087  -0.000000
    8       10.410362  -0.000000
    9       11.717737  -0.000000
   10       14.362218   0.000000

  0.3333333E+00  0.6666667E-01  0.1333333E+00  0.7111111E-02
    1       -3.128624   1.000000
    2        0.309696   1.000000
    3        3.491042   1.000000
    4        3.939024   1.000000
    5        5.086197   1.000000
    6        8.212174   1.000000
    7        9.992796  -0.000000
    8       10.366909  -0.000000
    9       11.846757  -0.000000
   10       14.709532   0.000000

  0.4000000E+00  0.6666667E-01  0.1333333E+00  0.7111111E-02
    1       -2.354982   1.000000
    2       -0.618971   1.000000
    3        3.440549   1.000000
    4        3.809490   1.000000
    5        4.859411   1.000000
    6        8.519578   1.000000
    7       10.082945  -0.000000
    8       10.381383  -0.000000
    9       12.095732   0.000000
   10       14.724102   0.000000

  0.4666667E+00  0.6666667E-01  0.1333333E+00  0.3555556E-02
    1       -1.541829   1.000000
    2       -1.483481   1.000000
    3        3.424536   1.000000
    4        3.760973   1.000000
    5        4.778907   1.000000
    6        8.631636   1.000000
    7       10.105203  -0.000000
    8       10.384975  -0.000000
    9       12.287574   0.000000
   10       14.582770   0.000000

  0.1333333E+00  0.1333333E+00  0.1333333E+00  0.3555556E-02
    1       -4.473373   1.000000
    2        2.485373   1.000000
    3        3.431320   1.000000
    4        4.239526   1.000000
    5        6.210472   1.000000
    6        7.076107   1.000000
    7       10.016664  -0.000000
    8       10.238535  -0.000000
    9       11.437903  -0.000000
   10       14.588545   0.000000

  0.2000000E+00  0.1333333E+00  0.1333333E+00  0.7111111E-02
    1       -3.956452   1.000000
    2        1.718880   1.000000
    3        3.112288   1.000000
    4        4.119957   1.000000
    5        6.162352   1.000000
    6        6.993772   1.000000
    7        9.979003  -0.000000
    8       10.420119  -0.000000
    9       11.964431  -0.000000
   10       14.304702   0.000000

  0.2666667E+00  0.1333333E+00  0.1333333E+00  0.7111111E-02
    1       -3.324444   1.000000
    2        0.854715   1.000000
    3        2.872125   1.000000
    4        4.000812   1.000000
    5        5.707079   1.000000
    6        7.480436   1.000000
    7        9.814641  -0.000000
    8       10.685519  -0.000000
    9       12.323910   0.000000
   10       14.431167   0.000000

  0.3333333E+00  0.1333333E+00  0.1333333E+00  0.7111111E-02
    1       -2.597242   1.000000
    2       -0.041219   1.000000
    3        2.711825   1.000000
    4        3.911805   1.000000
    5        5.320838   1.000000
    6        7.987152   1.000000
    7        9.746056  -0.000000
    8       10.805287  -0.000000
    9       12.496271   0.000000
   10       14.762941   0.000000

  0.4000000E+00  0.1333333E+00  0.1333333E+00  0.7111111E-02
    1       -1.797755   1.000000
    2       -0.927881   1.000000
    3        2.630162   1.000000
    4        3.871040   1.000000
    5        5.105890   1.000000
    6        8.282690   1.000000
    7        9.798487  -0.000000
    8       10.775358  -0.000000
    9       12.610467   0.000000
   10       14.891758   0.000000

  0.2000000E+00  0.2000000E+00  0.1333333E+00  0.3555556E-02
    1       -3.389792   1.000000
    2        1.173193   1.000000
    3        2.514056   1.000000
    4        4.033545   1.000000
    5        6.119326   1.000000
    6        7.009306   1.000000
    7        9.724207  -0.000000
    8       10.808905  -0.000000
    9       12.680222   0.000000
   10       14.195407   0.000000

  0.2666667E+00  0.2000000E+00  0.1333333E+00  0.7111111E-02
    1       -2.718120   1.000000
    2        0.492074   1.000000
    3        2.079093   1.000000
    4        3.997125   1.000000
    5        5.623938   1.000000
    6        7.616543   1.000000
    7        9.478396  -0.031541
    8       10.976121  -0.000000
    9       13.229769   0.000000
   10       14.406887   0.000000
