 running on    4 total cores
 distrk:  each k-point on    4 cores,    1 groups
 distr:  one band on    2 cores,    2 groups
 using from now: INCAR     
 vasp.5.4.4.18Apr17-6-g9f103f2a35 (build Dec  7 2020 12:43:57) complex           
 POSCAR found type information on POSCAR  Mo B 
 POSCAR found :  2 types and       3 ions
 scaLAPACK will be used
 LDA part: xc-table for Pade appr. of Perdew
 POSCAR, INCAR and KPOINTS ok, starting setup
 FFT: planning ...
 WAVECAR not read
 augmentation electrons   12.018373587906812     
 soft         electrons   0.0000000000000000     
 augmentation electrons   12.018373587906812     
 soft         electrons   0.0000000000000000     
 augmentation electrons   12.018373587906812     
 soft         electrons   0.0000000000000000     
 augmentation electrons   12.018373587906812     
 soft         electrons   0.0000000000000000     
 total        electrons   12.018373587906812     
 total        electrons   12.018373587906812     
 total        electrons   12.018373587906812     
 total        electrons   12.018373587906812     
 augmentation electrons   169.75791458332097     
 soft         electrons   0.0000000000000000     
 augmentation electrons   169.75791458332097     
 soft         electrons   0.0000000000000000     
 augmentation electrons   169.75791458332097     
 soft         electrons   0.0000000000000000     
 augmentation electrons   169.75791458332097     
 soft         electrons   0.0000000000000000     
 total        electrons   169.75791458332097     
 total        electrons   169.75791458332097     
 total        electrons   169.75791458332097     
 total        electrons   169.75791458332097     
 entering main loop
       N       E                     dE             d eps       ncg     rms          rms(c)
DAV:   1     0.383845707128E+02    0.38385E+02   -0.57075E+03  4320   0.105E+03
DAV:   2    -0.182695073578E+02   -0.56654E+02   -0.53727E+02  5166   0.218E+02
DAV:   3    -0.204868383088E+02   -0.22173E+01   -0.21162E+01  6152   0.380E+01
DAV:   4    -0.205150148731E+02   -0.28177E-01   -0.27899E-01  5580   0.318E+00
DAV:   5    -0.205154330716E+02   -0.41820E-03   -0.41762E-03  5612   0.298E-01    0.338E+01
RMM:   6    -0.161269356578E+02    0.43885E+01   -0.14619E+01  4341   0.250E+01    0.757E+00
RMM:   7    -0.162321558406E+02   -0.10522E+00   -0.67992E-01  4329   0.558E+00    0.456E+00
RMM:   8    -0.163727023165E+02   -0.14055E+00   -0.90286E-01  4320   0.124E+01    0.469E+00
RMM:   9    -0.163256002068E+02    0.47102E-01   -0.18397E-01  4324   0.323E+00    0.101E+00
RMM:  10    -0.163233273006E+02    0.22729E-02   -0.17879E-02  4331   0.188E+00    0.551E-01
RMM:  11    -0.163233301729E+02   -0.28723E-05   -0.86830E-03  4320   0.107E+00    0.222E-01
RMM:  12    -0.163275751591E+02   -0.42450E-02   -0.22945E-02  4320   0.217E+00    0.106E-01
RMM:  13    -0.163275490777E+02    0.26081E-04   -0.57054E-04  4349   0.239E-01    0.823E-02
RMM:  14    -0.163275428652E+02    0.62125E-05   -0.42559E-04  4321   0.251E-01    0.352E-02
RMM:  15    -0.163275653281E+02   -0.22463E-04   -0.92000E-05  4349   0.959E-02    0.247E-02
RMM:  16    -0.163275603144E+02    0.50137E-05   -0.42477E-05  4319   0.927E-02    0.845E-03
RMM:  17    -0.163275606444E+02   -0.33007E-06   -0.18076E-06  3021   0.194E-02
   1 F= -.16327561E+02 E0= -.16327587E+02  d E =-.163276E+02
 curvature:   0.00 expect dE= 0.000E+00 dE for cont linesearch  0.000E+00
 trial: gam= 0.00000 g(F)=  0.538E-44 g(S)=  0.105E+01 ort = 0.000E+00 (trialstep = 0.100E+01)
 search vector abs. value=  0.105E+01
 bond charge predicted
       N       E                     dE             d eps       ncg     rms          rms(c)
DAV:   1    -0.167671604043E+02   -0.43960E+00   -0.25633E+01  4358   0.484E+01    0.153E+01
RMM:   2    -0.162419377732E+02    0.52522E+00   -0.14841E+00  4320   0.852E+00    0.577E+00
RMM:   3    -0.161848076002E+02    0.57130E-01   -0.12895E-01  4321   0.311E+00    0.398E+00
RMM:   4    -0.161899089787E+02   -0.51014E-02   -0.11655E-01  4320   0.323E+00    0.730E-01
RMM:   5    -0.161918389233E+02   -0.19299E-02   -0.15062E-02  4338   0.910E-01    0.210E-01
RMM:   6    -0.161902949776E+02    0.15439E-02   -0.46476E-03  4320   0.742E-01    0.333E-02
RMM:   7    -0.161904316967E+02   -0.13672E-03   -0.61205E-04  4327   0.159E-01    0.431E-02
RMM:   8    -0.161904220529E+02    0.96438E-05   -0.40739E-05  4351   0.662E-02    0.289E-02
RMM:   9    -0.161904508773E+02   -0.28824E-04   -0.58024E-05  4328   0.101E-01    0.189E-02
RMM:  10    -0.161904816013E+02   -0.30724E-04   -0.17423E-04  4329   0.178E-01    0.604E-03
RMM:  11    -0.161904818495E+02   -0.24819E-06   -0.11346E-05  4196   0.304E-02    0.210E-03
RMM:  12    -0.161904824684E+02   -0.61892E-06   -0.46286E-06  3754   0.273E-02
   2 F= -.16190482E+02 E0= -.16190435E+02  d E =0.137078E+00
 trial-energy change:    0.137078  1 .order    0.059527   -1.047267    1.166321
 step:   0.4218(harm=  0.4731)  dis= 0.00000  next Energy=   -16.542629 (dE=-0.215E+00)
 bond charge predicted
       N       E                     dE             d eps       ncg     rms          rms(c)
DAV:   1    -0.167112073888E+02   -0.52073E+00   -0.88720E+00  4352   0.301E+01    0.809E+00
RMM:   2    -0.165471868228E+02    0.16402E+00   -0.26716E-01  4320   0.397E+00    0.278E+00
RMM:   3    -0.165310268957E+02    0.16160E-01   -0.42672E-02  4320   0.162E+00    0.130E+00
RMM:   4    -0.165318696063E+02   -0.84271E-03   -0.26645E-02  4320   0.158E+00    0.402E-01
RMM:   5    -0.165326824624E+02   -0.81286E-03   -0.26670E-03  4345   0.552E-01    0.787E-02
RMM:   6    -0.165324642045E+02    0.21826E-03   -0.60574E-04  4320   0.309E-01    0.258E-02
RMM:   7    -0.165324673247E+02   -0.31202E-05   -0.22395E-04  4326   0.107E-01    0.178E-02
RMM:   8    -0.165324615888E+02    0.57359E-05   -0.18849E-05  4328   0.472E-02    0.886E-03
RMM:   9    -0.165324716890E+02   -0.10100E-04   -0.49325E-05  4322   0.101E-01    0.885E-03
RMM:  10    -0.165324715728E+02    0.11615E-06   -0.92162E-07  2893   0.707E-03
   3 F= -.16532472E+02 E0= -.16532499E+02  d E =-.204911E+00
 curvature:  -0.23 expect dE=-0.539E-02 dE for cont linesearch -0.155E-03
 ZBRENT: interpolating
 opt :   0.4115  next Energy=   -16.532608 (dE=-0.205E+00)
 bond charge predicted
       N       E                     dE             d eps       ncg     rms          rms(c)
DAV:   1    -0.165326812358E+02   -0.20955E-03   -0.28550E-03  4666   0.535E-01    0.168E-01
RMM:   2    -0.165326313340E+02    0.49902E-04   -0.93689E-05  4320   0.721E-02    0.626E-02
RMM:   3    -0.165326293640E+02    0.19700E-05   -0.13731E-05  4320   0.311E-02    0.314E-02
RMM:   4    -0.165326321158E+02   -0.27517E-05   -0.94374E-06  4302   0.318E-02    0.800E-03
RMM:   5    -0.165326323760E+02   -0.26028E-06   -0.79311E-07  2474   0.111E-02
   4 F= -.16532632E+02 E0= -.16532661E+02  d E =-.205072E+00
 curvature:  -0.21 expect dE=-0.439E-02 dE for cont linesearch -0.131E-05
 trial: gam= 0.02285 g(F)=  0.107E-42 g(S)=  0.214E-01 ort =-0.258E-02 (trialstep = 0.882E+00)
 search vector abs. value=  0.218E-01
 bond charge predicted
       N       E                     dE             d eps       ncg     rms          rms(c)
DAV:   1    -0.165477017205E+02   -0.15070E-01   -0.52798E-01  4384   0.620E+00    0.365E-01
RMM:   2    -0.165450625937E+02    0.26391E-02   -0.13924E-02  4326   0.106E+00    0.386E-01
RMM:   3    -0.165448574645E+02    0.20513E-03   -0.59085E-04  4359   0.172E-01    0.244E-01
RMM:   4    -0.165448570238E+02    0.44068E-06   -0.48839E-04  4320   0.244E-01    0.368E-02
RMM:   5    -0.165448703463E+02   -0.13322E-04   -0.27484E-05  4332   0.539E-02    0.344E-02
RMM:   6    -0.165449528670E+02   -0.82521E-04   -0.15127E-04  4320   0.168E-01    0.222E-02
RMM:   7    -0.165449740780E+02   -0.21211E-04   -0.30313E-05  4186   0.715E-02    0.109E-02
RMM:   8    -0.165449834622E+02   -0.93842E-05   -0.84887E-05  4319   0.128E-01    0.391E-03
RMM:   9    -0.165449837457E+02   -0.28356E-06   -0.42575E-06  3579   0.325E-02
   5 F= -.16544984E+02 E0= -.16545009E+02  d E =-.123514E-01
 trial-energy change:   -0.012351  1 .order   -0.012132   -0.018787   -0.005478
 step:   1.2024(harm=  1.2454)  dis= 0.00000  next Energy=   -16.545988 (dE=-0.134E-01)
 bond charge predicted
       N       E                     dE             d eps       ncg     rms          rms(c)
DAV:   1    -0.165464367751E+02   -0.14533E-02   -0.69771E-02  4410   0.225E+00    0.132E-01
RMM:   2    -0.165461030487E+02    0.33373E-03   -0.17593E-03  4326   0.381E-01    0.135E-01
RMM:   3    -0.165460725447E+02    0.30504E-04   -0.73449E-05  4360   0.654E-02    0.842E-02
RMM:   4    -0.165460713001E+02    0.12446E-05   -0.73402E-05  4320   0.957E-02    0.137E-02
RMM:   5    -0.165460749224E+02   -0.36223E-05   -0.86959E-06  4231   0.309E-02    0.143E-02
RMM:   6    -0.165460833277E+02   -0.84053E-05   -0.10592E-05  3986   0.457E-02    0.660E-03
RMM:   7    -0.165460866426E+02   -0.33149E-05   -0.48985E-06  3531   0.300E-02    0.356E-03
RMM:   8    -0.165460879228E+02   -0.12802E-05   -0.96449E-06  3948   0.427E-02    0.192E-03
RMM:   9    -0.165460879392E+02   -0.16442E-07   -0.33211E-07  2381   0.833E-03
   6 F= -.16546088E+02 E0= -.16546041E+02  d E =-.134556E-01
 curvature:  -0.63 expect dE=-0.237E-04 dE for cont linesearch -0.151E-04
 trial: gam=-0.02732 g(F)=  0.310E-43 g(S)=  0.378E-04 ort = 0.723E-03 (trialstep = 0.946E+00)
 search vector abs. value=  0.145E-04
 reached required accuracy - stopping structural energy minimisation
 writing wavefunctions
 augmentation electrons   1.1735609629462505     
 augmentation electrons   1.1735609629462505     
 soft         electrons   10.848282919973627     
 augmentation electrons   1.1735609629462505     
 soft         electrons   10.848282919973627     
 augmentation electrons   1.1735609629462505     
 soft         electrons   10.848282919973627     
 soft         electrons   10.848282919973627     
 total        electrons   12.021843882919878     
 total        electrons   12.021843882919878     
 total        electrons   12.021843882919878     
 total        electrons   12.021843882919878     
