   3    3    1    1
  2.3522611e+01   2.9963302e-10   2.9963302e-10   3.0253494e-10   5.0000000e-16
            1.000000e-04
  CAR
 DOS and projected DOS file by LOBSTER. Energy is shifted such that the Fermi level lies at 0 eV. 
     34.03015163     -11.01990399   901       9.00234295       1.00000000
-20.02225   0.00000   0.00000
-19.97219   0.00000   0.00000
-19.92214   0.00000   0.00000
-19.87208   0.00000   0.00000
-19.82202   0.00000   0.00000
-19.77197   0.00000   0.00000
-19.72191   0.00000   0.00000
-19.67186   0.00000   0.00000
-19.62180   0.00000   0.00000
-19.57175   0.00000   0.00000
-19.52169   0.00000   0.00000
-19.47164   0.00000   0.00000
-19.42158   0.00000   0.00000
-19.37152   0.00000   0.00000
-19.32147   0.00000   0.00000
-19.27141   0.00000   0.00000
-19.22136   0.00000   0.00000
-19.17130   0.00000   0.00000
-19.12125   0.00000   0.00000
-19.07119   0.00000   0.00000
-19.02113   0.00000   0.00000
-18.97108   0.00000   0.00000
-18.92102   0.00000   0.00000
-18.87097   0.00000   0.00000
-18.82091   0.00000   0.00000
-18.77086   0.00000   0.00000
-18.72080   0.00000   0.00000
-18.67075   0.00000   0.00000
-18.62069   0.00000   0.00000
-18.57063   0.00000   0.00000
-18.52058   0.00000   0.00000
-18.47052   0.00000   0.00000
-18.42047   0.00000   0.00000
-18.37041   0.00000   0.00000
-18.32036   0.00000   0.00000
-18.27030   0.00000   0.00000
-18.22024   0.00000   0.00000
-18.17019   0.00000   0.00000
-18.12013   0.00000   0.00000
-18.07008   0.00000   0.00000
-18.02002   0.00000   0.00000
-17.96997   0.00000   0.00000
-17.91991   0.00000   0.00000
-17.86986   0.00000   0.00000
-17.81980   0.00000   0.00000
-17.76974   0.00000   0.00000
-17.71969   0.00000   0.00000
-17.66963   0.00000   0.00000
-17.61958   0.00000   0.00000
-17.56952   0.00000   0.00000
-17.51947   0.00000   0.00000
-17.46941   0.00000   0.00000
-17.41935   0.00000   0.00000
-17.36930   0.00000   0.00000
-17.31924   0.00000   0.00000
-17.26919   0.00000   0.00000
-17.21913   0.00000   0.00000
-17.16908   0.00000   0.00000
-17.11902   0.00000   0.00000
-17.06897   0.00000   0.00000
-17.01891   0.00000   0.00000
-16.96885   0.00000   0.00000
-16.91880   0.00000   0.00000
-16.86874   0.00000   0.00000
-16.81869   0.00000   0.00000
-16.76863   0.00000   0.00000
-16.71858   0.00000   0.00000
-16.66852   0.00000   0.00000
-16.61846   0.00000   0.00000
-16.56841   0.00000   0.00000
-16.51835   0.00000   0.00000
-16.46830   0.00000   0.00000
-16.41824   0.00000   0.00000
-16.36819   0.00000   0.00000
-16.31813   0.00000   0.00000
-16.26808   0.00000   0.00000
-16.21802   0.00000   0.00000
-16.16796   0.00000   0.00000
-16.11791   0.00000   0.00000
-16.06785   0.00000   0.00000
-16.01780   0.00000   0.00000
-15.96774   0.00000   0.00000
-15.91769   0.00000   0.00000
-15.86763   0.00000   0.00000
-15.81758   0.00000   0.00000
-15.76752   0.00000   0.00000
-15.71746   0.00000   0.00000
-15.66741   0.00000   0.00000
-15.61735   0.00000   0.00000
-15.56730   0.00000   0.00000
-15.51724   0.00000   0.00000
-15.46719   0.00000   0.00000
-15.41713   0.00000   0.00000
-15.36707   0.00000   0.00000
-15.31702   0.00000   0.00000
-15.26696   0.00000   0.00000
-15.21691   0.00000   0.00000
-15.16685   0.00000   0.00000
-15.11680   0.00000   0.00000
-15.06674   0.00000   0.00000
-15.01669   0.00000   0.00000
-14.96663   0.00000   0.00000
-14.91657   0.00000   0.00000
-14.86652   0.00000   0.00000
-14.81646   0.00000   0.00000
-14.76641   0.00000   0.00000
-14.71635   0.00000   0.00000
-14.66630   0.00181   0.00009
-14.61624   0.02667   0.00143
-14.56618   0.05974   0.00442
-14.51613   0.06688   0.00776
-14.46607   0.08193   0.01186
-14.41602   0.09887   0.01681
-14.36596   0.11045   0.02234
-14.31591   0.11565   0.02813
-14.26585   0.12400   0.03434
-14.21580   0.13371   0.04103
-14.16574   0.14346   0.04821
-14.11568   0.15391   0.05592
-14.06563   0.16331   0.06409
-14.01557   0.16904   0.07255
-13.96552   0.17596   0.08136
-13.91546   0.18264   0.09050
-13.86541   0.18949   0.09999
-13.81535   0.19755   0.10988
-13.76529   0.20612   0.12019
-13.71524   0.21494   0.13095
-13.66518   0.22354   0.14214
-13.61513   0.23023   0.15366
-13.56507   0.23602   0.16548
-13.51502   0.24293   0.17764
-13.46496   0.25024   0.19016
-13.41491   0.25775   0.20307
-13.36485   0.26542   0.21635
-13.31479   0.27319   0.23003
-13.26474   0.28115   0.24410
-13.21468   0.28928   0.25858
-13.16463   0.29843   0.27352
-13.11457   0.30785   0.28893
-13.06452   0.31628   0.30476
-13.01446   0.32475   0.32101
-12.96440   0.33317   0.33769
-12.91435   0.34165   0.35479
-12.86429   0.35048   0.37234
-12.81424   0.35992   0.39035
-12.76418   0.37076   0.40891
-12.71413   0.38476   0.42817
-12.66407   0.39948   0.44817
-12.61402   0.41476   0.46893
-12.56396   0.43044   0.49047
-12.51390   0.44617   0.51281
-12.46385   0.46804   0.53624
-12.41379   0.51857   0.56219
-12.36374   0.51895   0.58817
-12.31368   0.52396   0.61440
-12.26363   0.52068   0.64046
-12.21357   0.52394   0.66669
-12.16352   0.52596   0.69301
-12.11346   0.52548   0.71932
-12.06340   0.52848   0.74577
-12.01335   0.53162   0.77238
-11.96329   0.53449   0.79913
-11.91324   0.53570   0.82595
-11.86318   0.53570   0.85276
-11.81313   0.53894   0.87974
-11.76307   0.54236   0.90689
-11.71301   0.54541   0.93419
-11.66296   0.54781   0.96161
-11.61290   0.54909   0.98910
-11.56285   0.55012   1.01663
-11.51279   0.55287   1.04431
-11.46274   0.55653   1.07217
-11.41268   0.56037   1.10021
-11.36263   0.56431   1.12846
-11.31257   0.56808   1.15690
-11.26251   0.57156   1.18551
-11.21246   0.57463   1.21427
-11.16240   0.57989   1.24330
-11.11235   0.58639   1.27265
-11.06229   0.59431   1.30240
-11.01224   0.60283   1.33257
-10.96218   0.61231   1.36322
-10.91212   0.62430   1.39447
-10.86207   0.64804   1.42691
-10.81201   0.66752   1.46032
-10.76196   0.69180   1.49495
-10.71190   0.72470   1.53123
-10.66185   0.79559   1.57105
-10.61179   0.92952   1.61758
-10.56174   0.93737   1.66450
-10.51168   0.80282   1.70468
-10.46162   0.85177   1.74732
-10.41157   0.66186   1.78045
-10.36151   0.48987   1.80497
-10.31146   0.43850   1.82692
-10.26140   0.40627   1.84726
-10.21135   0.37800   1.86618
-10.16129   0.35187   1.88379
-10.11123   0.33415   1.90052
-10.06118   0.43493   1.92229
-10.01112   0.49785   1.94721
 -9.96107   0.36336   1.96540
 -9.91101   0.28566   1.97969
 -9.86096   0.26002   1.99271
 -9.81090   0.26267   2.00586
 -9.76085   0.28068   2.01991
 -9.71079   0.30803   2.03533
 -9.66073   0.29549   2.05012
 -9.61068   0.27623   2.06394
 -9.56062   0.26721   2.07732
 -9.51057   0.26733   2.09070
 -9.46051   0.26613   2.10402
 -9.41046   0.26400   2.11724
 -9.36040   0.30584   2.13255
 -9.31034   0.37205   2.15117
 -9.26029   0.43960   2.17317
 -9.21023   0.50762   2.19858
 -9.16018   0.54305   2.22576
 -9.11012   0.51880   2.25173
 -9.06007   0.52364   2.27794
 -9.01001   0.52795   2.30437
 -8.95996   0.55657   2.33223
 -8.90990   0.56434   2.36048
 -8.85984   0.59378   2.39020
 -8.80979   0.58490   2.41948
 -8.75973   0.57946   2.44848
 -8.70968   0.58228   2.47763
 -8.65962   0.60443   2.50789
 -8.60957   0.63372   2.53961
 -8.55951   0.64160   2.57172
 -8.50945   0.64654   2.60409
 -8.45940   0.64728   2.63649
 -8.40934   0.67763   2.67041
 -8.35929   0.63923   2.70240
 -8.30923   0.62980   2.73393
 -8.25918   0.60167   2.76404
 -8.20912   0.59503   2.79383
 -8.15907   0.58918   2.82332
 -8.10901   0.58524   2.85262
 -8.05895   0.58549   2.88192
 -8.00890   0.58059   2.91098
 -7.95884   0.57339   2.93969
 -7.90879   0.57182   2.96831
 -7.85873   0.57282   2.99698
 -7.80868   0.57602   3.02581
 -7.75862   0.57967   3.05483
 -7.70857   0.58363   3.08404
 -7.65851   0.58771   3.11346
 -7.60845   0.59377   3.14318
 -7.55840   0.59967   3.17320
 -7.50834   0.60515   3.20349
 -7.45829   0.61362   3.23421
 -7.40823   0.61997   3.26524
 -7.35818   0.62638   3.29659
 -7.30812   0.63403   3.32833
 -7.25806   0.64262   3.36050
 -7.20801   0.65460   3.39326
 -7.15795   0.67115   3.42686
 -7.10790   0.69641   3.46172
 -7.05784   0.73295   3.49841
 -7.00779   0.78285   3.53759
 -6.95773   0.84178   3.57973
 -6.90768   0.90099   3.62483
 -6.85762   0.92192   3.67097
 -6.80756   0.82622   3.71233
 -6.75751   0.76343   3.75055
 -6.70745   0.73331   3.78725
 -6.65740   0.73286   3.82394
 -6.60734   0.75353   3.86165
 -6.55729   0.78898   3.90115
 -6.50723   0.76228   3.93930
 -6.45717   0.76275   3.97748
 -6.40712   0.76526   4.01579
 -6.35706   0.78017   4.05484
 -6.30701   0.82030   4.09590
 -6.25695   0.86120   4.13901
 -6.20690   0.96372   4.18725
 -6.15684   1.25120   4.24988
 -6.10679   1.31315   4.31561
 -6.05673   1.19281   4.37532
 -6.00667   1.13727   4.43224
 -5.95662   1.10436   4.48752
 -5.90656   1.08345   4.54176
 -5.85651   1.05919   4.59477
 -5.80645   1.05666   4.64767
 -5.75640   1.11131   4.70329
 -5.70634   1.12536   4.75962
 -5.65628   1.05368   4.81237
 -5.60623   1.01366   4.86311
 -5.55617   1.06955   4.91664
 -5.50612   1.20245   4.97683
 -5.45606   1.24598   5.03920
 -5.40601   1.24881   5.10171
 -5.35595   1.23946   5.16375
 -5.30590   1.23818   5.22573
 -5.25584   1.23658   5.28763
 -5.20578   1.23772   5.34958
 -5.15573   1.25186   5.41224
 -5.10567   1.26638   5.47563
 -5.05562   1.27901   5.53966
 -5.00556   1.30020   5.60474
 -4.95551   1.33255   5.67144
 -4.90545   1.35501   5.73927
 -4.85539   1.36818   5.80775
 -4.80534   1.41427   5.87854
 -4.75528   1.39439   5.94834
 -4.70523   1.40369   6.01860
 -4.65517   1.41292   6.08933
 -4.60512   1.42599   6.16071
 -4.55506   1.44326   6.23295
 -4.50501   1.44034   6.30505
 -4.45495   1.50105   6.38018
 -4.40489   1.50489   6.45551
 -4.35484   1.51378   6.53128
 -4.30478   1.51993   6.60736
 -4.25473   1.63085   6.68900
 -4.20467   1.88821   6.78351
 -4.15462   1.88915   6.87808
 -4.10456   1.85396   6.97088
 -4.05451   1.82642   7.06230
 -4.00445   1.87640   7.15622
 -3.95439   1.89212   7.25093
 -3.90434   1.92551   7.34732
 -3.85428   2.08971   7.45192
 -3.80423   2.03944   7.55400
 -3.75417   2.10241   7.65924
 -3.70412   2.09255   7.76399
 -3.65406   2.14366   7.87129
 -3.60400   1.84134   7.96346
 -3.55395   1.71107   8.04911
 -3.50389   1.59455   8.12892
 -3.45384   1.43860   8.20093
 -3.40378   1.29319   8.26566
 -3.35373   1.24400   8.32793
 -3.30367   1.18267   8.38713
 -3.25362   1.14491   8.44444
 -3.20356   1.11319   8.50016
 -3.15350   1.08345   8.55440
 -3.10345   1.05447   8.60718
 -3.05339   1.00582   8.65752
 -3.00334   0.95369   8.70526
 -2.95328   0.95290   8.75296
 -2.90323   0.96166   8.80110
 -2.85317   0.97602   8.84995
 -2.80311   0.98772   8.89939
 -2.75306   0.99046   8.94897
 -2.70300   0.98885   8.99847
 -2.65295   0.97800   9.04742
 -2.60289   0.96619   9.09579
 -2.55284   0.95514   9.14360
 -2.50278   0.94547   9.19092
 -2.45273   0.93419   9.23768
 -2.40267   0.91974   9.28372
 -2.35261   0.90243   9.32889
 -2.30256   0.88440   9.37316
 -2.25250   0.86669   9.41654
 -2.20245   0.84687   9.45894
 -2.15239   0.82996   9.50048
 -2.10234   0.81442   9.54125
 -2.05228   0.80028   9.58130
 -2.00222   0.77994   9.62034
 -1.95217   0.75700   9.65824
 -1.90211   0.72397   9.69448
 -1.85206   0.69520   9.72927
 -1.80200   0.66515   9.76257
 -1.75195   0.59679   9.79244
 -1.70189   0.55297   9.82012
 -1.65184   0.52102   9.84620
 -1.60178   0.48450   9.87045
 -1.55172   0.43892   9.89242
 -1.50167   0.39067   9.91198
 -1.45161   0.35144   9.92957
 -1.40156   0.32445   9.94581
 -1.35150   0.31416   9.96154
 -1.30145   0.31228   9.97717
 -1.25139   0.21462   9.98791
 -1.20133   0.20363   9.99810
 -1.15128   0.18767  10.00750
 -1.10122   0.19125  10.01707
 -1.05117   0.26134  10.03015
 -1.00111   0.36966  10.04866
 -0.95106   0.54374  10.07587
 -0.90100   0.64766  10.10829
 -0.85095   0.69323  10.14299
 -0.80089   0.72807  10.17943
 -0.75083   0.76856  10.21791
 -0.70078   0.81301  10.25860
 -0.65072   0.85454  10.30138
 -0.60067   0.88758  10.34580
 -0.55061   0.91009  10.39136
 -0.50056   0.93388  10.43811
 -0.45050   0.96454  10.48639
 -0.40044   0.99713  10.53630
 -0.35039   1.02245  10.58748
 -0.30033   1.04746  10.63991
 -0.25028   1.07008  10.69347
 -0.20022   1.09854  10.74846
 -0.15017   1.14388  10.80572
 -0.10011   1.22851  10.86721
 -0.05006   1.30376  10.93247
 -0.00000   1.33696  10.99940
  0.05006   1.33695  11.06632
  0.10011   1.26730  11.12975
  0.15017   1.16599  11.18812
  0.20022   1.16217  11.24629
  0.25028   1.21707  11.30721
  0.30033   1.28423  11.37149
  0.35039   1.32945  11.43804
  0.40044   1.34506  11.50537
  0.45050   1.41201  11.57605
  0.50056   1.54447  11.65336
  0.55061   1.63734  11.73531
  0.60067   1.74823  11.82282
  0.65072   1.90259  11.91806
  0.70078   2.06773  12.02156
  0.75083   2.29542  12.13646
  0.80089   2.64201  12.26871
  0.85095   2.88031  12.41288
  0.90100   2.95599  12.56085
  0.95106   3.25303  12.72368
  1.00111   3.94134  12.92096
  1.05117   4.37651  13.14003
  1.10122   4.48530  13.36455
  1.15128   4.47079  13.58834
  1.20133   3.76157  13.77662
  1.25139   2.95776  13.92468
  1.30145   2.92558  14.07112
  1.35150   3.36726  14.23967
  1.40156   3.96375  14.43808
  1.45161   2.92894  14.58469
  1.50167   1.82545  14.67606
  1.55172   1.53915  14.75310
  1.60178   1.38180  14.82227
  1.65184   1.34203  14.88945
  1.70189   1.34720  14.95688
  1.75195   1.38729  15.02632
  1.80200   1.46891  15.09985
  1.85206   1.62136  15.18101
  1.90211   1.76353  15.26928
  1.95217   1.77428  15.35810
  2.00222   1.80338  15.44836
  2.05228   1.73571  15.53525
  2.10234   1.63305  15.61699
  2.15239   1.65131  15.69965
  2.20245   1.71155  15.78532
  2.25250   1.57268  15.86404
  2.30256   1.41814  15.93503
  2.35261   1.37799  16.00400
  2.40267   1.31274  16.06971
  2.45273   1.26876  16.13322
  2.50278   1.22175  16.19438
  2.55284   1.18157  16.25352
  2.60289   1.13003  16.31009
  2.65295   1.09781  16.36504
  2.70300   1.07426  16.41881
  2.75306   1.04352  16.47104
  2.80311   1.02813  16.52251
  2.85317   1.05267  16.57520
  2.90323   1.02682  16.62660
  2.95328   0.93570  16.67344
  3.00334   0.88966  16.71797
  3.05339   0.87779  16.76191
  3.10345   0.87395  16.80565
  3.15350   0.88387  16.84990
  3.20356   0.99144  16.89952
  3.25362   1.22621  16.96090
  3.30367   1.37905  17.02993
  3.35373   1.66047  17.11305
  3.40378   2.56557  17.24147
  3.45384   1.64902  17.32401
  3.50389   1.32671  17.39042
  3.55395   1.23765  17.45237
  3.60400   1.12894  17.50888
  3.65406   0.96192  17.55703
  3.70412   0.77304  17.59572
  3.75417   0.65079  17.62830
  3.80423   0.59336  17.65800
  3.85428   0.54713  17.68539
  3.90434   0.54716  17.71278
  3.95439   0.55818  17.74072
  4.00445   0.58941  17.77022
  4.05451   0.62926  17.80172
  4.10456   0.73692  17.83861
  4.15462   0.82234  17.87977
  4.20467   0.83524  17.92158
  4.25473   0.83250  17.96325
  4.30478   0.81013  18.00380
  4.35484   0.82644  18.04517
  4.40489   0.80657  18.08554
  4.45495   0.78418  18.12479
  4.50501   0.74595  18.16213
  4.55506   0.72789  18.19857
  4.60512   0.71083  18.23415
  4.65517   0.69668  18.26902
  4.70523   0.68552  18.30333
  4.75528   0.67678  18.33721
  4.80534   0.66969  18.37073
  4.85539   0.66417  18.40398
  4.90545   0.66020  18.43703
  4.95551   0.65733  18.46993
  5.00556   0.65567  18.50275
  5.05562   0.65149  18.53536
  5.10567   0.64697  18.56774
  5.15573   0.64748  18.60015
  5.20578   0.65001  18.63269
  5.25584   0.65411  18.66543
  5.30590   0.66006  18.69847
  5.35595   0.67361  18.73219
  5.40601   0.68488  18.76647
  5.45606   0.69351  18.80119
  5.50612   0.70253  18.83635
  5.55617   0.71213  18.87200
  5.60623   0.72391  18.90823
  5.65628   0.73521  18.94503
  5.70634   0.74812  18.98248
  5.75640   0.76198  19.02062
  5.80645   0.77610  19.05947
  5.85651   0.79052  19.09904
  5.90656   0.80219  19.13920
  5.95662   0.81607  19.18005
  6.00667   0.87291  19.22374
  6.05673   0.99773  19.27368
  6.10679   1.08823  19.32815
  6.15684   1.16907  19.38667
  6.20690   1.17632  19.44555
  6.25695   1.17172  19.50420
  6.30701   1.19052  19.56380
  6.35706   1.22832  19.62528
  6.40712   1.28885  19.68979
  6.45717   1.41266  19.76051
  6.50723   1.68247  19.84472
  6.55729   1.45841  19.91773
  6.60734   1.06269  19.97092
  6.65740   0.98973  20.02046
  6.70745   0.92097  20.06656
  6.75751   0.86087  20.10965
  6.80756   0.75799  20.14759
  6.85762   0.65644  20.18045
  6.90768   0.63433  20.21220
  6.95773   0.61961  20.24322
  7.00779   0.61163  20.27383
  7.05784   0.61860  20.30480
  7.10790   0.64157  20.33691
  7.15795   0.67580  20.37074
  7.20801   0.74315  20.40794
  7.25806   0.86870  20.45142
  7.30812   1.05408  20.50419
  7.35818   1.27533  20.56802
  7.40823   1.45373  20.64079
  7.45829   1.67226  20.72450
  7.50834   1.77861  20.81353
  7.55840   1.69942  20.89859
  7.60845   1.56399  20.97688
  7.65851   1.50329  21.05213
  7.70857   1.47897  21.12616
  7.75862   1.42275  21.19737
  7.80868   1.44654  21.26978
  7.85873   1.29536  21.33462
  7.90879   1.16145  21.39276
  7.95884   1.08166  21.44690
  8.00890   1.00046  21.49698
  8.05895   0.98739  21.54640
  8.10901   0.89395  21.59115
  8.15907   0.82827  21.63261
  8.20912   0.83196  21.67426
  8.25918   0.83574  21.71609
  8.30923   0.84170  21.75822
  8.35929   0.85302  21.80092
  8.40934   0.84680  21.84331
  8.45940   0.83530  21.88512
  8.50945   0.83478  21.92690
  8.55951   0.84536  21.96922
  8.60957   0.86498  22.01252
  8.65962   0.88991  22.05706
  8.70968   0.91817  22.10302
  8.75973   0.96527  22.15134
  8.80979   1.04786  22.20379
  8.85984   1.09806  22.25875
  8.90990   1.12828  22.31523
  8.95996   1.17566  22.37408
  9.01001   1.21973  22.43513
  9.06007   1.23989  22.49719
  9.11012   1.19805  22.55716
  9.16018   1.19674  22.61707
  9.21023   1.19930  22.67710
  9.26029   1.14847  22.73459
  9.31034   1.13475  22.79139
  9.36040   1.13285  22.84809
  9.41046   1.14267  22.90529
  9.46051   1.16103  22.96341
  9.51057   1.14158  23.02055
  9.56062   1.14678  23.07795
  9.61068   1.16120  23.13608
  9.66073   1.20008  23.19615
  9.71079   1.22098  23.25726
  9.76085   1.25145  23.31991
  9.81090   1.31575  23.38577
  9.86096   1.44050  23.45787
  9.91101   1.34752  23.52532
  9.96107   1.33309  23.59205
 10.01112   1.27675  23.65596
 10.06118   1.23139  23.71760
 10.11123   1.18344  23.77684
 10.16129   1.11847  23.83282
 10.21135   1.06882  23.88632
 10.26140   1.02809  23.93778
 10.31146   0.98841  23.98726
 10.36151   0.96512  24.03557
 10.41157   0.97195  24.08422
 10.46162   1.01551  24.13505
 10.51168   1.00037  24.18513
 10.56174   0.90949  24.23065
 10.61179   0.89527  24.27546
 10.66185   0.88522  24.31977
 10.71190   0.87913  24.36378
 10.76196   0.88424  24.40804
 10.81201   0.89526  24.45285
 10.86207   0.91257  24.49853
 10.91212   0.92550  24.54486
 10.96218   0.93960  24.59189
 11.01224   0.95330  24.63961
 11.06229   0.96669  24.68800
 11.11235   0.98108  24.73711
 11.16240   0.99924  24.78712
 11.21246   1.01860  24.83811
 11.26251   1.03589  24.88996
 11.31257   1.04599  24.94232
 11.36263   1.06930  24.99585
 11.41268   1.06300  25.04905
 11.46274   1.00783  25.09950
 11.51279   0.94516  25.14681
 11.56285   0.94854  25.19429
 11.61290   0.95207  25.24195
 11.66296   0.95258  25.28963
 11.71301   0.95201  25.33728
 11.76307   0.95609  25.38514
 11.81313   0.99202  25.43480
 11.86318   0.96496  25.48310
 11.91324   0.92262  25.52928
 11.96329   0.88683  25.57367
 12.01335   0.86403  25.61692
 12.06340   0.85746  25.65984
 12.11346   0.86768  25.70327
 12.16352   0.87045  25.74685
 12.21357   0.86423  25.79011
 12.26363   0.84862  25.83258
 12.31368   0.82701  25.87398
 12.36374   0.80844  25.91445
 12.41379   0.77948  25.95346
 12.46385   0.74892  25.99095
 12.51390   0.72360  26.02717
 12.56396   0.72632  26.06353
 12.61402   0.73721  26.10043
 12.66407   0.74360  26.13765
 12.71413   0.74586  26.17499
 12.76418   0.75502  26.21278
 12.81424   0.77813  26.25173
 12.86429   0.79469  26.29151
 12.91435   0.81356  26.33223
 12.96440   0.85661  26.37511
 13.01446   0.89710  26.42001
 13.06452   0.89912  26.46502
 13.11457   0.89873  26.51001
 13.16463   0.90383  26.55525
 13.21468   0.93011  26.60181
 13.26474   0.93282  26.64850
 13.31479   0.91617  26.69436
 13.36485   0.90745  26.73978
 13.41491   0.91863  26.78576
 13.46496   0.93272  26.83245
 13.51502   0.93410  26.87921
 13.56507   0.91442  26.92498
 13.61513   0.88474  26.96927
 13.66518   0.84476  27.01155
 13.71524   0.80529  27.05186
 13.76529   0.78804  27.09131
 13.81535   0.78583  27.13064
 13.86541   0.79740  27.17056
 13.91546   0.82100  27.21165
 13.96552   0.85615  27.25451
 14.01557   0.89447  27.29928
 14.06563   0.92856  27.34576
 14.11568   0.98520  27.39507
 14.16574   1.07071  27.44867
 14.21580   1.13080  27.50527
 14.26585   1.14633  27.56265
 14.31591   1.12951  27.61919
 14.36596   1.11277  27.67489
 14.41602   1.12793  27.73135
 14.46607   1.16138  27.78948
 14.51613   1.13609  27.84635
 14.56618   1.10245  27.90154
 14.61624   1.11156  27.95718
 14.66630   1.13255  28.01387
 14.71635   1.19555  28.07371
 14.76641   1.22167  28.13486
 14.81646   1.19083  28.19447
 14.86652   1.17148  28.25311
 14.91657   1.14411  28.31038
 14.96663   1.12354  28.36662
 15.01669   1.10444  28.42190
 15.06674   1.05300  28.47461
 15.11680   0.95586  28.52246
 15.16685   0.87026  28.56602
 15.21691   0.82957  28.60754
 15.26696   0.79950  28.64756
 15.31702   0.78098  28.68665
 15.36707   0.76974  28.72518
 15.41713   0.76500  28.76348
 15.46719   0.76852  28.80194
 15.51724   0.77641  28.84081
 15.56730   0.79745  28.88073
 15.61735   0.83475  28.92251
 15.66741   0.76650  28.96088
 15.71746   0.77831  28.99984
 15.76752   0.80236  29.04000
 15.81758   0.81889  29.08099
 15.86763   0.84043  29.12306
 15.91769   0.86913  29.16656
 15.96774   0.88742  29.21098
 16.01780   0.86534  29.25430
 16.06785   0.87725  29.29821
 16.11791   0.90034  29.34328
 16.16796   0.91661  29.38916
 16.21802   0.89132  29.43377
 16.26808   0.87694  29.47767
 16.31813   0.88727  29.52208
 16.36819   0.89074  29.56667
 16.41824   0.90527  29.61198
 16.46830   0.92029  29.65805
 16.51835   0.91169  29.70368
 16.56841   0.93405  29.75044
 16.61846   0.96375  29.79868
 16.66852   1.00628  29.84905
 16.71858   1.04291  29.90125
 16.76863   1.07950  29.95529
 16.81869   1.11930  30.01131
 16.86874   1.17239  30.07000
 16.91880   1.22002  30.13107
 16.96885   1.21201  30.19174
 17.01891   1.22483  30.25304
 17.06897   1.27750  30.31699
 17.11902   1.30970  30.38255
 17.16908   1.30977  30.44811
 17.21913   1.31989  30.51418
 17.26919   1.35337  30.58192
 17.31924   1.37933  30.65097
 17.36930   1.39922  30.72100
 17.41935   1.41379  30.79177
 17.46941   1.41810  30.86276
 17.51947   1.42876  30.93427
 17.56952   1.52315  31.01052
 17.61958   1.61802  31.09151
 17.66963   1.67276  31.17524
 17.71969   1.50340  31.25049
 17.76974   1.36187  31.31866
 17.81980   1.19179  31.37832
 17.86986   1.20525  31.43865
 17.91991   1.36808  31.50713
 17.96997   1.40522  31.57747
 18.02002   1.45350  31.65022
 18.07008   1.64701  31.73266
 18.12013   1.83564  31.82455
 18.17019   2.07723  31.92852
 18.22024   2.35923  32.04662
 18.27030   2.40314  32.16691
 18.32036   2.39266  32.28667
 18.37041   2.28947  32.40127
 18.42047   2.34203  32.51851
 18.47052   2.26148  32.63171
 18.52058   1.97463  32.73055
 18.57063   1.80013  32.82065
 18.62069   1.67000  32.90425
 18.67075   1.53704  32.98118
 18.72080   1.40810  33.05167
 18.77086   1.29892  33.11669
 18.82091   1.18887  33.17619
 18.87097   1.03271  33.22789
 18.92102   0.92551  33.27422
 18.97108   0.88189  33.31836
 19.02113   0.83571  33.36019
 19.07119   0.79819  33.40014
 19.12125   0.76831  33.43860
 19.17130   0.73272  33.47528
 19.22136   0.70193  33.51042
 19.27141   0.67824  33.54436
 19.32147   0.64995  33.57690
 19.37152   0.62898  33.60838
 19.42158   0.60739  33.63879
 19.47164   0.56157  33.66690
 19.52169   0.51949  33.69290
 19.57175   0.47740  33.71680
 19.62180   0.43432  33.73854
 19.67186   0.37979  33.75755
 19.72191   0.32615  33.77387
 19.77197   0.30046  33.78891
 19.82202   0.27834  33.80284
 19.87208   0.25741  33.81573
 19.92214   0.23787  33.82764
 19.97219   0.22085  33.83869
 20.02225   0.20699  33.84905
 20.07230   0.19623  33.85887
 20.12236   0.18864  33.86832
 20.17241   0.18486  33.87757
 20.22247   0.18305  33.88673
 20.27253   0.18213  33.89585
 20.32258   0.18257  33.90499
 20.37264   0.17682  33.91384
 20.42269   0.17149  33.92242
 20.47275   0.16330  33.93060
 20.52280   0.14331  33.93777
 20.57286   0.10836  33.94319
 20.62291   0.09107  33.94775
 20.67297   0.08211  33.95186
 20.72303   0.07651  33.95569
 20.77308   0.07181  33.95929
 20.82314   0.06797  33.96269
 20.87319   0.06470  33.96593
 20.92325   0.06171  33.96902
 20.97330   0.05843  33.97194
 21.02336   0.05785  33.97484
 21.07341   0.05635  33.97766
 21.12347   0.05342  33.98033
 21.17353   0.05036  33.98285
 21.22358   0.04726  33.98522
 21.27364   0.04410  33.98743
 21.32369   0.04088  33.98947
 21.37375   0.03761  33.99135
 21.42380   0.03427  33.99307
 21.47386   0.03087  33.99462
 21.52392   0.02741  33.99599
 21.57397   0.02389  33.99718
 21.62403   0.01326  33.99785
 21.67408   0.00482  33.99809
 21.72414   0.00075  33.99813
 21.77419   0.00000  33.99813
 21.82425   0.00000  33.99813
 21.87430   0.00000  33.99813
 21.92436   0.00000  33.99813
 21.97442   0.00000  33.99813
 22.02447   0.00000  33.99813
 22.07453   0.00000  33.99813
 22.12458   0.00000  33.99813
 22.17464   0.00000  33.99813
 22.22469   0.00000  33.99813
 22.27475   0.00000  33.99813
 22.32481   0.00000  33.99813
 22.37486   0.00000  33.99813
 22.42492   0.00000  33.99813
 22.47497   0.00000  33.99813
 22.52503   0.00000  33.99813
 22.57508   0.00000  33.99813
 22.62514   0.00000  33.99813
 22.67519   0.00000  33.99813
 22.72525   0.00000  33.99813
 22.77531   0.00000  33.99813
 22.82536   0.00000  33.99813
 22.87542   0.00000  33.99813
 22.92547   0.00000  33.99813
 22.97553   0.00000  33.99813
 23.02558   0.00000  33.99813
 23.07564   0.00000  33.99813
 23.12570   0.00000  33.99813
 23.17575   0.00000  33.99813
 23.22581   0.00000  33.99813
 23.27586   0.00000  33.99813
 23.32592   0.00000  33.99813
 23.37597   0.00000  33.99813
 23.42603   0.00000  33.99813
 23.47608   0.00000  33.99813
 23.52614   0.00000  33.99813
 23.57620   0.00000  33.99813
 23.62625   0.00000  33.99813
 23.67631   0.00000  33.99813
 23.72636   0.00000  33.99813
 23.77642   0.00000  33.99813
 23.82647   0.00000  33.99813
 23.87653   0.00000  33.99813
 23.92659   0.00000  33.99813
 23.97664   0.00000  33.99813
 24.02670   0.00000  33.99813
 24.07675   0.00000  33.99813
 24.12681   0.00000  33.99813
 24.17686   0.00000  33.99813
 24.22692   0.00000  33.99813
 24.27697   0.00000  33.99813
 24.32703   0.00000  33.99813
 24.37709   0.00000  33.99813
 24.42714   0.00000  33.99813
 24.47720   0.00000  33.99813
 24.52725   0.00000  33.99813
 24.57731   0.00000  33.99813
 24.62736   0.00000  33.99813
 24.67742   0.00000  33.99813
 24.72747   0.00000  33.99813
 24.77753   0.00000  33.99813
 24.82759   0.00000  33.99813
 24.87764   0.00000  33.99813
 24.92770   0.00000  33.99813
 24.97775   0.00000  33.99813
 25.02781   0.00000  33.99813
     25.02780868     -20.02224694   901       9.00234295       1.00000000; Z= 23; 4s 3p_y 3p_z 3p_x 3d_xy 3d_yz 3d_z^2 3d_xz 3d_x^2-y^2 
-20.02225   0.00000   0.00000   0.00000   0.00000   0.00000   0.00000   0.00000   0.00000   0.00000
-19.97219   0.00000   0.00000   0.00000   0.00000   0.00000   0.00000   0.00000   0.00000   0.00000
-19.92214   0.00000   0.00000   0.00000   0.00000   0.00000   0.00000   0.00000   0.00000   0.00000
-19.87208   0.00000   0.00000   0.00000   0.00000   0.00000   0.00000   0.00000   0.00000   0.00000
-19.82202   0.00000   0.00000   0.00000   0.00000   0.00000   0.00000   0.00000   0.00000   0.00000
-19.77197   0.00000   0.00000   0.00000   0.00000   0.00000   0.00000   0.00000   0.00000   0.00000
-19.72191   0.00000   0.00000   0.00000   0.00000   0.00000   0.00000   0.00000   0.00000   0.00000
-19.67186   0.00000   0.00000   0.00000   0.00000   0.00000   0.00000   0.00000   0.00000   0.00000
-19.62180   0.00000   0.00000   0.00000   0.00000   0.00000   0.00000   0.00000   0.00000   0.00000
-19.57175   0.00000   0.00000   0.00000   0.00000   0.00000   0.00000   0.00000   0.00000   0.00000
-19.52169   0.00000   0.00000   0.00000   0.00000   0.00000   0.00000   0.00000   0.00000   0.00000
-19.47164   0.00000   0.00000   0.00000   0.00000   0.00000   0.00000   0.00000   0.00000   0.00000
-19.42158   0.00000   0.00000   0.00000   0.00000   0.00000   0.00000   0.00000   0.00000   0.00000
-19.37152   0.00000   0.00000   0.00000   0.00000   0.00000   0.00000   0.00000   0.00000   0.00000
-19.32147   0.00000   0.00000   0.00000   0.00000   0.00000   0.00000   0.00000   0.00000   0.00000
-19.27141   0.00000   0.00000   0.00000   0.00000   0.00000   0.00000   0.00000   0.00000   0.00000
-19.22136   0.00000   0.00000   0.00000   0.00000   0.00000   0.00000   0.00000   0.00000   0.00000
-19.17130   0.00000   0.00000   0.00000   0.00000   0.00000   0.00000   0.00000   0.00000   0.00000
-19.12125   0.00000   0.00000   0.00000   0.00000   0.00000   0.00000   0.00000   0.00000   0.00000
-19.07119   0.00000   0.00000   0.00000   0.00000   0.00000   0.00000   0.00000   0.00000   0.00000
-19.02113   0.00000   0.00000   0.00000   0.00000   0.00000   0.00000   0.00000   0.00000   0.00000
-18.97108   0.00000   0.00000   0.00000   0.00000   0.00000   0.00000   0.00000   0.00000   0.00000
-18.92102   0.00000   0.00000   0.00000   0.00000   0.00000   0.00000   0.00000   0.00000   0.00000
-18.87097   0.00000   0.00000   0.00000   0.00000   0.00000   0.00000   0.00000   0.00000   0.00000
-18.82091   0.00000   0.00000   0.00000   0.00000   0.00000   0.00000   0.00000   0.00000   0.00000