    3    3    1    1
  0.7840870E+01  0.2996330E-09  0.2996330E-09  0.3025349E-09  0.5000000E-15
   1.0000000000000000E-004
  CAR 
 Name                                    
     11   3375     20

  0.3742002E-15  0.3742002E-15  0.3742002E-15  0.2962963E-03
    1       -5.697085   1.000000
    2        5.137323   1.000000
    3        5.137350   1.000000
    4        5.856805   1.000000
    5        6.550569   1.000000
    6        9.415684   0.000000
    7        9.415699   0.000000
    8       11.898385   0.000000
    9       11.898404   0.000000
   10       14.025530   0.000000
   11       14.025565   0.000000
   12       15.525545   0.000000
   13       18.192810   0.000000
   14       18.709613   0.000000
   15       26.524798   0.000000
   16       29.467079   0.000000
   17       29.467113   0.000000
   18       34.147221   0.000000
   19       34.147240   0.000000
   20       35.173527   0.000000

  0.6666667E-01  0.3735550E-15  0.3742002E-15  0.2962963E-03
    1       -5.611452   1.000000
    2        4.913480   1.000000
    3        5.136053   1.000000
    4        5.883552   1.000000
    5        6.425599   1.000000
    6        9.395837   0.000000
    7        9.629869   0.000000
    8       11.485845   0.000000
    9       11.519997   0.000000
   10       14.454668   0.000000
   11       14.619683   0.000000
   12       15.776642   0.000000
   13       18.189430   0.000000
   14       18.427618   0.000000
   15       26.691943   0.000000
   16       29.512339   0.000000
   17       29.865439   0.000000
   18       33.111494   0.000000
   19       33.465625   0.000000
   20       35.676464   0.000000

  0.1333333E+00  0.3761975E-15  0.3742002E-15  0.2962963E-03
    1       -5.357005   1.000000
    2        4.292711   1.000000
    3        5.125517   1.000000
    4        5.953749   1.000000
    5        6.143456   1.000000
    6        9.340154   0.000000
    7       10.167287   0.000000
    8       10.792359   0.000000
    9       10.916554   0.000000
   10       15.112013   0.000000
   11       15.867891   0.000000
   12       16.565561   0.000000
   13       17.727346   0.000000
   14       18.165768   0.000000
   15       27.162307   0.000000
   16       29.637745   0.000000
   17       30.729338   0.000000
   18       31.546437   0.000000
   19       32.180813   0.000000
   20       34.619311   0.000000

  0.2000000E+00  0.3748230E-15  0.3742002E-15  0.2962963E-03
    1       -4.940913   1.000000
    2        3.402314   1.000000
    3        5.091215   1.000000
    4        5.837544   1.000000
    5        6.009735   1.000000
    6        9.259393  -0.059195
    7       10.258015   0.000000
    8       10.445478   0.000000
    9       10.853550   0.000000
   10       15.603128   0.000000
   11       16.884311   0.000000
   12       17.398544   0.000000
   13       17.743439   0.000000
   14       18.093508   0.000000
   15       27.768825   0.000000
   16       29.814021   0.000000
   17       30.142147   0.000000
   18       30.804421   0.000000
   19       30.847981   0.000000
   20       34.652226   0.000000

  0.2666667E+00  0.3561396E-15  0.3742002E-15  0.2962963E-03
    1       -4.374276   1.000000
    2        2.365052   1.000000
    3        5.025472   1.000000
    4        5.576301   1.000000
    5        5.978098   1.000000
    6        9.168401  -0.069772
    7       10.035862   0.000000
    8       10.164952   0.000000
    9       11.540169   0.000000
   10       15.960158   0.000000
   11       16.130271   0.000000
   12       17.891371   0.000000
   13       19.071088   0.000000
   14       19.108489   0.000000
   15       27.808541   0.000000
   16       29.623442   0.000000
   17       29.634463   0.000000
   18       29.712022   0.000000
   19       30.003854   0.000000
   20       36.300345   0.000000

  0.3333333E+00  0.3865122E-15  0.3742002E-15  0.2962963E-03
    1       -3.671204   1.000000
    2        1.266638   1.000000
    3        4.939180   1.000000
    4        5.382973   1.000000
    5        5.849593   1.000000
    6        9.083073   0.172879
    7       10.046744   0.000000
    8       10.121937   0.000000
    9       12.078928   0.000000
   10       15.634273   0.000000
   11       16.220919   0.000000
   12       17.591292   0.000000
   13       20.297517   0.000000
   14       20.924421   0.000000
   15       27.123919   0.000000
   16       28.481342   0.000000
   17       28.631078   0.000000
   18       29.994108   0.000000
   19       30.173368   0.000000
   20       34.604498   0.000000

  0.4000000E+00  0.3886199E-15  0.3742002E-15  0.2962963E-03
    1       -2.848010   1.000000
    2        0.163403   1.000000
    3        4.858395   1.000000
    4        5.259690   1.000000
    5        5.696015   1.000000
    6        9.017489   0.576924
    7       10.026475   0.000000
    8       10.369157   0.000000
    9       12.360825   0.000000
   10       15.463328   0.000000
   11       16.419723   0.000000
   12       17.216207   0.000000
   13       21.254144   0.000000
   14       22.708563   0.000000
   15       26.635399   0.000000
   16       27.499817   0.000000
   17       27.908113   0.000000
   18       30.161262   0.000000
   19       30.297693   0.000000
   20       32.477768   0.000000

  0.4666667E+00  0.3837633E-15  0.3742002E-15  0.2962963E-03
    1       -1.924688   1.000000
    2       -0.904222   1.000000
    3        4.810053   1.000000
    4        5.200726   1.000000
    5        5.597876   1.000000
    6        8.981987   0.778387
    7       10.037133   0.000000
    8       10.571293   0.000000
    9       12.438302   0.000000
   10       15.479615   0.000000
   11       16.607457   0.000000
   12       16.869116   0.000000
   13       21.768275   0.000000
   14       24.052405   0.000000
   15       26.478203   0.000000
   16       26.952870   0.000000
   17       27.520028   0.000000
   18       30.066196   0.000000
   19       30.362793   0.000000
   20       30.941271   0.000000

 -0.4666667E+00  0.3522178E-15  0.3742002E-15  0.2962963E-03
    1       -1.924688   1.000000
    2       -0.904222   1.000000
    3        4.810053   1.000000
    4        5.200726   1.000000
    5        5.597876   1.000000
    6        8.981987   0.778387
    7       10.037133   0.000000
    8       10.571293   0.000000
    9       12.438302   0.000000
   10       15.479615   0.000000
   11       16.607457   0.000000
   12       16.869116   0.000000
   13       21.768275   0.000000
   14       24.052404   0.000000
   15       26.478210   0.000000
   16       26.952877   0.000000
   17       27.520027   0.000000
   18       30.066196   0.000000
   19       30.362794   0.000000
   20       30.941278   0.000000

 -0.4000000E+00  0.3617992E-15  0.3742002E-15  0.2962963E-03
    1       -2.848010   1.000000
    2        0.163403   1.000000
    3        4.858395   1.000000
    4        5.259690   1.000000
    5        5.696015   1.000000
    6        9.017489   0.576924
    7       10.026475   0.000000
    8       10.369157   0.000000
    9       12.360825   0.000000
   10       15.463328   0.000000
   11       16.419723   0.000000
   12       17.216207   0.000000
   13       21.254146   0.000000
   14       22.708563   0.000000
   15       26.635391   0.000000
   16       27.499818   0.000000
   17       27.908113   0.000000
   18       30.161262   0.000000
   19       30.297693   0.000000
   20       32.477186   0.000000

 -0.3333333E+00  0.3916625E-15  0.3742002E-15  0.2962963E-03
    1       -3.671204   1.000000
    2        1.266637   1.000000
    3        4.939180   1.000000
    4        5.382973   1.000000
    5        5.849593   1.000000
    6        9.083073   0.172879
    7       10.046744   0.000000
    8       10.121937   0.000000
    9       12.078928   0.000000
   10       15.634274   0.000000
   11       16.220919   0.000000
   12       17.591293   0.000000
   13       20.297517   0.000000
   14       20.924426   0.000000
   15       27.123921   0.000000
   16       28.481333   0.000000
   17       28.631078   0.000000
   18       29.994109   0.000000
   19       30.173368   0.000000
   20       34.613841   0.000000

 -0.2666667E+00  0.3868059E-15  0.3742002E-15  0.2962963E-03
    1       -4.374276   1.000000
    2        2.365052   1.000000
    3        5.025472   1.000000
    4        5.576301   1.000000
    5        5.978098   1.000000
    6        9.168401  -0.069772
    7       10.035862   0.000000
    8       10.164952   0.000000
    9       11.540169   0.000000
   10       15.960158   0.000000
   11       16.130271   0.000000
   12       17.891371   0.000000
   13       19.071079   0.000000
   14       19.108487   0.000000
   15       27.808562   0.000000
   16       29.623463   0.000000
   17       29.634462   0.000000
   18       29.712020   0.000000
   19       30.003842   0.000000
   20       36.323627   0.000000

 -0.2000000E+00  0.3547539E-15  0.3742002E-15  0.2962963E-03
    1       -4.940913   1.000000
    2        3.402314   1.000000
    3        5.091215   1.000000
    4        5.837544   1.000000
    5        6.009735   1.000000
    6        9.259393  -0.059195
    7       10.258015   0.000000
    8       10.445478   0.000000
    9       10.853550   0.000000
   10       15.603128   0.000000
   11       16.884311   0.000000
   12       17.398544   0.000000
   13       17.743439   0.000000
   14       18.093508   0.000000
   15       27.768816   0.000000
   16       29.813853   0.000000
   17       30.142141   0.000000
   18       30.804416   0.000000
   19       30.847981   0.000000
   20       34.630497   0.000000

 -0.1333333E+00  0.3915307E-15  0.3742002E-15  0.2962963E-03
    1       -5.357005   1.000000
    2        4.292711   1.000000
    3        5.125517   1.000000
    4        5.953749   1.000000
    5        6.143456   1.000000
    6        9.340154   0.000000
    7       10.167287   0.000000
    8       10.792359   0.000000
    9       10.916554   0.000000
   10       15.112013   0.000000
   11       15.867891   0.000000
   12       16.565561   0.000000
   13       17.727347   0.000000
   14       18.165768   0.000000
   15       27.162304   0.000000
   16       29.637674   0.000000
   17       30.729328   0.000000
   18       31.546437   0.000000
   19       32.180813   0.000000
   20       34.616418   0.000000

 -0.6666667E-01  0.3745628E-15  0.3742002E-15  0.2962963E-03
    1       -5.611452   1.000000
    2        4.913480   1.000000
    3        5.136053   1.000000
    4        5.883552   1.000000
    5        6.425599   1.000000
    6        9.395837   0.000000
    7        9.629869   0.000000
    8       11.485845   0.000000
    9       11.519997   0.000000
   10       14.454668   0.000000
   11       14.619683   0.000000
   12       15.776642   0.000000
   13       18.189430   0.000000
   14       18.427618   0.000000
   15       26.691942   0.000000
   16       29.512351   0.000000
   17       29.865439   0.000000
   18       33.111504   0.000000
   19       33.465623   0.000000
   20       35.602080   0.000000

  0.3742002E-15  0.6666667E-01  0.3742002E-15  0.2962963E-03
    1       -5.611452   1.000000
    2        4.913480   1.000000
    3        5.136053   1.000000
    4        5.883552   1.000000
    5        6.425599   1.000000
    6        9.395837   0.000000
    7        9.629869   0.000000
    8       11.485845   0.000000
    9       11.519998   0.000000
   10       14.454669   0.000000
   11       14.619682   0.000000
   12       15.776642   0.000000
   13       18.189430   0.000000
   14       18.427618   0.000000
   15       26.691943   0.000000
   16       29.512361   0.000000
   17       29.865440   0.000000
   18       33.111503   0.000000
   19       33.465623   0.000000
   20       35.603422   0.000000

  0.6666667E-01  0.6666667E-01  0.3742002E-15  0.2962963E-03
    1       -5.441388   1.000000
    2        4.518796   1.000000
    3        5.082372   1.000000
    4        5.952588   1.000000
    5        6.226810   1.000000
    6        9.347774   0.000000
    7       10.011643   0.000000
    8       11.001603   0.000000
    9       11.040975   0.000000
   10       15.088012   0.000000
   11       15.318807   0.000000
   12       16.347378   0.000000
   13       17.940743   0.000000
   14       18.176390   0.000000
   15       27.011201   0.000000
   16       29.524505   0.000000
   17       30.598791   0.000000
   18       31.989801   0.000000
   19       32.498057   0.000000
   20       34.885108   0.000000

  0.1333333E+00  0.6666667E-01  0.3742002E-15  0.2962963E-03
    1       -5.106061   1.000000
    2        3.810813   1.000000
    3        4.936304   1.000000
    4        5.948923   1.000000
    5        6.096295   1.000000
    6        9.250963  -0.066397
    7       10.414781   0.000000
    8       10.585586   0.000000
    9       10.639444   0.000000
   10       15.680404   0.000000
   11       16.384533   0.000000
   12       17.185047   0.000000
   13       17.523655   0.000000
   14       18.128628   0.000000
   15       27.561555   0.000000
   16       29.407347   0.000000
   17       30.575176   0.000000
   18       31.279972   0.000000
   19       31.554336   0.000000
   20       34.065920   0.000000

  0.2000000E+00  0.6666667E-01  0.3742002E-15  0.2962963E-03
    1       -4.614555   1.000000
    2        2.883955   1.000000
    3        4.733343   1.000000
    4        5.687241   1.000000
    5        6.240514   1.000000
    6        9.122565   0.191856
    7        9.983009   0.000000
    8       10.324796   0.000000
    9       11.359040   0.000000
   10       16.061116   0.000000
   11       16.405749   0.000000
   12       17.740264   0.000000
   13       18.004462   0.000000
   14       18.997166   0.000000
   15       27.960429   0.000000
   16       28.967246   0.000000
   17       29.409160   0.000000
   18       30.216863   0.000000
   19       31.545264   0.000000
   20       35.009107   0.000000

  0.2666667E+00  0.6666667E-01  0.3742002E-15  0.2962963E-03
    1       -3.979385   1.000000
    2        1.838866   1.000000
    3        4.509306   1.000000
    4        5.483152   1.000000
    5        6.308158   1.000000
    6        8.982887   0.737000
    7        9.803106   0.000000
    8       10.264079   0.000000
    9       12.026923   0.000000
   10       15.792844   0.000000
   11       16.338673   0.000000
   12       17.783275   0.000000
   13       19.179537   0.000000
   14       20.555725   0.000000
   15       27.459567   0.000000
   16       28.120748   0.000000
   17       28.707039   0.000000
   18       29.885331   0.000000
   19       31.284158   0.000000
   20       35.806365   0.000000

  0.3333333E+00  0.6666667E-01  0.3742002E-15  0.2962963E-03
    1       -3.215737   1.000000
    2        0.749910   1.000000
    3        4.308104   1.000000
    4        5.346075   1.000000
    5        6.286352   1.000000
    6        8.855526   1.036371
    7        9.833710   0.000000
    8       10.346112   0.000000
    9       12.493184   0.000000
   10       15.476566   0.000000
   11       16.542067   0.000000
   12       17.476023   0.000000
   13       20.487805   0.000000
   14       22.107914   0.000000
   15       26.823546   0.000000
   16       27.175585   0.000000
   17       27.974970   0.000000
   18       29.840995   0.000000
   19       31.204751   0.000000
   20       33.980432   0.000000

  0.4000000E+00  0.6666667E-01  0.3742002E-15  0.2962963E-03
    1       -2.341074   1.000000
    2       -0.331256   1.000000
    3        4.169980   1.000000
    4        5.270341   1.000000
    5        6.232078   1.000000
    6        8.765274   1.067543
    7        9.932015   0.000000
    8       10.479131   0.000000
    9       12.695420   0.000000
   10       15.438555   0.000000
   11       16.707043   0.000000
   12       17.151168   0.000000
   13       21.385805   0.000000
   14       23.497106   0.000000
   15       26.466089   0.000000
   16       26.572861   0.000000
   17       27.444383   0.000000
   18       29.327203   0.000000
   19       31.198184   0.000000
   20       32.588418   0.000000

  0.4666667E+00  0.6666667E-01  0.3742002E-15  0.2962963E-03
    1       -1.428640   1.000000
    2       -1.314260   1.000000
    3        4.121011   1.000000
    4        5.246530   1.000000
    5        6.206399   1.000000
    6        8.732487   1.065688
    7        9.977444   0.000000
    8       10.544812   0.000000
    9       12.736688   0.000000
   10       15.469446   0.000000
   11       16.878197   0.000000
   12       16.903594   0.000000
   13       21.692173   0.000000
   14       24.161239   0.000000
   15       26.203223   0.000000
   16       26.582938   0.000000
   17       27.223151   0.000000
   18       28.914070   0.000000
   19       31.201358   0.000000
   20       32.058057   0.000000

 -0.4666667E+00  0.6666667E-01  0.3742002E-15  0.2962963E-03
    1       -2.341074   1.000000
    2       -0.331254   1.000000
    3        4.169976   1.000000
    4        5.270339   1.000000
    5        6.232079   1.000000
    6        8.765277   1.069875
    7        9.932021   0.000000
    8       10.479126   0.000000
    9       12.695419   0.000000
   10       15.438557   0.000000
   11       16.707046   0.000000
   12       17.151163   0.000000
   13       21.385802   0.000000
   14       23.497105   0.000000
   15       26.466090   0.000000
   16       26.572865   0.000000
   17       27.444387   0.000000
   18       29.327224   0.000000
   19       31.198189   0.000000
   20       32.589451   0.000000

 -0.4000000E+00  0.6666667E-01  0.3742002E-15  0.2962963E-03
    1       -3.215737   1.000000
    2        0.749915   1.000000
    3        4.308096   1.000000
    4        5.346071   1.000000
    5        6.286353   1.000000
    6        8.855531   1.047734
    7        9.833722   0.000000
    8       10.346101   0.000000
    9       12.493182   0.000000
   10       15.476570   0.000000
   11       16.542070   0.000000
   12       17.476016   0.000000
   13       20.487796   0.000000
   14       22.107919   0.000000
   15       26.823548   0.000000
   16       27.175579   0.000000
   17       27.974975   0.000000
   18       29.841008   0.000000
   19       31.204753   0.000000
   20       33.980392   0.000000

 -0.3333333E+00  0.6666667E-01  0.3742002E-15  0.2962963E-03
    1       -3.979385   1.000000
    2        1.838873   1.000000
    3        4.509294   1.000000
    4        5.483148   1.000000
    5        6.308159   1.000000
    6        8.982894   0.745407
    7        9.803121   0.000000
    8       10.264064   0.000000
    9       12.026922   0.000000
   10       15.792847   0.000000
   11       16.338676   0.000000
   12       17.783268   0.000000
   13       19.179519   0.000000
   14       20.555747   0.000000
   15       27.459560   0.000000
   16       28.120734   0.000000
   17       28.707053   0.000000
   18       29.885331   0.000000
   19       31.284166   0.000000
   20       35.801015   0.000000

 -0.2666667E+00  0.6666667E-01  0.3742002E-15  0.2962963E-03
    1       -4.614555   1.000000
    2        2.883967   1.000000
    3        4.733327   1.000000
    4        5.687236   1.000000
    5        6.240516   1.000000
    6        9.122573   0.172774
    7        9.983025   0.000000
    8       10.324778   0.000000
    9       11.359038   0.000000
   10       16.061119   0.000000
   11       16.405752   0.000000
   12       17.740240   0.000000
   13       18.004458   0.000000
   14       18.997195   0.000000
   15       27.960418   0.000000
   16       28.967200   0.000000
   17       29.409184   0.000000
   18       30.216849   0.000000
   19       31.545242   0.000000
   20       35.004024   0.000000

 -0.2000000E+00  0.6666667E-01  0.3742002E-15  0.2962963E-03
    1       -5.106060   1.000000
    2        3.810830   1.000000
    3        4.936284   1.000000
    4        5.948918   1.000000
    5        6.096298   1.000000
    6        9.250973  -0.038432
    7       10.414796   0.000000
    8       10.585568   0.000000
    9       10.639441   0.000000
   10       15.680406   0.000000
   11       16.384510   0.000000
   12       17.185050   0.000000
   13       17.523687   0.000000
   14       18.128622   0.000000
   15       27.561558   0.000000
   16       29.407365   0.000000
   17       30.575299   0.000000
   18       31.280176   0.000000
   19       31.554717   0.000000
   20       34.066993   0.000000

 -0.1333333E+00  0.6666667E-01  0.3742002E-15  0.2962963E-03
    1       -5.441388   1.000000
    2        4.518818   1.000000
    3        5.082348   1.000000
    4        5.952590   1.000000
    5        6.226806   1.000000
    6        9.347786   0.000000
    7       10.011636   0.000000
    8       11.001619   0.000000
    9       11.040954   0.000000
   10       15.087999   0.000000
   11       15.318808   0.000000
   12       16.347400   0.000000
   13       17.940746   0.000000
   14       18.176386   0.000000
   15       27.011200   0.000000
   16       29.524476   0.000000
   17       30.598814   0.000000
   18       31.989826   0.000000
   19       32.498043   0.000000
   20       34.884200   0.000000

 -0.6666667E-01  0.6666667E-01  0.3742002E-15  0.2962963E-03
    1       -5.611452   1.000000
    2        4.913499   1.000000
    3        5.136033   1.000000
    4        5.883553   1.000000
    5        6.425597   1.000000
    6        9.395848   0.000000
    7        9.629859   0.000000
    8       11.485850   0.000000
    9       11.519989   0.000000
   10       14.454648   0.000000
   11       14.619702   0.000000
   12       15.776648   0.000000
   13       18.189429   0.000000
   14       18.427619   0.000000
   15       26.691943   0.000000
   16       29.512323   0.000000
   17       29.865464   0.000000
   18       33.111520   0.000000
   19       33.465651   0.000000
   20       35.651737   0.000000

  0.3742002E-15  0.1333333E+00  0.3742002E-15  0.2962963E-03
    1       -5.357005   1.000000
    2        4.292711   1.000000
    3        5.125518   1.000000
    4        5.953749   1.000000
    5        6.143456   1.000000
    6        9.340154   0.000000
    7       10.167287   0.000000
    8       10.792359   0.000000
    9       10.916554   0.000000
   10       15.112013   0.000000
   11       15.867890   0.000000
   12       16.565562   0.000000
   13       17.727346   0.000000
   14       18.165768   0.000000
   15       27.162305   0.000000
   16       29.637741   0.000000
   17       30.729334   0.000000
   18       31.546443   0.000000
   19       32.180879   0.000000
   20       34.618966   0.000000

  0.6666667E-01  0.1333333E+00  0.3742002E-15  0.2962963E-03
    1       -5.106061   1.000000
    2        3.810813   1.000000
    3        4.936304   1.000000
    4        5.948924   1.000000
    5        6.096295   1.000000
    6        9.250963  -0.066397
    7       10.414781   0.000000
    8       10.585586   0.000000
    9       10.639444   0.000000
   10       15.680403   0.000000
   11       16.384533   0.000000
   12       17.185047   0.000000
   13       17.523655   0.000000
   14       18.128628   0.000000
   15       27.561555   0.000000
   16       29.407352   0.000000
   17       30.575176   0.000000
   18       31.279971   0.000000
   19       31.554337   0.000000
   20       34.066444   0.000000

  0.1333333E+00  0.1333333E+00  0.3742002E-15  0.2962963E-03
    1       -4.695188   1.000000
    2        3.162332   1.000000
    3        4.472211   1.000000
    4        5.738024   1.000000
    5        6.394467   1.000000
    6        9.063785   0.483466
    7        9.963798   0.000000
    8       10.389808   0.000000
    9       11.329872   0.000000
   10       16.514555   0.000000
   11       16.609800   0.000000
   12       16.751758   0.000000
   13       18.050978   0.000000
   14       18.957218   0.000000
   15       27.971757   0.000000
   16       28.643987   0.000000
   17       29.368514   0.000000
   18       30.398190   0.000000
   19       32.919581   0.000000
   20       33.722710   0.000000

  0.2000000E+00  0.1333333E+00  0.3742002E-15  0.2962963E-03
    1       -4.134762   1.000000
    2        2.336738   1.000000
    3        3.966348   1.000000
    4        5.570558   1.000000
    5        6.711841   1.000000
    6        8.816015   1.020193
    7        9.608006   0.000000
    8       10.362962   0.000000
    9       12.097514   0.000000
   10       15.898971   0.000000
   11       16.917888   0.000000
   12       17.875380   0.000000
   13       17.964733   0.000000
   14       20.481379   0.000000
   15       27.597594   0.000000
   16       27.782568   0.000000
   17       28.343720   0.000000
   18       29.960064   0.000000
   19       33.131153   0.000000
   20       35.090856   0.000000

  0.2666667E+00  0.1333333E+00  0.3742002E-15  0.2962963E-03
    1       -3.438355   1.000000
    2        1.366008   1.000000
    3        3.556256   1.000000
    4        5.466626   1.000000
    5        6.938705   1.000000
    6        8.552688   1.000000
    7        9.479790   0.000000
    8       10.409071   0.000000
    9       12.789717   0.000000
   10       15.479732   0.000000
   11       17.084327   0.000000
   12       17.755200   0.000000
   13       19.255003   0.000000
   14       21.900570   0.000000
   15       26.505965   0.000000
   16       27.044857   0.000000
   17       27.681728   0.000000
   18       29.609607   0.000000
   19       32.996024   0.000000
   20       35.571341   0.000000

  0.3333333E+00  0.1333333E+00  0.3742002E-15  0.2962963E-03
    1       -2.622277   1.000000
    2        0.327167   1.000000
    3        3.278748   1.000000
    4        5.419043   1.000000
    5        7.028778   1.000000
    6        8.327249   1.000000
    7        9.590288   0.000000
    8       10.430223   0.000000
    9       13.237897   0.000000
   10       15.346194   0.000000
   11       17.177655   0.000000
   12       17.595191   0.000000
   13       20.478684   0.000000
   14       23.031428   0.000000
   15       25.590220   0.000000
   16       26.642853   0.000000
   17       27.116291   0.000000
   18       28.845918   0.000000
   19       32.920368   0.000000
   20       34.601249   0.000000

  0.4000000E+00  0.1333333E+00  0.3742002E-15  0.2962963E-03
    1       -1.705805   1.000000
    2       -0.711863   1.000000
    3        3.139326   1.000000
    4        5.405342   1.000000
    5        7.039572   1.000000
    6        8.195339   1.000000
    7        9.776563   0.000000
    8       10.390440   0.000000
    9       13.402847   0.000000
   10       15.400412   0.000000
   11       17.210408   0.000000
   12       17.501129   0.000000
   13       21.229421   0.000000
   14       23.771769   0.000000
   15       25.057273   0.000000
   16       26.433555   0.000000
   17       26.862067   0.000000
   18       28.141085   0.000000
   19       32.888240   0.000000
   20       33.923569   0.000000

  0.4666667E+00  0.1333333E+00  0.3742002E-15  0.2962963E-03
    1       -1.705806   1.000000
    2       -0.711860   1.000000
    3        3.139322   1.000000
    4        5.405340   1.000000
    5        7.039573   1.000000
    6        8.195342   1.000000
    7        9.776569   0.000000
    8       10.390435   0.000000
    9       13.402846   0.000000
   10       15.400414   0.000000
   11       17.210409   0.000000
   12       17.501125   0.000000
   13       21.229419   0.000000
   14       23.771765   0.000000
   15       25.057270   0.000000
   16       26.433553   0.000000
   17       26.862077   0.000000
   18       28.141091   0.000000
   19       32.888161   0.000000
   20       33.923045   0.000000

 -0.4666667E+00  0.1333333E+00  0.3742002E-15  0.2962963E-03
    1       -2.622276   1.000000
    2        0.327175   1.000000
    3        3.278738   1.000000
    4        5.419037   1.000000
    5        7.028779   1.000000
    6        8.327256   1.000000
    7        9.590299   0.000000
    8       10.430213   0.000000
    9       13.237895   0.000000
   10       15.346200   0.000000
   11       17.177659   0.000000
   12       17.595181   0.000000
   13       20.478676   0.000000
   14       23.031433   0.000000
   15       25.590213   0.000000
   16       26.642849   0.000000
   17       27.116307   0.000000
   18       28.845933   0.000000
   19       32.920311   0.000000
   20       34.601348   0.000000

 -0.4000000E+00  0.1333333E+00  0.3742002E-15  0.2962963E-03
    1       -3.438354   1.000000
    2        1.366022   1.000000
    3        3.556237   1.000000
    4        5.466618   1.000000
    5        6.938705   1.000000
    6        8.552698   1.000000
    7        9.479803   0.000000
    8       10.409058   0.000000
    9       12.789716   0.000000
   10       15.479739   0.000000
   11       17.084333   0.000000
   12       17.755187   0.000000
   13       19.254990   0.000000
   14       21.900589   0.000000
   15       26.505953   0.000000
   16       27.044871   0.000000
   17       27.681744   0.000000
   18       29.609621   0.000000
   19       32.996018   0.000000
   20       35.561049   0.000000

 -0.3333333E+00  0.1333333E+00  0.3742002E-15  0.2962963E-03
    1       -4.134761   1.000000
    2        2.336760   1.000000
    3        3.966321   1.000000
    4        5.570548   1.000000
    5        6.711842   1.000000
    6        8.816027   1.017494
    7        9.608020   0.000000
    8       10.362946   0.000000
    9       12.097514   0.000000
   10       15.898977   0.000000
   11       16.917895   0.000000
   12       17.875376   0.000000
   13       17.964706   0.000000
   14       20.481413   0.000000
   15       27.597572   0.000000
   16       27.782549   0.000000
   17       28.343748   0.000000
   18       29.960062   0.000000
   19       33.131095   0.000000
   20       35.085527   0.000000

 -0.2666667E+00  0.1333333E+00  0.3742002E-15  0.2962963E-03
    1       -4.695187   1.000000
    2        3.162359   1.000000
    3        4.472181   1.000000
    4        5.738014   1.000000