  COHP#       atomMU       atomNU     distance     translation      ICOHP (at) eF   for spin  1
      1           B2           V1      2.29801       0   0   0           -1.38630 
      2           B2           V1      2.29801       0   1   0           -1.38646 
      3           B2           V1      2.29801       1   1   0           -1.38637 
      4           B2           V1      2.29801       0   0   1           -1.38660 
      5           B2           V1      2.29801       0   1   1           -1.38599 
      6           B2           V1      2.29801       1   1   1           -1.38647 
      7           B3           V1      2.29801       0   0   0           -1.38657 
      8           B3           V1      2.29801       1   0   0           -1.38597 
      9           B3           V1      2.29801       1   1   0           -1.38655 
     10           B3           V1      2.29801       0   0   1           -1.38630 
     11           B3           V1      2.29801       1   0   1           -1.38651 
     12           B3           V1      2.29801       1   1   1           -1.38625 
