   73   73   85    1
  0.2115814E+02  0.1036705E-08  0.2428040E-08  0.6136055E-09  0.5000000E-15
  1.000000000000000E-004
  CAR 
 Name                                    
    277     42    180
 
  0.0000000E+00  0.0000000E+00  0.0000000E+00  0.7407407E-02
    1      -14.139927   1.000000
    2      -13.050028   1.000000
    3      -12.864722   1.000000
    4      -12.863887   1.000000
    5      -12.029849   1.000000
    6      -11.844476   1.000000
    7      -11.713117   1.000000
    8      -11.658497   1.000000
    9      -11.515087   1.000000
   10      -11.329348   1.000000
   11      -11.275332   1.000000
   12      -11.045462   1.000000
   13      -10.999364   1.000000
   14      -10.645800   1.000000
   15      -10.494686   1.000000
   16      -10.363307   1.000000
   17      -10.172779   1.000000
   18      -10.143176   1.000000
   19       -9.753302   1.000000
   20       -9.654787   1.000000
   21       -9.610890   1.000000
   22       -9.593851   1.000000
   23       -9.458925   1.000000
   24       -9.336323   1.000000
   25       -8.919416   1.000000
   26       -8.852028   1.000000
   27       -8.569886   1.000000
   28       -8.470812   1.000000
   29       -8.267764   1.000000
   30       -8.249704   1.000000
   31       -8.181251   1.000000
   32       -7.891855   1.000000
   33       -7.771390   1.000000
   34       -7.413948   1.000000
   35       -7.297976   1.000000
   36       -7.150207   1.000000
   37       -7.119517   1.000000
   38       -6.927766   1.000000
   39       -6.807964   1.000000
   40       -6.764772   1.000000
   41       -6.753224   1.000000
   42       -6.737614   1.000000
   43       -6.586206   1.000000
   44       -6.483337   1.000000
   45       -6.463613   1.000000
   46       -6.322929   1.000000
   47       -6.300375   1.000000
   48       -6.216427   1.000000
   49       -6.136007   1.000000
   50       -6.005506   1.000000
   51       -5.794854   1.000000
   52       -5.767205   1.000000
   53       -5.733501   1.000000
   54       -5.665893   1.000000
   55       -5.644335   1.000000
   56       -5.538396   1.000000
   57       -5.537021   1.000000
   58       -5.326305   1.000000
   59       -5.269112   1.000000
   60       -5.261630   1.000000
   61       -4.968304   1.000000
   62       -4.872463   1.000000
   63       -4.845652   1.000000
   64       -4.752208   1.000000
   65       -4.698911   1.000000
   66       -4.579862   1.000000
   67       -4.561060   1.000000
   68       -4.482081   1.000000
   69       -4.293435   1.000000
   70       -4.271325   1.000000
   71       -4.181834   1.000000
   72       -4.118523   1.000000
   73       -4.090585   1.000000
   74       -4.070895   1.000000
   75       -4.018311   1.000000
   76       -3.963669   1.000000
   77       -3.958884   1.000000
   78       -3.865591   1.000000
   79       -3.848126   1.000000
   80       -3.736732   1.000000
   81       -3.684918   1.000000
   82       -3.657168   1.000000
   83       -3.643948   1.000000
   84       -3.637218   1.000000
   85       -3.552485   1.000000
   86       -3.528683   1.000000
   87       -3.526738   1.000000
   88       -3.519316   1.000000
   89       -3.478844   1.000000
   90       -3.449438   1.000000
   91       -3.409450   1.000000
   92       -3.342829   1.000000
   93       -3.035097   1.000000
   94       -3.001018   1.000000
   95       -2.943409   1.000000
   96       -2.798694   1.000000
   97       -2.756536   1.000000
   98       -2.701579   1.000000
   99       -2.618275   1.000000
  100       -2.542188   1.000000
  101       -2.354185   1.000000
  102       -2.337093   1.000000
  103       -2.325130   1.000000
  104       -2.303975   1.000000
  105       -2.212325   1.000000
  106       -2.120666   1.000000
  107       -2.105390   1.000000
  108       -2.102153   1.000000
  109       -2.096949   1.000000
  110       -2.045072   1.000000
  111       -1.877617   1.000000
  112       -1.820898   1.000000
  113       -1.820827   1.000000
  114       -1.720686   1.000000
  115       -1.641839   1.000000
  116       -1.621925   1.000000
  117       -1.585218   1.000000
  118       -1.545495   1.000000
  119       -1.354299   1.000000
  120       -1.257825   1.000000
  121       -1.202138   1.000000
  122       -0.969367   1.000000
  123       -0.884996   1.000000
  124       -0.768458   1.000000
  125       -0.716729   1.000000
  126       -0.604911   1.000000
  127       -0.491927   1.000000
  128       -0.403709   1.000000
  129       -0.379967   1.000000
  130       -0.304621   1.000000
  131       -0.101473   1.000000
  132       -0.091954   1.000000
  133        0.029116   1.000083
  134        0.151275   1.014459
  135        0.232379   1.023864
  136        0.272087   0.916013
  137        0.323570   0.564400
  138        0.349681   0.346556
  139        0.399275   0.047041
  140        0.413057   0.005363
  141        0.462724  -0.034346
  142        0.472200  -0.031402
  143        0.514693  -0.013126
  144        0.514713  -0.013119
  145        0.534829  -0.007098
  146        0.592167  -0.000700
  147        0.648000  -0.000035
  148        0.653722  -0.000025
  149        0.708669  -0.000001
  150        0.720310  -0.000000
  151        0.901119  -0.000000
  152        0.979808  -0.000000
  153        1.002461  -0.000000
  154        1.014171  -0.000000
  155        1.025917  -0.000000
  156        1.094834  -0.000000
  157        1.135844  -0.000000
  158        1.199044  -0.000000
  159        1.211059  -0.000000
  160        1.233843  -0.000000
  161        1.270271  -0.000000
  162        1.290801  -0.000000
  163        1.308647  -0.000000
  164        1.335662  -0.000000
  165        1.414452  -0.000000
  166        1.469182  -0.000000
  167        1.481196  -0.000000
  168        1.497500  -0.000000
  169        1.533906  -0.000000
  170        1.588173  -0.000000
  171        1.597288  -0.000000
  172        1.611852  -0.000000
  173        1.618455  -0.000000
  174        1.640966  -0.000000
  175        1.705346  -0.000000
  176        1.766693  -0.000000
  177        1.796362  -0.000000
  178        1.817656  -0.000000
  179        1.823253  -0.000000
  180        1.884043  -0.000000
 
  0.2000000E+00  0.0000000E+00  0.0000000E+00  0.1481481E-01
    1      -14.090981   1.000000
    2      -13.379987   1.000000
    3      -12.819212   1.000000
    4      -12.459159   1.000000
    5      -12.151366   1.000000
    6      -12.014762   1.000000
    7      -11.791053   1.000000
    8      -11.407370   1.000000
    9      -11.320237   1.000000
   10      -11.282337   1.000000
   11      -11.232464   1.000000
   12      -11.122122   1.000000
   13      -10.893493   1.000000
   14      -10.738049   1.000000
   15      -10.658169   1.000000
   16      -10.624796   1.000000
   17      -10.522287   1.000000
   18       -9.839253   1.000000
   19       -9.681721   1.000000
   20       -9.630566   1.000000
   21       -9.550491   1.000000
   22       -9.524947   1.000000
   23       -9.442652   1.000000
   24       -9.403604   1.000000
   25       -9.102187   1.000000
   26       -8.832913   1.000000
   27       -8.316281   1.000000
   28       -8.265265   1.000000
   29       -8.236362   1.000000
   30       -8.171215   1.000000
   31       -8.158644   1.000000
   32       -8.076170   1.000000
   33       -7.630718   1.000000
   34       -7.608061   1.000000
   35       -7.322937   1.000000
   36       -7.282434   1.000000
   37       -7.125930   1.000000
   38       -7.013981   1.000000
   39       -6.969342   1.000000
   40       -6.826971   1.000000
   41       -6.749168   1.000000
   42       -6.681957   1.000000
   43       -6.591273   1.000000
   44       -6.497387   1.000000
   45       -6.412583   1.000000
   46       -6.357042   1.000000
   47       -6.292889   1.000000
   48       -6.184444   1.000000
   49       -6.084163   1.000000
   50       -6.065518   1.000000
   51       -5.832461   1.000000
   52       -5.773470   1.000000
   53       -5.629508   1.000000
   54       -5.488911   1.000000
   55       -5.446472   1.000000
   56       -5.431441   1.000000
   57       -5.386592   1.000000
   58       -5.359460   1.000000
   59       -5.327033   1.000000
   60       -5.265297   1.000000
   61       -5.179746   1.000000
   62       -4.902253   1.000000
   63       -4.873378   1.000000
   64       -4.866619   1.000000
   65       -4.693543   1.000000
   66       -4.631016   1.000000
   67       -4.601282   1.000000
   68       -4.503502   1.000000
   69       -4.257060   1.000000
   70       -4.217917   1.000000
   71       -4.154004   1.000000
   72       -4.137262   1.000000
   73       -4.111709   1.000000
   74       -4.068512   1.000000
   75       -4.003172   1.000000
   76       -3.916336   1.000000
   77       -3.893014   1.000000
   78       -3.849654   1.000000
   79       -3.828047   1.000000
   80       -3.797120   1.000000
   81       -3.774668   1.000000
   82       -3.675387   1.000000
   83       -3.653654   1.000000
   84       -3.635286   1.000000
   85       -3.596692   1.000000
   86       -3.536563   1.000000
   87       -3.494890   1.000000
   88       -3.492664   1.000000
   89       -3.482331   1.000000
   90       -3.420657   1.000000
   91       -3.389158   1.000000
   92       -3.331340   1.000000
   93       -3.046600   1.000000
   94       -3.003465   1.000000
   95       -2.984280   1.000000
   96       -2.888891   1.000000
   97       -2.768476   1.000000
   98       -2.719064   1.000000
   99       -2.612317   1.000000
  100       -2.571578   1.000000
  101       -2.425994   1.000000
  102       -2.371061   1.000000
  103       -2.354351   1.000000
  104       -2.259089   1.000000
  105       -2.190216   1.000000
  106       -2.120160   1.000000
  107       -2.056413   1.000000
  108       -2.038317   1.000000
  109       -1.954903   1.000000
  110       -1.939441   1.000000
  111       -1.910910   1.000000
  112       -1.909193   1.000000
  113       -1.727297   1.000000
  114       -1.700293   1.000000
  115       -1.598591   1.000000
  116       -1.540954   1.000000
  117       -1.494793   1.000000
  118       -1.480030   1.000000
  119       -1.411914   1.000000
  120       -1.242262   1.000000
  121       -1.102098   1.000000
  122       -0.985453   1.000000
  123       -0.936897   1.000000
  124       -0.796429   1.000000
  125       -0.735725   1.000000
  126       -0.674533   1.000000
  127       -0.530496   1.000000
  128       -0.468981   1.000000
  129       -0.443909   1.000000
  130       -0.315017   1.000000
  131       -0.280149   1.000000
  132       -0.259711   1.000000
  133       -0.213347   1.000000
  134        0.085708   1.001413
  135        0.156992   1.016752
  136        0.230276   1.026064
  137        0.303176   0.727177
  138        0.362427   0.249503
  139        0.444560  -0.034012
  140        0.479143  -0.028560
  141        0.495235  -0.021213
  142        0.510654  -0.014644
  143        0.532135  -0.007757
  144        0.570185  -0.001868
  145        0.595146  -0.000607
  146        0.598442  -0.000518
  147        0.656898  -0.000021
  148        0.682324  -0.000004
  149        0.734762  -0.000000
  150        0.796385  -0.000000
  151        0.952927  -0.000000
  152        0.981482  -0.000000
  153        1.004998  -0.000000
  154        1.042923  -0.000000
  155        1.109999  -0.000000
  156        1.116417  -0.000000
  157        1.190667  -0.000000
  158        1.220604  -0.000000
  159        1.235648  -0.000000
  160        1.261961  -0.000000
  161        1.328763  -0.000000
  162        1.339214  -0.000000
  163        1.352030  -0.000000
  164        1.384769  -0.000000
  165        1.464845  -0.000000
  166        1.489146  -0.000000
  167        1.494304  -0.000000
  168        1.511031  -0.000000
  169        1.533313  -0.000000
  170        1.558342  -0.000000
  171        1.609629  -0.000000
  172        1.615515  -0.000000
  173        1.640479  -0.000000
  174        1.670381  -0.000000
  175        1.709172  -0.000000
  176        1.791555  -0.000000
  177        1.801584  -0.000000
  178        1.859288  -0.000000
  179        1.875223  -0.000000
  180        1.890735  -0.000000
 
  0.4000000E+00  0.0000000E+00  0.0000000E+00  0.1481481E-01
    1      -13.945324   1.000000
    2      -13.705550   1.000000
    3      -12.683268   1.000000
    4      -12.459505   1.000000
    5      -11.969645   1.000000
    6      -11.906103   1.000000
    7      -11.892823   1.000000
    8      -11.298577   1.000000
    9      -11.292943   1.000000
   10      -11.273370   1.000000
   11      -11.135412   1.000000
   12      -11.115044   1.000000
   13      -10.940362   1.000000
   14      -10.929731   1.000000
   15      -10.754017   1.000000
   16      -10.716250   1.000000
   17      -10.617244   1.000000
   18      -10.150893   1.000000
   19       -9.693377   1.000000
   20       -9.673013   1.000000
   21       -9.464356   1.000000
   22       -9.419833   1.000000
   23       -9.366426   1.000000
   24       -9.269695   1.000000
   25       -9.073801   1.000000
   26       -8.849436   1.000000
   27       -8.378847   1.000000
   28       -8.159422   1.000000
   29       -8.001095   1.000000
   30       -7.916032   1.000000
   31       -7.846716   1.000000
   32       -7.827251   1.000000
   33       -7.797840   1.000000
   34       -7.779533   1.000000
   35       -7.595902   1.000000
   36       -7.515650   1.000000
   37       -7.349989   1.000000
   38       -7.269302   1.000000
   39       -7.173947   1.000000
   40       -6.867435   1.000000
   41       -6.755731   1.000000
   42       -6.599866   1.000000
   43       -6.535491   1.000000
   44       -6.478856   1.000000
   45       -6.427906   1.000000
   46       -6.193807   1.000000
   47       -6.096213   1.000000
   48       -6.092182   1.000000
   49       -5.984050   1.000000
   50       -5.976388   1.000000
   51       -5.878563   1.000000
   52       -5.842316   1.000000
   53       -5.801871   1.000000
   54       -5.604310   1.000000
   55       -5.550086   1.000000
   56       -5.367916   1.000000
   57       -5.238970   1.000000
   58       -5.217319   1.000000
   59       -5.187441   1.000000
   60       -5.181780   1.000000
   61       -5.067590   1.000000
   62       -5.037311   1.000000
   63       -5.011132   1.000000
   64       -4.800894   1.000000
   65       -4.733777   1.000000
   66       -4.638678   1.000000
   67       -4.498545   1.000000
   68       -4.431483   1.000000
   69       -4.350797   1.000000
   70       -4.323310   1.000000
   71       -4.175914   1.000000
   72       -4.162800   1.000000
   73       -4.154729   1.000000
   74       -4.111297   1.000000
   75       -4.067266   1.000000
   76       -4.021360   1.000000
   77       -3.980071   1.000000
   78       -3.935491   1.000000
   79       -3.773947   1.000000
   80       -3.756298   1.000000
   81       -3.714155   1.000000
   82       -3.700974   1.000000
   83       -3.668369   1.000000
   84       -3.659928   1.000000
   85       -3.577922   1.000000
   86       -3.561036   1.000000
   87       -3.536569   1.000000
   88       -3.351223   1.000000
   89       -3.329766   1.000000
   90       -3.299165   1.000000
   91       -3.253046   1.000000
   92       -3.220530   1.000000
   93       -3.148338   1.000000
   94       -3.111636   1.000000
   95       -3.056093   1.000000
   96       -2.965467   1.000000
   97       -2.902764   1.000000
   98       -2.874847   1.000000
   99       -2.771388   1.000000
  100       -2.523452   1.000000
  101       -2.338788   1.000000
  102       -2.303167   1.000000
  103       -2.264481   1.000000
  104       -2.247230   1.000000
  105       -2.197757   1.000000
  106       -2.171708   1.000000
  107       -2.082153   1.000000
  108       -2.017939   1.000000
  109       -2.007712   1.000000
  110       -1.998358   1.000000
  111       -1.769408   1.000000
  112       -1.686590   1.000000
  113       -1.671821   1.000000
  114       -1.584406   1.000000
  115       -1.493693   1.000000
  116       -1.467510   1.000000
  117       -1.389515   1.000000
  118       -1.231783   1.000000
  119       -1.189702   1.000000
  120       -1.165123   1.000000
  121       -1.070833   1.000000
  122       -1.044604   1.000000
  123       -1.002056   1.000000
  124       -0.916631   1.000000
  125       -0.813888   1.000000
  126       -0.800944   1.000000
  127       -0.765980   1.000000
  128       -0.743398   1.000000
  129       -0.662412   1.000000
  130       -0.615989   1.000000
  131       -0.365951   1.000000
  132       -0.284266   1.000000
  133       -0.102412   1.000000
  134       -0.041833   1.000001
  135        0.003369   1.000018
  136        0.246064   1.002053
  137        0.284660   0.850529
  138        0.317911   0.611398
  139        0.390471   0.083302
  140        0.438641  -0.031223
  141        0.459222  -0.035019
  142        0.486875  -0.025069
  143        0.542397  -0.005477
  144        0.588485  -0.000831
  145        0.616347  -0.000209
  146        0.625072  -0.000131
  147        0.650379  -0.000031
  148        0.804132  -0.000000
  149        0.843166  -0.000000
  150        0.903069  -0.000000
  151        1.063279  -0.000000
  152        1.065433  -0.000000
  153        1.079749  -0.000000
  154        1.137354  -0.000000
  155        1.158788  -0.000000
  156        1.237512  -0.000000
  157        1.251278  -0.000000
  158        1.287020  -0.000000
  159        1.294922  -0.000000
  160        1.348752  -0.000000
  161        1.364541  -0.000000
  162        1.373354  -0.000000
  163        1.399687  -0.000000
  164        1.450213  -0.000000
  165        1.494409  -0.000000
  166        1.520828  -0.000000
  167        1.530223  -0.000000
  168        1.580418  -0.000000
  169        1.605350  -0.000000
  170        1.626117  -0.000000
  171        1.654133  -0.000000
  172        1.675999  -0.000000
  173        1.688336  -0.000000
  174        1.703051  -0.000000
  175        1.755350  -0.000000
  176        1.764823  -0.000000
  177        1.793526  -0.000000
  178        1.821502  -0.000000
  179        1.856205  -0.000000
  180        1.872853  -0.000000
 
  0.0000000E+00  0.3333333E+00  0.0000000E+00  0.1481481E-01
    1      -14.139927   1.000000
    2      -13.050028   1.000000
    3      -12.864721   1.000000
    4      -12.863887   1.000000
    5      -12.029848   1.000000
    6      -11.844476   1.000000
    7      -11.713119   1.000000
    8      -11.658496   1.000000
    9      -11.515087   1.000000
   10      -11.329347   1.000000
   11      -11.275330   1.000000
   12      -11.045462   1.000000
   13      -10.999364   1.000000
   14      -10.645799   1.000000
   15      -10.494684   1.000000
   16      -10.363307   1.000000
   17      -10.172778   1.000000
   18      -10.143175   1.000000
   19       -9.753299   1.000000
   20       -9.654786   1.000000
   21       -9.610891   1.000000
   22       -9.593852   1.000000
   23       -9.458923   1.000000
   24       -9.336320   1.000000
   25       -8.919413   1.000000
   26       -8.852027   1.000000
   27       -8.569883   1.000000
   28       -8.470810   1.000000
   29       -8.267763   1.000000
   30       -8.249715   1.000000
   31       -8.181254   1.000000
   32       -7.891846   1.000000
   33       -7.771385   1.000000
   34       -7.413945   1.000000
   35       -7.297976   1.000000
   36       -7.150203   1.000000
   37       -7.119513   1.000000
   38       -6.927764   1.000000
   39       -6.807964   1.000000
   40       -6.764770   1.000000
   41       -6.753224   1.000000
   42       -6.737614   1.000000
   43       -6.586194   1.000000
   44       -6.483334   1.000000
   45       -6.463610   1.000000
   46       -6.322926   1.000000
   47       -6.300378   1.000000
   48       -6.216426   1.000000
   49       -6.136010   1.000000
   50       -6.005504   1.000000
   51       -5.794849   1.000000
   52       -5.767204   1.000000
   53       -5.733501   1.000000
   54       -5.665894   1.000000
   55       -5.644331   1.000000
   56       -5.538395   1.000000
   57       -5.537020   1.000000
   58       -5.326303   1.000000
   59       -5.269112   1.000000
   60       -5.261611   1.000000
   61       -4.968298   1.000000
   62       -4.872464   1.000000
   63       -4.845645   1.000000
   64       -4.752210   1.000000
   65       -4.698911   1.000000
   66       -4.579867   1.000000
   67       -4.561053   1.000000
   68       -4.482078   1.000000
   69       -4.293432   1.000000
   70       -4.271327   1.000000
   71       -4.181829   1.000000
   72       -4.118521   1.000000
   73       -4.090585   1.000000
   74       -4.070893   1.000000
   75       -4.018307   1.000000
   76       -3.963665   1.000000
   77       -3.958878   1.000000
   78       -3.865587   1.000000
   79       -3.848124   1.000000
   80       -3.736724   1.000000
   81       -3.684913   1.000000
   82       -3.657165   1.000000
   83       -3.643949   1.000000
   84       -3.637213   1.000000
   85       -3.552484   1.000000
   86       -3.528681   1.000000
   87       -3.526736   1.000000
   88       -3.519313   1.000000
   89       -3.478845   1.000000
   90       -3.449433   1.000000
   91       -3.409451   1.000000
   92       -3.342825   1.000000
   93       -3.035103   1.000000
   94       -3.001020   1.000000
   95       -2.943403   1.000000
   96       -2.798694   1.000000
   97       -2.756535   1.000000
   98       -2.701578   1.000000
   99       -2.618271   1.000000
  100       -2.542184   1.000000
  101       -2.354182   1.000000
  102       -2.337096   1.000000
  103       -2.325133   1.000000
  104       -2.303974   1.000000
  105       -2.212317   1.000000
  106       -2.120663   1.000000
  107       -2.105379   1.000000
  108       -2.102155   1.000000
  109       -2.096947   1.000000
  110       -2.045067   1.000000
  111       -1.877615   1.000000
  112       -1.820897   1.000000
  113       -1.820824   1.000000
  114       -1.720680   1.000000
  115       -1.641833   1.000000
  116       -1.621926   1.000000
  117       -1.585216   1.000000
  118       -1.545492   1.000000
  119       -1.354298   1.000000
  120       -1.257818   1.000000
  121       -1.202133   1.000000
  122       -0.969372   1.000000
  123       -0.884993   1.000000
  124       -0.768455   1.000000
  125       -0.716733   1.000000
  126       -0.604908   1.000000
  127       -0.491929   1.000000
  128       -0.403706   1.000000
  129       -0.379964   1.000000
  130       -0.304612   1.000000
  131       -0.101474   1.000000
  132       -0.091956   1.000000
  133        0.029121   1.000083
  134        0.151274   1.014458
  135        0.232378   1.023866
  136        0.272090   0.916000
  137        0.323569   0.564405
  138        0.349685   0.346522
  139        0.399279   0.047028
  140        0.413062   0.005349
  141        0.462727  -0.034345
  142        0.472217  -0.031396
  143        0.514694  -0.013126
  144        0.514719  -0.013117
  145        0.534831  -0.007098
  146        0.592167  -0.000700
  147        0.647998  -0.000035
  148        0.653720  -0.000025
  149        0.708671  -0.000001
  150        0.720312  -0.000000
  151        0.901119  -0.000000
  152        0.979805  -0.000000
  153        1.002461  -0.000000
  154        1.014175  -0.000000
  155        1.025915  -0.000000
  156        1.094832  -0.000000
  157        1.135843  -0.000000
  158        1.199044  -0.000000
  159        1.211057  -0.000000
  160        1.233844  -0.000000
  161        1.270273  -0.000000
  162        1.290809  -0.000000
  163        1.308645  -0.000000
  164        1.335660  -0.000000
  165        1.414455  -0.000000
  166        1.469181  -0.000000
  167        1.481194  -0.000000
  168        1.497501  -0.000000
  169        1.533910  -0.000000
  170        1.588176  -0.000000
  171        1.597293  -0.000000
  172        1.611854  -0.000000
  173        1.618459  -0.000000
  174        1.640968  -0.000000
  175        1.705347  -0.000000
  176        1.766696  -0.000000
  177        1.796363  -0.000000
  178        1.817656  -0.000000
  179        1.823251  -0.000000
  180        1.884055  -0.000000
 
  0.2000000E+00  0.3333333E+00  0.0000000E+00  0.2962963E-01
    1      -14.090982   1.000000
    2      -13.379986   1.000000
    3      -12.819213   1.000000
    4      -12.459160   1.000000
    5      -12.151365   1.000000
    6      -12.014762   1.000000
    7      -11.791053   1.000000
    8      -11.407370   1.000000
    9      -11.320238   1.000000
   10      -11.282336   1.000000
   11      -11.232463   1.000000
   12      -11.122123   1.000000
   13      -10.893492   1.000000
   14      -10.738049   1.000000
   15      -10.658169   1.000000
   16      -10.624794   1.000000
   17      -10.522286   1.000000
   18       -9.839252   1.000000
   19       -9.681720   1.000000
   20       -9.630567   1.000000
   21       -9.550492   1.000000
   22       -9.524949   1.000000
   23       -9.442651   1.000000
   24       -9.403603   1.000000
   25       -9.102186   1.000000
   26       -8.832910   1.000000
   27       -8.316276   1.000000
   28       -8.265268   1.000000
   29       -8.236363   1.000000
   30       -8.171215   1.000000
   31       -8.158643   1.000000
   32       -8.076169   1.000000
   33       -7.630719   1.000000
   34       -7.608062   1.000000
   35       -7.322928   1.000000
   36       -7.282434   1.000000
   37       -7.125926   1.000000
   38       -7.013981   1.000000
   39       -6.969343   1.000000
   40       -6.826970   1.000000
   41       -6.749169   1.000000
   42       -6.681960   1.000000
   43       -6.591273   1.000000
   44       -6.497386   1.000000
   45       -6.412584   1.000000
   46       -6.357043   1.000000
   47       -6.292888   1.000000
   48       -6.184442   1.000000
   49       -6.084163   1.000000
   50       -6.065521   1.000000
   51       -5.832467   1.000000
   52       -5.773471   1.000000
   53       -5.629501   1.000000
   54       -5.488909   1.000000
   55       -5.446472   1.000000
   56       -5.431446   1.000000
   57       -5.386591   1.000000
   58       -5.359458   1.000000
   59       -5.327033   1.000000
   60       -5.265300   1.000000
   61       -5.179746   1.000000
   62       -4.902255   1.000000
   63       -4.873377   1.000000
   64       -4.866618   1.000000
   65       -4.693543   1.000000
   66       -4.631016   1.000000
   67       -4.601284   1.000000
   68       -4.503500   1.000000
   69       -4.257058   1.000000
   70       -4.217917   1.000000
   71       -4.154006   1.000000
   72       -4.137263   1.000000
   73       -4.111707   1.000000
   74       -4.068518   1.000000
   75       -4.003178   1.000000
   76       -3.916340   1.000000
   77       -3.893012   1.000000
   78       -3.849656   1.000000
   79       -3.828049   1.000000
   80       -3.797119   1.000000
   81       -3.774670   1.000000
   82       -3.675387   1.000000
   83       -3.653657   1.000000
   84       -3.635287   1.000000
   85       -3.596693   1.000000
   86       -3.536561   1.000000
   87       -3.494892   1.000000
   88       -3.492665   1.000000
   89       -3.482333   1.000000
   90       -3.420657   1.000000
   91       -3.389159   1.000000
   92       -3.331340   1.000000
   93       -3.046601   1.000000
   94       -3.003466   1.000000
   95       -2.984282   1.000000
   96       -2.888891   1.000000
   97       -2.768477   1.000000
   98       -2.719062   1.000000
   99       -2.612317   1.000000
  100       -2.571576   1.000000
  101       -2.425993   1.000000
  102       -2.371062   1.000000
  103       -2.354352   1.000000
  104       -2.259094   1.000000
  105       -2.190215   1.000000
  106       -2.120155   1.000000
  107       -2.056415   1.000000
  108       -2.038320   1.000000
  109       -1.954905   1.000000
  110       -1.939442   1.000000
  111       -1.910910   1.000000
  112       -1.909194   1.000000
  113       -1.727296   1.000000
  114       -1.700291   1.000000
  115       -1.598589   1.000000
  116       -1.540951   1.000000
  117       -1.494793   1.000000
  118       -1.480029   1.000000
  119       -1.411913   1.000000
  120       -1.242262   1.000000
  121       -1.102097   1.000000
  122       -0.985453   1.000000
  123       -0.936897   1.000000
  124       -0.796430   1.000000
  125       -0.735726   1.000000
  126       -0.674535   1.000000
  127       -0.530495   1.000000
  128       -0.468983   1.000000
  129       -0.443909   1.000000
  130       -0.315016   1.000000
  131       -0.280140   1.000000
  132       -0.259709   1.000000
  133       -0.213349   1.000000
  134        0.085707   1.001413
  135        0.156991   1.016751
  136        0.230274   1.026066
  137        0.303177   0.727172
  138        0.362427   0.249509
  139        0.444561  -0.034012
  140        0.479142  -0.028560
  141        0.495236  -0.021213
  142        0.510655  -0.014643
  143        0.532135  -0.007757
  144        0.570186  -0.001868
  145        0.595147  -0.000607
  146        0.598442  -0.000518
  147        0.656901  -0.000021
  148        0.682325  -0.000004
  149        0.734761  -0.000000
  150        0.796386  -0.000000
  151        0.952927  -0.000000
  152        0.981483  -0.000000
  153        1.004997  -0.000000
  154        1.042922  -0.000000
  155        1.109999  -0.000000
  156        1.116418  -0.000000
  157        1.190668  -0.000000
  158        1.220603  -0.000000
  159        1.235648  -0.000000
  160        1.261960  -0.000000
  161        1.328762  -0.000000
  162        1.339213  -0.000000
  163        1.352030  -0.000000
  164        1.384768  -0.000000
  165        1.464844  -0.000000
  166        1.489146  -0.000000
  167        1.494304  -0.000000
  168        1.511031  -0.000000
  169        1.533312  -0.000000
  170        1.558343  -0.000000
  171        1.609628  -0.000000
  172        1.615515  -0.000000
  173        1.640480  -0.000000