    3    3   60    1
  0.8144830E+01  0.3039000E-09  0.3039000E-09  0.3055000E-09  0.5000000E-15
   1.0000000000000000E-004
  CAR 
 Name                                    
     12    216     10

  0.3742002E-15  0.3742002E-15  0.3742002E-15  0.2962963E-03
    1       -5.331405   1.000000
    2        4.682086   1.000000
    3        4.682089   1.000000
    4        5.427868   1.000000
    5        6.746742   1.000000
    6        9.711570   1.000000
    7        9.711571   1.000000
    8       13.004335  -0.000000
    9       13.007874  -0.000000
   10       14.422624   0.000000

  0.6666667E-01  0.3766815E-15  0.3742002E-15  0.1777778E-02
    1       -5.239604   1.000000
    2        4.468862   1.000000
    3        4.726804   1.000000
    4        5.484017   1.000000
    5        6.456446   1.000000
    6        9.672057   1.000000
    7       10.091301   1.000614
    8       12.375367  -0.000000
    9       12.466835  -0.000000
   10       15.005133   0.000000

  0.1333333E+00  0.3754153E-15  0.3742002E-15  0.1777778E-02
    1       -4.968788   1.000000
    2        3.901905   1.000000
    3        4.845699   1.000000
    4        5.618757   1.000000
    5        5.858233   1.000000
    6        9.562395   1.000000
    7       10.927521  -0.000000
    8       11.452325  -0.000000
    9       11.758042  -0.000000
   10       15.788765   0.000000

  0.2000000E+00  0.3870416E-15  0.3742002E-15  0.1777778E-02
    1       -4.532143   1.000000
    2        3.125537   1.000000
    3        4.996728   1.000000
    4        5.238388   1.000000
    5        5.718979   1.000000
    6        9.406076   1.000000
    7       10.797702  -0.000000
    8       11.263025  -0.000000
    9       11.817242  -0.000000
   10       16.343404   0.000000

  0.2666667E+00  0.4120044E-15  0.3742002E-15  0.1777778E-02
    1       -3.949907   1.000000
    2        2.251089   1.000000
    3        4.701895   1.000000
    4        5.128048   1.000000
    5        5.636898   1.000000
    6        9.233669   1.000000
    7       10.663656  -0.000057
    8       11.034309  -0.000000
    9       12.406291  -0.000000
   10       16.486609   0.000000

  0.3333333E+00  0.4025434E-15  0.3742002E-15  0.1777778E-02
    1       -3.248140   1.000000
    2        1.337356   1.000000
    3        4.285503   1.000000
    4        5.205937   1.000000
    5        5.362186   1.000000
    6        9.075223   1.000000
    7       11.041387  -0.000000
    8       11.086606  -0.000000
    9       12.495909  -0.000000
   10       16.864315   0.000000

  0.4000000E+00  0.3732510E-15  0.3742002E-15  0.1777778E-02
    1       -2.461535   1.000000
    2        0.417984   1.000000
    3        4.003577   1.000000
    4        5.054422   1.000000
    5        5.233515   1.000000
    6        8.955440   1.000000
    7       11.178619  -0.000000
    8       11.841544  -0.000000
    9       12.327803  -0.000000
   10       16.880760   0.000000

  0.4666667E+00  0.3915456E-15  0.3742002E-15  0.1777778E-02
    1       -1.679148   1.000000
    2       -0.427777   1.000000
    3        3.861652   1.000000
    4        4.865074   1.000000
    5        5.236746   1.000000
    6        8.891282   1.000000
    7       11.301010  -0.000000
    8       12.186439  -0.000000
    9       12.507870  -0.000000
   10       16.728076   0.000000

  0.6666667E-01  0.6666667E-01  0.3742002E-15  0.1777778E-02
    1       -5.058242   1.000000
    2        4.093395   1.000000
    3        4.785585   1.000000
    4        5.588932   1.000000
    5        6.030385   1.000000
    6        9.575823   1.000000
    7       10.705646  -0.000004
    8       11.730602  -0.000000
    9       11.882030  -0.000000
   10       15.753884   0.000000

  0.1333333E+00  0.6666667E-01  0.3742002E-15  0.3555556E-02
    1       -4.704187   1.000000
    2        3.455468   1.000000
    3        4.833625   1.000000
    4        5.462987   1.000000
    5        5.768493   1.000000
    6        9.384832   1.000000
    7       10.957458  -0.000000
    8       11.417148  -0.000000
    9       11.609883  -0.000000
   10       16.352707   0.000000

  0.2000000E+00  0.6666667E-01  0.3742002E-15  0.3555556E-02
    1       -4.193722   1.000000
    2        2.667206   1.000000
    3        4.795364   1.000000
    4        4.926007   1.000000
    5        5.943056   1.000000
    6        9.139187   1.000000
    7       10.432698   0.016096
    8       11.260731  -0.000000
    9       12.459829  -0.000000
   10       16.395363   0.000000

  0.2666667E+00  0.6666667E-01  0.3742002E-15  0.3555556E-02
    1       -3.549333   1.000000
    2        1.803711   1.000000
    3        4.484752   1.000000
    4        4.630969   1.000000
    5        6.025743   1.000000
    6        8.882140   1.000000
    7       10.334284   0.671256
    8       11.425368  -0.000000
    9       12.900567  -0.000000
   10       16.529687   0.000000

  0.3333333E+00  0.6666667E-01  0.3742002E-15  0.3555556E-02
    1       -2.799567   1.000000
    2        0.904663   1.000000
    3        4.163043   1.000000
    4        4.394765   1.000000
    5        6.007954   1.000000
    6        8.657521   1.000000
    7       10.603282  -0.001250
    8       11.825749  -0.000000
    9       12.894536  -0.000000
   10       17.075987   0.000000

  0.4000000E+00  0.6666667E-01  0.3742002E-15  0.3555556E-02
    1       -1.989591   1.000000
    2        0.009124   1.000000
    3        3.968834   1.000000
    4        4.195927   1.000000
    5        5.957319   1.000000
    6        8.504312   1.000000
    7       10.970952  -0.000000
    8       12.281389  -0.000000
    9       12.762379  -0.000000
   10       17.039724   0.000000

  0.4666667E+00  0.6666667E-01  0.3742002E-15  0.1777778E-02
    1       -1.396506   1.000000
    2       -0.611832   1.000000
    3        3.904035   1.000000
    4        4.119853   1.000000
    5        5.933718   1.000000
    6        8.449930   1.000000
    7       11.136734  -0.000000
    8       12.500793  -0.000000
    9       12.701945  -0.000000
   10       16.978251   0.000000

  0.1333333E+00  0.1333333E+00  0.3742002E-15  0.1777778E-02
    1       -4.275529   1.000000
    2        2.864961   1.000000
    3        4.590774   1.000000
    4        5.026083   1.000000
    5        6.085378   1.000000
    6        9.025538   1.000000
    7       10.338359   0.638731
    8       11.365576  -0.000000
    9       12.570962  -0.000000
   10       16.343489   0.000000

  0.2000000E+00  0.1333333E+00  0.3742002E-15  0.3555556E-02
    1       -3.700278   1.000000
    2        2.172817   1.000000
    3        4.184621   1.000000
    4        4.646758   1.000000
    5        6.464541   1.000000
    6        8.582095   1.000000
    7        9.873597   1.000000
    8       11.624880  -0.000000
    9       13.486553   0.000000
   10       16.102789   0.000000

  0.2666667E+00  0.1333333E+00  0.3742002E-15  0.3555556E-02
    1       -3.001671   1.000000
    2        1.395379   1.000000
    3        3.751337   1.000000
    4        4.362791   1.000000
    5        6.736736   1.000000
    6        8.148277   1.000000
    7        9.801728   1.000000
    8       11.998326  -0.000000
    9       13.923415   0.000000
   10       16.510488   0.000000

  0.3333333E+00  0.1333333E+00  0.3742002E-15  0.3555556E-02
    1       -2.210570   1.000000
    2        0.550272   1.000000
    3        3.408552   1.000000
    4        4.180984   1.000000
    5        6.817722   1.000000
    6        7.805414   1.000000
    7       10.153622   1.007643
    8       12.228549  -0.000000
    9       13.926634   0.000000
   10       17.463502   0.000000

  0.4000000E+00  0.1333333E+00  0.3742002E-15  0.3555556E-02
    1       -1.396143   1.000000
    2       -0.294169   1.000000
    3        3.224269   1.000000
    4        4.094152   1.000000
    5        6.806671   1.000000
    6        7.616353   1.000000
    7       10.612336  -0.000829
    8       12.193658  -0.000000
    9       13.861226   0.000000
   10       17.721780   0.000000

  0.2000000E+00  0.2000000E+00  0.3742002E-15  0.1777778E-02
    1       -3.068812   1.000000
    2        1.649693   1.000000
    3        3.446061   1.000000
    4        4.459894   1.000000
    5        7.081179   1.000000
    6        7.922229   1.000000
    7        9.415354   1.000000
    8       12.065920  -0.000000
    9       14.625520   0.000000
   10       15.943262   0.000000

  0.2666667E+00  0.2000000E+00  0.3742002E-15  0.3555556E-02
    1       -2.322510   1.000000
    2        1.041041   1.000000
    3        2.792817   1.000000
    4        4.377054   1.000000
    5        7.312052   1.000000
    6        7.570249   1.000000
    7        9.334222   1.000000
    8       12.240138  -0.000000
    9       15.192761   0.000000
   10       16.456987   0.000000

  0.3333333E+00  0.2000000E+00  0.3742002E-15  0.3555556E-02
    1       -1.495223   1.000000
    2        0.290720   1.000000
    3        2.384081   1.000000
    4        4.369703   1.000000
    5        6.872376   1.000000
    6        7.714789   1.000000
    7        9.785124   1.000000
    8       11.970125  -0.000000
    9       15.182003   0.000000
   10       17.417983   0.000000

  0.4000000E+00  0.2000000E+00  0.3742002E-15  0.1777778E-02
    1       -0.777662   1.000000
    2       -0.409367   1.000000
    3        2.252605   1.000000
    4        4.379252   1.000000
    5        6.708995   1.000000
    6        7.714837   1.000000
    7       10.184740   1.018432
    8       11.655940  -0.000000
    9       15.153968   0.000000
   10       17.857506   0.000000

  0.2666667E+00  0.2666667E+00  0.3742002E-15  0.1777778E-02
    1       -1.535915   1.000000
    2        0.688603   1.000000
    3        1.907548   1.000000
    4        4.528892   1.000000
    5        6.547755   1.000000
    6        8.422150   1.000000
    7        9.075179   1.000000
    8       11.901390  -0.000000
    9       16.330692   0.000000
   10       16.526665   0.000000

  0.3333333E+00  0.2666667E+00  0.3742002E-15  0.3555556E-02
    1       -0.684668   1.000000
    2        0.131433   1.000000
    3        1.380515   1.000000
    4        4.740719   1.000000
    5        6.013538   1.000000
    6        8.658827   1.000000
    7        9.541700   1.000000
    8       11.225943  -0.000000
    9       16.346635   0.000000
   10       17.363602   0.000000

  0.3333333E+00  0.3333333E+00  0.3742002E-15  0.5925926E-03
    1        0.012908   1.000000
    2        0.012910   1.000000
    3        0.682378   1.000000
    4        5.292985   1.000000
    5        5.292987   1.000000
    6        9.358766   1.000000
    7        9.358767   1.000000
    8       10.656465  -0.000086
    9       17.092846   0.000000
   10       17.092846   0.000000

  0.3742002E-15  0.3742002E-15  0.6666667E-01  0.5925926E-03
    1       -5.258889   1.000000
    2        4.740033   1.000000
    3        4.740036   1.000000
    4        5.053546   1.000000
    5        7.074658   1.000000
    6        9.464170   1.000000
    7        9.464172   1.000000
    8       12.832012  -0.000000
    9       12.832016  -0.000000
   10       15.034736   0.000000

  0.6666667E-01  0.3766815E-15  0.6666667E-01  0.3555556E-02
    1       -5.168241   1.000000
    2        4.520264   1.000000
    3        4.778525   1.000000
    4        5.080945   1.000000
    5        6.778437   1.000000
    6        9.411457   1.000000
    7        9.853065   1.000000
    8       12.393566  -0.000000
    9       12.484355  -0.000000
   10       15.182550   0.000000

  0.1333333E+00  0.3754153E-15  0.6666667E-01  0.3555556E-02
    1       -4.900980   1.000000
    2        3.933223   1.000000
    3        4.876222   1.000000
    4        5.101150   1.000000
    5        6.271392   1.000000
    6        9.285667   1.000000
    7       10.521818  -0.019957
    8       11.804524  -0.000000
    9       11.944466  -0.000000
   10       15.748111   0.000000

  0.2000000E+00  0.3870416E-15  0.6666667E-01  0.3555556E-02
    1       -4.470438   1.000000
    2        3.128052   1.000000
    3        4.949455   1.000000
    4        4.986557   1.000000
    5        5.919661   1.000000
    6        9.165072   1.000000
    7       10.595693  -0.001738
    8       11.525273  -0.000000
    9       12.041191  -0.000000
   10       15.977700   0.000000

  0.2666667E+00  0.4120044E-15  0.6666667E-01  0.3555556E-02
    1       -3.896841   1.000000
    2        2.226525   1.000000
    3        4.627342   1.000000
    4        5.057678   1.000000
    5        5.673801   1.000000
    6        9.115965   1.000000
    7       10.584714  -0.002731
    8       11.274248  -0.000000
    9       12.500630  -0.000000
   10       16.116429   0.000000

  0.3333333E+00  0.4025434E-15  0.6666667E-01  0.3555556E-02
    1       -3.205396   1.000000
    2        1.294067   1.000000
    3        4.312077   1.000000
    4        5.069161   1.000000
    5        5.367881   1.000000
    6        9.134533   1.000000
    7       10.969516  -0.000000
    8       11.194486  -0.000000
    9       12.579378  -0.000000
   10       16.677981   0.000000

  0.4000000E+00  0.3732510E-15  0.6666667E-01  0.3555556E-02
    1       -2.427044   1.000000
    2        0.363811   1.000000
    3        4.087175   1.000000
    4        5.043388   1.000000
    5        5.062175   1.000000
    6        9.167063   1.000000
    7       11.245782  -0.000000
    8       11.489961  -0.000000
    9       12.618184  -0.000000
   10       16.839491   0.000000

  0.4666667E+00  0.3915456E-15  0.6666667E-01  0.3555556E-02
    1       -1.630420   1.000000
    2       -0.505234   1.000000
    3        3.973773   1.000000
    4        4.875809   1.000000
    5        5.018202   1.000000
    6        9.182753   1.000000
    7       11.322468  -0.000000
    8       11.676172  -0.000000
    9       12.963469  -0.000000
   10       16.509305   0.000000

  0.6666667E-01  0.6666667E-01  0.6666667E-01  0.3555556E-02
    1       -4.989246   1.000000
    2        4.136433   1.000000
    3        4.815402   1.000000
    4        5.106005   1.000000
    5        6.421363   1.000000
    6        9.269832   1.000000
    7       10.430684   0.021850
    8       11.875327  -0.000000
    9       12.097019  -0.000000
   10       15.924970   0.000000

  0.1333333E+00  0.6666667E-01  0.6666667E-01  0.7111111E-02
    1       -4.640045   1.000000
    2        3.480417   1.000000
    3        4.790695   1.000000
    4        5.055210   1.000000
    5        6.144475   1.000000
    6        9.025288   1.000000
    7       10.895169  -0.000000
    8       11.411943  -0.000000
    9       11.991794  -0.000000
   10       16.181226   0.000000

  0.2000000E+00  0.6666667E-01  0.6666667E-01  0.7111111E-02
    1       -4.137080   1.000000
    2        2.664482   1.000000
    3        4.600831   1.000000
    4        4.908747   1.000000
    5        6.076311   1.000000
    6        8.818072   1.000000
    7       10.675061  -0.000029
    8       11.320108  -0.000000
    9       12.544890  -0.000000
   10       16.066910   0.000000

  0.2666667E+00  0.6666667E-01  0.6666667E-01  0.7111111E-02
    1       -3.502557   1.000000
    2        1.775222   1.000000
    3        4.332598   1.000000
    4        4.697551   1.000000
    5        6.010563   1.000000
    6        8.754076   1.000000
    7       10.602724  -0.001281
    8       11.414294  -0.000000
    9       12.915308  -0.000000
   10       16.296411   0.000000

  0.3333333E+00  0.6666667E-01  0.6666667E-01  0.7111111E-02
    1       -2.763339   1.000000
    2        0.859568   1.000000
    3        4.121732   1.000000
    4        4.436694   1.000000
    5        5.873651   1.000000
    6        8.786130   1.000000
    7       10.764654  -0.000000
    8       11.704142  -0.000000
    9       12.950671  -0.000000
   10       16.858192   0.000000

  0.4000000E+00  0.6666667E-01  0.6666667E-01  0.7111111E-02
    1       -1.956865   1.000000
    2       -0.048130   1.000000
    3        4.017294   1.000000
    4        4.202198   1.000000
    5        5.746074   1.000000
    6        8.804795   1.000000
    7       11.031604  -0.000000
    8       11.957033  -0.000000
    9       13.025981  -0.000000
   10       16.821606   0.000000

  0.4666667E+00  0.6666667E-01  0.6666667E-01  0.3555556E-02
    1       -1.323317   1.000000
    2       -0.714468   1.000000
    3        4.012917   1.000000
    4        4.084157   1.000000
    5        5.696676   1.000000
    6        8.804850   1.000000
    7       11.163802  -0.000000
    8       12.019445  -0.000000
    9       13.139233   0.000000
   10       16.671712   0.000000

  0.1333333E+00  0.1333333E+00  0.6666667E-01  0.3555556E-02
    1       -4.217726   1.000000
    2        2.885356   1.000000
    3        4.408640   1.000000
    4        4.929920   1.000000
    5        6.327689   1.000000
    6        8.552531   1.000000
    7       10.798265  -0.000000
    8       11.304632  -0.000000
    9       12.630567  -0.000000
   10       16.146753   0.000000

  0.2000000E+00  0.1333333E+00  0.6666667E-01  0.7111111E-02
    1       -3.651578   1.000000
    2        2.174622   1.000000
    3        3.971908   1.000000
    4        4.708405   1.000000
    5        6.600329   1.000000
    6        8.153354   1.000000
    7       10.378552   0.306727
    8       11.614298  -0.000000
    9       13.430662   0.000000
   10       15.942037   0.000000

  0.2666667E+00  0.1333333E+00  0.6666667E-01  0.7111111E-02
    1       -2.964318   1.000000
    2        1.371910   1.000000
    3        3.604325   1.000000
    4        4.464407   1.000000
    5        6.627578   1.000000
    6        8.085422   1.000000
    7       10.183734   1.017997
    8       11.965359  -0.000000
    9       13.832496   0.000000
   10       16.313828   0.000000

  0.3333333E+00  0.1333333E+00  0.6666667E-01  0.7111111E-02
    1       -2.184070   1.000000
    2        0.509411   1.000000
    3        3.340191   1.000000
    4        4.277939   1.000000
    5        6.432338   1.000000
    6        8.199732   1.000000
    7       10.339830   0.626801
    8       12.163573  -0.000000
    9       13.882197   0.000000
   10       16.927471   0.000000

  0.4000000E+00  0.1333333E+00  0.6666667E-01  0.7111111E-02
    1       -1.362509   1.000000
    2       -0.355496   1.000000
    3        3.200773   1.000000
    4        4.183287   1.000000
    5        6.280834   1.000000
    6        8.240636   1.000000
    7       10.683354  -0.000018
    8       12.121323  -0.000000
    9       13.870620   0.000000
   10       17.165267   0.000000

  0.2000000E+00  0.2000000E+00  0.6666667E-01  0.3555556E-02
    1       -3.031087   1.000000
    2        1.648798   1.000000
    3        3.284862   1.000000
    4        4.534461   1.000000
    5        7.245348   1.000000
    6        7.465788   1.000000
    7        9.945674   1.000000
    8       12.053508  -0.000000
    9       14.466174   0.000000
   10       15.815053   0.000000

  0.2666667E+00  0.2000000E+00  0.6666667E-01  0.7111111E-02
    1       -2.298268   1.000000
    2        1.021900   1.000000
    3        2.709805   1.000000
    4        4.441123   1.000000
    5        6.836838   1.000000
    6        7.895119   1.000000
    7        9.727924   1.000000
    8       12.224260  -0.000000
    9       15.033189   0.000000
   10       16.263108   0.000000

  0.3333333E+00  0.2000000E+00  0.6666667E-01  0.7111111E-02
    1       -1.483307   1.000000
    2        0.255294   1.000000
    3        2.361856   1.000000
    4        4.424776   1.000000
    5        6.407063   1.000000
    6        8.231111   1.000000
    7        9.962321   1.000000
    8       11.972864  -0.000000
    9       15.076660   0.000000
   10       17.089659   0.000000

  0.4000000E+00  0.2000000E+00  0.6666667E-01  0.3555556E-02
    1       -0.726098   1.000000
    2       -0.493535   1.000000
    3        2.250613   1.000000
    4        4.432259   1.000000
    5        6.247156   1.000000
    6        8.289344   1.000000
    7       10.279040   0.978994
    8       11.682866  -0.000000
    9       15.064664   0.000000
   10       17.458807   0.000000

  0.2666667E+00  0.2666667E+00  0.6666667E-01  0.3555556E-02
    1       -1.528852   1.000000
    2        0.662898   1.000000
    3        1.881525   1.000000
    4        4.559704   1.000000
    5        6.298003   1.000000
    6        8.569541   1.000000
    7        9.441673   1.000000
    8       11.914691  -0.000000
    9       16.219635   0.000000
   10       16.289928   0.000000

  0.3333333E+00  0.2666667E+00  0.6666667E-01  0.7111111E-02
    1       -0.698042   1.000000
    2        0.098148   1.000000
    3        1.398688   1.000000
    4        4.747123   1.000000
    5        5.831357   1.000000
    6        8.939347   1.000000
    7        9.711310   1.000000
    8       11.271877  -0.000000
    9       16.228556   0.000000
   10       17.163688   0.000000

  0.3333333E+00  0.3333333E+00  0.6666667E-01  0.1185185E-02
    1       -0.042308   1.000000
    2       -0.042306   1.000000
    3        0.769590   1.000000
    4        5.229379   1.000000
    5        5.229381   1.000000
    6        9.562261   1.000000
    7        9.562262   1.000000
    8       10.707645  -0.000004
    9       16.960196   0.000000
   10       16.960197   0.000000

  0.3742002E-15  0.3742002E-15  0.1333333E+00  0.5925926E-03
    1       -5.045516   1.000000
    2        4.316969   1.000000
    3        4.913479   1.000000
    4        4.913482   1.000000
    5        7.691092   1.000000
    6        8.895224   1.000000
    7        8.895226   1.000000
    8       12.351424  -0.000000
    9       12.351427  -0.000000
   10       14.974686   0.000000

  0.6666667E-01  0.3766815E-15  0.1333333E+00  0.3555556E-02
    1       -4.958510   1.000000
    2        4.335909   1.000000
    3        4.677740   1.000000
    4        4.931017   1.000000
    5        7.260900   1.000000
    6        8.835203   1.000000
    7        9.397707   1.000000
    8       12.180380  -0.000000
    9       12.297601  -0.000000
   10       15.293841   0.000000

  0.1333333E+00  0.3754153E-15  0.1333333E+00  0.3555556E-02
    1       -4.702384   1.000000
    2        3.980054   1.000000
    3        4.444636   1.000000
    4        4.959683   1.000000
    5        6.666363   1.000000
    6        8.733754   1.000000
    7       10.030606   1.000022
    8       12.041186  -0.000000
    9       12.158424  -0.000000
   10       15.812621   0.000000

  0.2000000E+00  0.3870416E-15  0.1333333E+00  0.3555556E-02
    1       -4.291113   1.000000
    2        3.112047   1.000000
    3        4.475532   1.000000
    4        4.945595   1.000000
    5        6.172295   1.000000
    6        8.741380   1.000000
    7       10.235328   1.035333
    8       11.973289  -0.000000
    9       12.404292  -0.000000
   10       15.604976   0.000000

  0.2666667E+00  0.4120044E-15  0.1333333E+00  0.3555556E-02
    1       -3.745079   1.000000
    2        2.156522   1.000000
    3        4.447912   1.000000
    4        4.857441   1.000000
    5        5.749780   1.000000
    6        8.940542   1.000000
    7       10.360789   0.451146
    8       11.776994  -0.000000
    9       12.808545  -0.000000
   10       15.601209   0.000000

  0.3333333E+00  0.4025434E-15  0.1333333E+00  0.3555556E-02
    1       -3.087788   1.000000
    2        1.193589   1.000000
    3        4.373201   1.000000
    4        4.721834   1.000000
    5        5.369735   1.000000
    6        9.288224   1.000000
    7       10.674203  -0.000031
    8       11.599269  -0.000000
    9       12.878569  -0.000000
   10       16.083414   0.000000

  0.4000000E+00  0.3732510E-15  0.1333333E+00  0.3555556E-02
    1       -2.342679   1.000000
    2        0.252922   1.000000
    3        4.302302   1.000000
    4        4.594238   1.000000
    5        5.060926   1.000000
    6        9.655202   1.000000
    7       10.984846  -0.000000
    8       11.464087  -0.000000
    9       13.037950  -0.000000
   10       16.363419   0.000000

  0.4666667E+00  0.3915456E-15  0.1333333E+00  0.3555556E-02
    1       -1.533488   1.000000
    2       -0.650373   1.000000
    3        4.265907   1.000000
    4        4.519405   1.000000
    5        4.882885   1.000000
    6        9.891598   1.000000
    7       11.088197  -0.000000
    8       11.389996  -0.000000
    9       13.446353   0.000000
   10       16.059578   0.000000

  0.6666667E-01  0.6666667E-01  0.1333333E+00  0.3555556E-02
    1       -4.786907   1.000000
    2        4.261883   1.000000
    3        4.347387   1.000000
    4        4.936798   1.000000
    5        6.873956   1.000000
    6        8.644537   1.000000
    7       10.000663   1.000003
    8       11.928933  -0.000000
    9       12.274558  -0.000000
   10       15.843831   0.000000

  0.1333333E+00  0.6666667E-01  0.1333333E+00  0.7111111E-02
    1       -4.453014   1.000000
    2        3.537115   1.000000
    3        4.313746   1.000000
    4        4.910041   1.000000
    5        6.567645   1.000000
    6        8.390413   1.000000
    7       10.524410  -0.018808
    8       11.759763  -0.000000
    9       12.381217  -0.000000
   10       15.964530   0.000000

  0.2000000E+00  0.6666667E-01  0.1333333E+00  0.7111111E-02
    1       -3.973759   1.000000
    2        2.644981   1.000000
    3        4.213559   1.000000
    4        4.838483   1.000000
    5        6.286614   1.000000
    6        8.365867   1.000000
    7       10.679910  -0.000022
    8       11.707870  -0.000000
    9       12.792556  -0.000000
   10       15.651077   0.000000

  0.2666667E+00  0.6666667E-01  0.1333333E+00  0.7111111E-02
    1       -3.371012   1.000000
    2        1.701806   1.000000
    3        4.087563   1.000000
    4        4.702539   1.000000
    5        5.936291   1.000000
    6        8.649326   1.000000
    7       10.863200  -0.000000
    8       11.597779  -0.000000
    9       13.076497  -0.000000
   10       15.806400   0.000000

  0.3333333E+00  0.6666667E-01  0.1333333E+00  0.7111111E-02
    1       -2.668266   1.000000
    2        0.760494   1.000000
    3        3.990816   1.000000
    4        4.522659   1.000000
    5        5.594112   1.000000
    6        9.084441   1.000000
    7       11.108882  -0.000000
    8       11.510890  -0.000000
    9       13.155011   0.000000
   10       16.277548   0.000000

  0.4000000E+00  0.6666667E-01  0.1333333E+00  0.7111111E-02
    1       -1.888183   1.000000
    2       -0.157403   1.000000
    3        3.945480   1.000000
    4        4.362954   1.000000
    5        5.355099   1.000000
    6        9.450501   1.000000
    7       11.222835  -0.000000
    8       11.508991  -0.000000
    9       13.381672   0.000000
   10       16.314938   0.000000

  0.4666667E+00  0.6666667E-01  0.1333333E+00  0.3555556E-02
    1       -1.109344   1.000000
    2       -0.980987   1.000000
    3        3.937098   1.000000
    4        4.296510   1.000000
    5        5.270424   1.000000
    6        9.587357   1.000000
    7       11.241757  -0.000000
    8       11.518974  -0.000000
    9       13.573091   0.000000
   10       16.150718   0.000000

  0.1333333E+00  0.1333333E+00  0.1333333E+00  0.3555556E-02
    1       -4.050667   1.000000
    2        2.942323   1.000000
    3        3.935862   1.000000
    4        4.833444   1.000000
    5        6.803716   1.000000
    6        7.801245   1.000000
    7       11.121368  -0.000000
    8       11.433127  -0.000000
    9       12.818111  -0.000000
   10       15.873568   0.000000

  0.2000000E+00  0.1333333E+00  0.1333333E+00  0.7111111E-02
    1       -3.513409   1.000000
    2        2.175506   1.000000
    3        3.582768   1.000000
    4        4.734012   1.000000
    5        6.764242   1.000000
    6        7.697015   1.000000
    7       11.134806  -0.000000
    8       11.574464  -0.000000
    9       13.396748   0.000000
   10       15.629445   0.000000

  0.2666667E+00  0.1333333E+00  0.1333333E+00  0.7111111E-02
    1       -2.863060   1.000000
    2        1.313176   1.000000
    3        3.342173   1.000000
    4        4.598669   1.000000
    5        6.274157   1.000000
    6        8.237320   1.000000
    7       10.949436  -0.000000
    8       11.854998  -0.000000
    9       13.728119   0.000000
   10       15.890063   0.000000

  0.3333333E+00  0.1333333E+00  0.1333333E+00  0.7111111E-02
    1       -2.122744   1.000000
    2        0.423536   1.000000
    3        3.195659   1.000000
    4        4.475587   1.000000
    5        5.856055   1.000000
    6        8.821156   1.000000
    7       10.856076  -0.000000
    8       11.984120  -0.000000
    9       13.845086   0.000000
   10       16.353423   0.000000

  0.4000000E+00  0.1333333E+00  0.1333333E+00  0.7111111E-02
    1       -1.314784   1.000000
    2       -0.459395   1.000000
    3        3.125894   1.000000
    4        4.408481   1.000000
    5        5.624649   1.000000
    6        9.176855   1.000000
    7       10.895780  -0.000000
    8       11.950564  -0.000000
    9       13.922200   0.000000
   10       16.525466   0.000000

  0.2000000E+00  0.2000000E+00  0.1333333E+00  0.3555556E-02
    1       -2.927790   1.000000
    2        1.643297   1.000000
    3        2.966277   1.000000
    4        4.635218   1.000000
    5        6.744080   1.000000
    6        7.687715   1.000000
    7       10.856696  -0.000000
    8       11.997987  -0.000000
    9       14.190761   0.000000
   10       15.534643   0.000000

  0.2666667E+00  0.2000000E+00  0.1333333E+00  0.7111111E-02
    1       -2.238892   1.000000
    2        0.970816   1.000000
    3        2.540894   1.000000
    4        4.567572   1.000000
    5        6.201070   1.000000
    6        8.371666   1.000000
    7       10.571030  -0.004605
    8       12.173845  -0.000000
    9       14.721274   0.000000
   10       15.877483   0.000000
