 running on    4 total cores
 distrk:  each k-point on    4 cores,    1 groups
 distr:  one band on    2 cores,    2 groups
 using from now: INCAR     
 vasp.5.4.4.18Apr17-6-g9f103f2a35 (build Dec  7 2020 12:43:57) complex           
 POSCAR found type information on POSCAR  Mo B 
 POSCAR found :  2 types and       3 ions
 scaLAPACK will be used
 LDA part: xc-table for Pade appr. of Perdew
 POSCAR, INCAR and KPOINTS ok, starting setup
 FFT: planning ...
 WAVECAR not read
 augmentation electrons   12.018373587906812     
 soft         electrons   0.0000000000000000     
 augmentation electrons   12.018373587906812     
 augmentation electrons   12.018373587906812     
 soft         electrons   0.0000000000000000     
 soft         electrons   0.0000000000000000     
 augmentation electrons   12.018373587906812     
 soft         electrons   0.0000000000000000     
 total        electrons   12.018373587906812     
 total        electrons   12.018373587906812     
 total        electrons   12.018373587906812     
 total        electrons   12.018373587906812     
 augmentation electrons   169.75791458332097     
 soft         electrons   0.0000000000000000     
 augmentation electrons   169.75791458332097     
 soft         electrons   0.0000000000000000     
 augmentation electrons   169.75791458332097     
 soft         electrons   0.0000000000000000     
 augmentation electrons   169.75791458332097     
 soft         electrons   0.0000000000000000     
 total        electrons   169.75791458332097     
 total        electrons   169.75791458332097     
 total        electrons   169.75791458332097     
 total        electrons   169.75791458332097     
 entering main loop
       N       E                     dE             d eps       ncg     rms          rms(c)
DAV:   1     0.383845707128E+02    0.38385E+02   -0.57075E+03  4320   0.105E+03
DAV:   2    -0.182695073579E+02   -0.56654E+02   -0.53727E+02  5166   0.218E+02
DAV:   3    -0.204868383089E+02   -0.22173E+01   -0.21162E+01  6152   0.380E+01
DAV:   4    -0.205150148730E+02   -0.28177E-01   -0.27899E-01  5580   0.318E+00
DAV:   5    -0.205154330718E+02   -0.41820E-03   -0.41762E-03  5612   0.298E-01    0.338E+01
RMM:   6    -0.161269356578E+02    0.43885E+01   -0.14619E+01  4341   0.250E+01    0.757E+00
RMM:   7    -0.162321558407E+02   -0.10522E+00   -0.67992E-01  4329   0.558E+00    0.456E+00
RMM:   8    -0.163727023165E+02   -0.14055E+00   -0.90286E-01  4320   0.124E+01    0.469E+00
RMM:   9    -0.163256002068E+02    0.47102E-01   -0.18397E-01  4324   0.323E+00    0.101E+00
RMM:  10    -0.163233273006E+02    0.22729E-02   -0.17879E-02  4331   0.188E+00    0.551E-01
RMM:  11    -0.163233301729E+02   -0.28723E-05   -0.86830E-03  4320   0.107E+00    0.222E-01
RMM:  12    -0.163275751591E+02   -0.42450E-02   -0.22945E-02  4320   0.217E+00    0.106E-01
RMM:  13    -0.163275490777E+02    0.26081E-04   -0.57054E-04  4349   0.239E-01    0.823E-02
RMM:  14    -0.163275428652E+02    0.62125E-05   -0.42559E-04  4321   0.251E-01    0.352E-02
RMM:  15    -0.163275653281E+02   -0.22463E-04   -0.92000E-05  4349   0.959E-02    0.247E-02
RMM:  16    -0.163275603144E+02    0.50137E-05   -0.42477E-05  4319   0.927E-02    0.845E-03
RMM:  17    -0.163275606445E+02   -0.33011E-06   -0.18076E-06  3021   0.194E-02
   1 F= -.17709973E+02 E0= -.17710000E+02  d E =-.177100E+02
 curvature:   0.00 expect dE= 0.000E+00 dE for cont linesearch  0.000E+00
 trial: gam= 0.00000 g(F)=  0.333E-43 g(S)=  0.316E-01 ort = 0.000E+00 (trialstep = 0.100E+01)
 search vector abs. value=  0.316E-01
 bond charge predicted
       N       E                     dE             d eps       ncg     rms          rms(c)
DAV:   1    -0.163504183827E+02   -0.22858E-01   -0.98229E-01  4426   0.848E+00    0.478E-01
RMM:   2    -0.163459176139E+02    0.45008E-02   -0.23426E-02  4323   0.146E+00    0.661E-01
RMM:   3    -0.163455250725E+02    0.39254E-03   -0.93459E-04  4352   0.229E-01    0.449E-01
RMM:   4    -0.163453813151E+02    0.14376E-03   -0.91982E-04  4320   0.335E-01    0.516E-02
RMM:   5    -0.163453831485E+02   -0.18334E-05   -0.15316E-05  4230   0.374E-02    0.495E-02
RMM:   6    -0.163454517670E+02   -0.68619E-04   -0.23078E-04  4320   0.203E-01    0.345E-02
RMM:   7    -0.163454589652E+02   -0.71983E-05   -0.12362E-05  4230   0.409E-02    0.107E-02
RMM:   8    -0.163454710315E+02   -0.12066E-04   -0.51617E-05  4307   0.110E-01    0.752E-03
RMM:   9    -0.163454702860E+02    0.74544E-06   -0.25647E-06  3198   0.238E-02
   2 F= -.17728089E+02 E0= -.17728133E+02  d E =-.181165E-01
 trial-energy change:   -0.018116  1 .order   -0.017642   -0.031604   -0.003681
 step:   1.1184(harm=  1.1318)  dis= 0.00000  next Energy=   -17.728308 (dE=-0.183E-01)
 bond charge predicted
       N       E                     dE             d eps       ncg     rms          rms(c)
DAV:   1    -0.163457484586E+02   -0.27743E-03   -0.13857E-02  4528   0.101E+00    0.554E-02
RMM:   2    -0.163456919320E+02    0.56527E-04   -0.30717E-04  4322   0.172E-01    0.762E-02
RMM:   3    -0.163456872235E+02    0.47084E-05   -0.12158E-05  4199   0.282E-02    0.515E-02
RMM:   4    -0.163456872316E+02   -0.81022E-08   -0.14710E-05  4317   0.454E-02    0.720E-03
RMM:   5    -0.163456876306E+02   -0.39900E-06   -0.88543E-07  2743   0.115E-02
   3 F= -.17728338E+02 E0= -.17728336E+02  d E =-.183652E-01
 curvature:  -0.56 expect dE=-0.311E-05 dE for cont linesearch -0.311E-05
 trial: gam=-0.01309 g(F)=  0.963E-43 g(S)=  0.556E-05 ort = 0.419E-03 (trialstep = 0.102E+01)
 search vector abs. value=  0.108E-08
 reached required accuracy - stopping structural energy minimisation
 writing wavefunctions
 augmentation electrons   1.1854062255425435     
 soft         electrons   10.836753443075168     
 augmentation electrons   1.1854062255425435     
 soft         electrons   10.836753443075168     
 augmentation electrons   1.1854062255425435     
 soft         electrons   10.836753443075168     
 augmentation electrons   1.1854062255425435     
 soft         electrons   10.836753443075168     
 total        electrons   12.022159668617711     
 total        electrons   12.022159668617711     
 total        electrons   12.022159668617711     
 total        electrons   12.022159668617711     
