   52   52   85    1
  0.2272233E+02  0.8645320E-09  0.6085000E-09  0.2593596E-08  0.5000000E-15
   1.0000000000000000E-004
  CAR 
 Name                                    
    192    149    128

  0.3742002E-15  0.3742002E-15  0.3742002E-15  0.3367003E-02
    1      -13.921770   1.000000
    2      -12.644333   1.000000
    3      -12.399271   1.000000
    4      -11.956106   1.000000
    5      -11.703582   1.000000
    6      -11.150569   1.000000
    7      -11.147179   1.000000
    8      -11.067150   1.000000
    9      -11.056388   1.000000
   10      -10.626300   1.000000
   11      -10.624207   1.000000
   12      -10.380735   1.000000
   13      -10.224924   1.000000
   14      -10.133514   1.000000
   15       -9.824864   1.000000
   16       -9.772354   1.000000
   17       -9.281049   1.000000
   18       -9.023919   1.000000
   19       -8.827049   1.000000
   20       -8.775939   1.000000
   21       -8.764495   1.000000
   22       -8.629362   1.000000
   23       -8.494703   1.000000
   24       -8.139360   1.000000
   25       -7.964143   1.000000
   26       -7.947466   1.000000
   27       -7.457923   1.000000
   28       -7.282394   1.000000
   29       -7.134146   1.000000
   30       -6.864070   1.000000
   31       -6.481422   1.000000
   32       -6.472754   1.000000
   33       -6.445735   1.000000
   34       -6.134691   1.000000
   35       -5.993418   1.000000
   36       -5.861251   1.000000
   37       -5.667165   1.000000
   38       -5.559559   1.000000
   39       -5.500759   1.000000
   40       -5.414106   1.000000
   41       -5.259774   1.000000
   42       -5.225276   1.000000
   43       -5.103709   1.000000
   44       -5.050710   1.000000
   45       -5.031197   1.000000
   46       -5.008144   1.000000
   47       -4.816107   1.000000
   48       -4.720352   1.000000
   49       -4.569577   1.000000
   50       -4.516597   1.000000
   51       -4.502238   1.000000
   52       -4.471431   1.000000
   53       -4.456614   1.000000
   54       -4.421408   1.000000
   55       -4.370357   1.000000
   56       -4.333900   1.000000
   57       -4.161149   1.000000
   58       -4.107553   1.000000
   59       -4.050238   1.000000
   60       -4.019716   1.000000
   61       -4.013377   1.000000
   62       -3.858814   1.000000
   63       -3.693902   1.000000
   64       -3.544149   1.000000
   65       -3.438323   1.000000
   66       -3.364562   1.000000
   67       -3.326847   1.000000
   68       -3.299629   1.000000
   69       -3.279855   1.000000
   70       -3.249098   1.000000
   71       -3.228281   1.000000
   72       -3.186674   1.000000
   73       -2.978825   1.000000
   74       -2.721891   1.000000
   75       -2.661597   1.000000
   76       -2.504249   1.000000
   77       -2.263837   1.000000
   78       -2.220115   1.000000
   79       -2.202100   1.000000
   80       -2.171201   1.000000
   81       -2.143566   1.000000
   82       -1.723891   1.000000
   83       -1.567450   1.000000
   84       -1.477268   1.000000
   85       -1.207249   1.000000
   86       -1.074845   1.000000
   87       -1.014649   1.000000
   88       -0.953606   1.000000
   89       -0.844933   1.000000
   90       -0.339474   1.000000
   91       -0.269813   1.000000
   92       -0.076265   1.005838
   93       -0.071386   1.006897
   94        0.067656   0.942958
   95        0.104334   0.732643
   96        0.208599   0.022387
   97        0.246905  -0.034158
   98        0.557647  -0.000000
   99        0.566001  -0.000000
  100        0.621294  -0.000000
  101        0.645771  -0.000000
  102        0.655736  -0.000000
  103        0.816061  -0.000000
  104        0.862146  -0.000000
  105        0.911812  -0.000000
  106        1.050556  -0.000000
  107        1.075473  -0.000000
  108        1.314559  -0.000000
  109        1.356237  -0.000000
  110        1.451716  -0.000000
  111        1.454859  -0.000000
  112        1.492079  -0.000000
  113        1.538491  -0.000000
  114        1.614794  -0.000000
  115        1.652414  -0.000000
  116        1.736962  -0.000000
  117        1.744061  -0.000000
  118        1.804198  -0.000000
  119        1.804771  -0.000000
  120        1.930374  -0.000000
  121        1.994488  -0.000000
  122        2.124637  -0.000000
  123        2.161805  -0.000000
  124        2.195628  -0.000000
  125        2.260463  -0.000000
  126        2.333662  -0.000000
  127        2.347755  -0.000000
  128        2.358772  -0.000000

  0.1111111E+00  0.3729374E-15  0.3860503E-15  0.6734007E-02
    1      -13.894666   1.000000
    2      -12.620217   1.000000
    3      -12.525663   1.000000
    4      -11.893407   1.000000
    5      -11.685137   1.000000
    6      -11.192972   1.000000
    7      -11.130758   1.000000
    8      -11.064860   1.000000
    9      -11.048430   1.000000
   10      -10.627674   1.000000
   11      -10.623611   1.000000
   12      -10.394081   1.000000
   13      -10.211870   1.000000
   14      -10.129344   1.000000
   15       -9.811639   1.000000
   16       -9.754971   1.000000
   17       -9.265745   1.000000
   18       -9.044441   1.000000
   19       -8.835895   1.000000
   20       -8.760258   1.000000
   21       -8.752546   1.000000
   22       -8.627896   1.000000
   23       -8.538507   1.000000
   24       -8.120990   1.000000
   25       -7.996150   1.000000
   26       -7.995247   1.000000
   27       -7.459486   1.000000
   28       -7.436318   1.000000
   29       -7.033459   1.000000
   30       -6.799993   1.000000
   31       -6.499984   1.000000
   32       -6.448770   1.000000
   33       -6.440903   1.000000
   34       -6.130901   1.000000
   35       -5.975299   1.000000
   36       -5.891086   1.000000
   37       -5.663785   1.000000
   38       -5.557907   1.000000
   39       -5.420871   1.000000
   40       -5.419499   1.000000
   41       -5.310005   1.000000
   42       -5.210620   1.000000
   43       -5.080279   1.000000
   44       -5.039329   1.000000
   45       -5.031345   1.000000
   46       -4.968241   1.000000
   47       -4.791670   1.000000
   48       -4.742345   1.000000
   49       -4.606519   1.000000
   50       -4.483101   1.000000
   51       -4.480708   1.000000
   52       -4.471794   1.000000
   53       -4.458973   1.000000
   54       -4.386883   1.000000
   55       -4.365725   1.000000
   56       -4.313185   1.000000
   57       -4.150586   1.000000
   58       -4.103393   1.000000
   59       -4.065942   1.000000
   60       -4.025143   1.000000
   61       -4.011514   1.000000
   62       -3.845488   1.000000
   63       -3.690911   1.000000
   64       -3.552016   1.000000
   65       -3.449182   1.000000
   66       -3.360489   1.000000
   67       -3.336263   1.000000
   68       -3.313728   1.000000
   69       -3.279867   1.000000
   70       -3.236171   1.000000
   71       -3.220630   1.000000
   72       -3.163394   1.000000
   73       -2.997277   1.000000
   74       -2.804382   1.000000
   75       -2.657049   1.000000
   76       -2.481233   1.000000
   77       -2.300494   1.000000
   78       -2.245411   1.000000
   79       -2.233377   1.000000
   80       -2.201634   1.000000
   81       -2.153549   1.000000
   82       -1.622607   1.000000
   83       -1.553994   1.000000
   84       -1.510288   1.000000
   85       -1.214453   1.000000
   86       -1.074342   1.000000
   87       -1.003687   1.000000
   88       -0.934265   1.000000
   89       -0.747047   1.000000
   90       -0.404654   1.000000
   91       -0.339343   1.000000
   92       -0.134485   1.000509
   93       -0.041662   1.016522
   94        0.114400   0.655243
   95        0.129599   0.529625
   96        0.206511   0.028785
   97        0.256316  -0.035450
   98        0.497243  -0.000002
   99        0.570393  -0.000000
  100        0.581284  -0.000000
  101        0.660066  -0.000000
  102        0.708118  -0.000000
  103        0.833119  -0.000000
  104        0.880863  -0.000000
  105        0.909384  -0.000000
  106        1.080565  -0.000000
  107        1.123266  -0.000000
  108        1.333003  -0.000000
  109        1.338248  -0.000000
  110        1.446273  -0.000000
  111        1.492895  -0.000000
  112        1.506872  -0.000000
  113        1.552815  -0.000000
  114        1.616149  -0.000000
  115        1.666680  -0.000000
  116        1.719298  -0.000000
  117        1.720030  -0.000000
  118        1.803062  -0.000000
  119        1.807524  -0.000000
  120        1.929714  -0.000000
  121        2.001963  -0.000000
  122        2.080253  -0.000000
  123        2.144795  -0.000000
  124        2.171682  -0.000000
  125        2.245694  -0.000000
  126        2.301133  -0.000000
  127        2.313678  -0.000000
  128        2.380372  -0.000000

  0.2222222E+00  0.3922785E-15  0.3630220E-15  0.6734007E-02
    1      -13.814107   1.000000
    2      -12.771041   1.000000
    3      -12.548989   1.000000
    4      -11.857716   1.000000
    5      -11.632213   1.000000
    6      -11.271059   1.000000
    7      -11.088157   1.000000
    8      -11.052235   1.000000
    9      -11.021914   1.000000
   10      -10.628631   1.000000
   11      -10.620965   1.000000
   12      -10.464032   1.000000
   13      -10.177174   1.000000
   14      -10.123710   1.000000
   15       -9.767679   1.000000
   16       -9.701443   1.000000
   17       -9.215747   1.000000
   18       -9.092366   1.000000
   19       -8.840037   1.000000
   20       -8.769631   1.000000
   21       -8.744333   1.000000
   22       -8.629937   1.000000
   23       -8.602739   1.000000
   24       -8.159170   1.000000
   25       -8.118330   1.000000
   26       -7.960766   1.000000
   27       -7.677492   1.000000
   28       -7.412700   1.000000
   29       -6.947227   1.000000
   30       -6.679681   1.000000
   31       -6.630338   1.000000
   32       -6.402527   1.000000
   33       -6.397461   1.000000
   34       -6.092613   1.000000
   35       -6.033390   1.000000
   36       -5.858790   1.000000
   37       -5.589000   1.000000
   38       -5.574442   1.000000
   39       -5.492814   1.000000
   40       -5.296500   1.000000
   41       -5.210417   1.000000
   42       -5.169694   1.000000
   43       -5.107687   1.000000
   44       -5.047148   1.000000
   45       -4.938848   1.000000
   46       -4.901640   1.000000
   47       -4.887896   1.000000
   48       -4.759689   1.000000
   49       -4.588822   1.000000
   50       -4.471481   1.000000
   51       -4.465321   1.000000
   52       -4.432393   1.000000
   53       -4.404067   1.000000
   54       -4.368181   1.000000
   55       -4.318696   1.000000
   56       -4.255218   1.000000
   57       -4.153734   1.000000
   58       -4.074086   1.000000
   59       -4.069554   1.000000
   60       -4.038961   1.000000
   61       -4.004633   1.000000
   62       -3.804443   1.000000
   63       -3.683541   1.000000
   64       -3.601218   1.000000
   65       -3.532158   1.000000
   66       -3.377664   1.000000
   67       -3.337188   1.000000
   68       -3.331421   1.000000
   69       -3.292547   1.000000
   70       -3.186711   1.000000
   71       -3.181922   1.000000
   72       -3.080232   1.000000
   73       -3.074222   1.000000
   74       -2.911376   1.000000
   75       -2.661829   1.000000
   76       -2.454907   1.000000
   77       -2.420090   1.000000
   78       -2.388511   1.000000
   79       -2.373777   1.000000
   80       -2.151529   1.000000
   81       -2.100448   1.000000
   82       -1.601067   1.000000
   83       -1.555377   1.000000
   84       -1.401962   1.000000
   85       -1.247721   1.000000
   86       -1.021487   1.000000
   87       -0.970428   1.000000
   88       -0.879059   1.000000
   89       -0.536173   1.000000
   90       -0.520515   1.000000
   91       -0.490632   1.000000
   92       -0.272190   1.000000
   93        0.048397   1.001125
   94        0.082914   0.871128
   95        0.128601   0.538049
   96        0.254769  -0.035448
   97        0.364718  -0.002530
   98        0.446739  -0.000043
   99        0.496638  -0.000002
  100        0.550561  -0.000000
  101        0.669834  -0.000000
  102        0.764460  -0.000000
  103        0.865868  -0.000000
  104        0.882390  -0.000000
  105        0.955063  -0.000000
  106        1.209265  -0.000000
  107        1.247434  -0.000000
  108        1.250297  -0.000000
  109        1.424762  -0.000000
  110        1.443768  -0.000000
  111        1.519686  -0.000000
  112        1.536798  -0.000000
  113        1.590388  -0.000000
  114        1.611717  -0.000000
  115        1.644126  -0.000000
  116        1.693841  -0.000000
  117        1.742911  -0.000000
  118        1.781112  -0.000000
  119        1.792595  -0.000000
  120        1.938179  -0.000000
  121        1.965635  -0.000000
  122        2.032231  -0.000000
  123        2.084902  -0.000000
  124        2.127735  -0.000000
  125        2.191646  -0.000000
  126        2.231881  -0.000000
  127        2.292212  -0.000000
  128        2.402727  -0.000000

  0.3333333E+00  0.3713828E-15  0.3468587E-15  0.6734007E-02
    1      -13.682427   1.000000
    2      -13.035009   1.000000
    3      -12.434324   1.000000
    4      -11.947970   1.000000
    5      -11.552678   1.000000
    6      -11.323533   1.000000
    7      -11.047902   1.000000
    8      -11.036230   1.000000
    9      -10.959214   1.000000
   10      -10.630126   1.000000
   11      -10.616005   1.000000
   12      -10.580735   1.000000
   13      -10.149588   1.000000
   14      -10.125998   1.000000
   15       -9.688667   1.000000
   16       -9.618837   1.000000
   17       -9.153646   1.000000
   18       -9.150265   1.000000
   19       -8.933572   1.000000
   20       -8.830011   1.000000
   21       -8.700139   1.000000
   22       -8.636318   1.000000
   23       -8.543003   1.000000
   24       -8.275049   1.000000
   25       -8.267616   1.000000
   26       -7.933703   1.000000
   27       -7.788986   1.000000
   28       -7.268844   1.000000
   29       -6.973041   1.000000
   30       -6.824468   1.000000
   31       -6.612163   1.000000
   32       -6.399330   1.000000
   33       -6.337076   1.000000
   34       -6.175155   1.000000
   35       -5.971639   1.000000
   36       -5.745247   1.000000
   37       -5.626049   1.000000
   38       -5.468757   1.000000
   39       -5.422175   1.000000
   40       -5.241113   1.000000
   41       -5.175413   1.000000
   42       -5.151494   1.000000
   43       -5.110809   1.000000
   44       -5.078115   1.000000
   45       -4.969314   1.000000
   46       -4.869739   1.000000
   47       -4.785334   1.000000
   48       -4.746917   1.000000
   49       -4.569291   1.000000
   50       -4.460363   1.000000
   51       -4.432790   1.000000
   52       -4.418194   1.000000
   53       -4.352406   1.000000
   54       -4.328604   1.000000
   55       -4.300665   1.000000
   56       -4.178859   1.000000
   57       -4.159340   1.000000
   58       -4.120382   1.000000
   59       -4.004416   1.000000
   60       -3.987088   1.000000
   61       -3.955603   1.000000
   62       -3.807706   1.000000
   63       -3.695056   1.000000
   64       -3.645003   1.000000
   65       -3.636361   1.000000
   66       -3.374878   1.000000
   67       -3.371672   1.000000
   68       -3.332574   1.000000
   69       -3.318379   1.000000
   70       -3.286698   1.000000
   71       -3.114364   1.000000
   72       -3.065431   1.000000
   73       -2.970866   1.000000
   74       -2.890706   1.000000
   75       -2.723986   1.000000
   76       -2.603944   1.000000
   77       -2.562449   1.000000
   78       -2.519682   1.000000
   79       -2.404635   1.000000
   80       -2.165705   1.000000
   81       -1.922876   1.000000
   82       -1.676961   1.000000
   83       -1.611461   1.000000
   84       -1.419179   1.000000
   85       -1.113351   1.000000
   86       -0.921004   1.000000
   87       -0.891641   1.000000
   88       -0.770889   1.000000
   89       -0.678071   1.000000
   90       -0.651599   1.000000
   91       -0.441029   1.000000
   92       -0.210059   1.000007
   93        0.002102   1.034463
   94        0.018312   1.034450
   95        0.161132   0.272805
   96        0.307940  -0.016492
   97        0.356865  -0.003447
   98        0.383834  -0.001121
   99        0.427977  -0.000124
  100        0.629148  -0.000000
  101        0.730231  -0.000000
  102        0.869302  -0.000000
  103        0.879731  -0.000000
  104        0.912991  -0.000000
  105        1.064296  -0.000000
  106        1.086837  -0.000000
  107        1.369952  -0.000000
  108        1.392387  -0.000000
  109        1.450589  -0.000000
  110        1.498738  -0.000000
  111        1.544909  -0.000000
  112        1.567238  -0.000000
  113        1.572185  -0.000000
  114        1.593863  -0.000000
  115        1.634077  -0.000000
  116        1.691119  -0.000000
  117        1.726059  -0.000000
  118        1.772633  -0.000000
  119        1.808363  -0.000000
  120        1.814885  -0.000000
  121        1.964782  -0.000000
  122        1.996803  -0.000000
  123        2.066404  -0.000000
  124        2.127909  -0.000000
  125        2.148716  -0.000000
  126        2.183544  -0.000000
  127        2.203461  -0.000000
  128        2.245469  -0.000000

  0.4444444E+00  0.3870091E-15  0.3932070E-15  0.6734007E-02
    1      -13.503777   1.000000
    2      -13.284655   1.000000
    3      -12.283597   1.000000
    4      -12.111197   1.000000
    5      -11.461405   1.000000
    6      -11.379857   1.000000
    7      -11.028976   1.000000
    8      -11.026355   1.000000
    9      -10.855531   1.000000
   10      -10.729098   1.000000
   11      -10.612887   1.000000
   12      -10.611993   1.000000
   13      -10.139264   1.000000
   14      -10.133446   1.000000
   15       -9.594124   1.000000
   16       -9.555618   1.000000
   17       -9.188826   1.000000
   18       -9.143570   1.000000
   19       -9.002594   1.000000
   20       -8.937342   1.000000
   21       -8.583935   1.000000
   22       -8.577886   1.000000
   23       -8.493181   1.000000
   24       -8.407557   1.000000
   25       -8.321482   1.000000
   26       -8.171142   1.000000
   27       -7.537113   1.000000
   28       -7.236168   1.000000
   29       -7.069504   1.000000
   30       -6.914237   1.000000
   31       -6.581364   1.000000
   32       -6.499111   1.000000
   33       -6.285970   1.000000
   34       -6.250849   1.000000
   35       -5.804582   1.000000
   36       -5.689021   1.000000
   37       -5.570849   1.000000
   38       -5.421437   1.000000
   39       -5.368428   1.000000
   40       -5.336839   1.000000
   41       -5.194810   1.000000
   42       -5.179756   1.000000
   43       -5.114975   1.000000
   44       -5.090946   1.000000
   45       -4.866744   1.000000
   46       -4.832042   1.000000
   47       -4.728902   1.000000
   48       -4.646024   1.000000
   49       -4.626902   1.000000
   50       -4.510705   1.000000
   51       -4.417273   1.000000
   52       -4.395113   1.000000
   53       -4.324103   1.000000
   54       -4.276051   1.000000
   55       -4.258795   1.000000
   56       -4.235773   1.000000
   57       -4.088493   1.000000
   58       -4.077458   1.000000
   59       -3.997029   1.000000
   60       -3.989671   1.000000
   61       -3.878401   1.000000
   62       -3.799569   1.000000
   63       -3.783542   1.000000
   64       -3.651346   1.000000
   65       -3.621836   1.000000
   66       -3.571372   1.000000
   67       -3.329352   1.000000
   68       -3.317672   1.000000
   69       -3.303822   1.000000
   70       -3.297317   1.000000
   71       -3.055576   1.000000
   72       -3.044539   1.000000
   73       -2.888573   1.000000
   74       -2.876048   1.000000
   75       -2.829240   1.000000
   76       -2.725606   1.000000
   77       -2.649147   1.000000
   78       -2.645350   1.000000
   79       -2.317445   1.000000
   80       -2.224897   1.000000
   81       -1.748204   1.000000
   82       -1.715413   1.000000
   83       -1.657686   1.000000
   84       -1.543504   1.000000
   85       -0.977223   1.000000
   86       -0.909230   1.000000
   87       -0.860529   1.000000
   88       -0.807132   1.000000
   89       -0.677007   1.000000
   90       -0.583181   1.000000
   91       -0.473585   1.000000
   92       -0.136260   1.000467
   93       -0.035746   1.019052
   94       -0.013212   1.029259
   95        0.098160   0.776645
   96        0.282498  -0.027920
   97        0.322093  -0.011223
   98        0.355432  -0.003641
   99        0.606981  -0.000000
  100        0.643678  -0.000000
  101        0.675033  -0.000000
  102        0.852797  -0.000000
  103        0.899656  -0.000000
  104        0.903536  -0.000000
  105        1.225981  -0.000000
  106        1.247069  -0.000000
  107        1.373757  -0.000000
  108        1.455718  -0.000000
  109        1.478040  -0.000000
  110        1.499238  -0.000000
  111        1.502669  -0.000000
  112        1.523634  -0.000000
  113        1.599481  -0.000000
  114        1.614851  -0.000000
  115        1.651826  -0.000000
  116        1.699862  -0.000000
  117        1.701223  -0.000000
  118        1.735104  -0.000000
  119        1.776884  -0.000000
  120        1.904462  -0.000000
  121        1.905309  -0.000000
  122        1.966361  -0.000000
  123        1.973665  -0.000000
  124        2.083545  -0.000000
  125        2.097499  -0.000000
  126        2.160428  -0.000000
  127        2.181243  -0.000000
  128        2.255279  -0.000000

  0.3742002E-15  0.9090909E-01  0.3596334E-15  0.6734007E-02
    1      -13.888322   1.000000
    2      -12.614665   1.000000
    3      -12.407289   1.000000
    4      -11.922290   1.000000
    5      -11.681704   1.000000
    6      -11.267702   1.000000
    7      -11.232378   1.000000
    8      -11.133213   1.000000
    9      -11.092931   1.000000
   10      -10.667834   1.000000
   11      -10.617065   1.000000
   12      -10.369113   1.000000
   13      -10.148639   1.000000
   14      -10.066885   1.000000
   15       -9.821299   1.000000
   16       -9.787038   1.000000
   17       -9.251287   1.000000
   18       -9.049641   1.000000
   19       -9.011747   1.000000
   20       -8.797383   1.000000
   21       -8.697276   1.000000
   22       -8.511171   1.000000
   23       -8.352207   1.000000
   24       -8.057512   1.000000
   25       -7.858473   1.000000
   26       -7.804707   1.000000
   27       -7.425569   1.000000
   28       -7.360267   1.000000
   29       -7.099568   1.000000
   30       -6.821563   1.000000
   31       -6.519611   1.000000
   32       -6.465437   1.000000
   33       -6.456859   1.000000
   34       -6.120712   1.000000
   35       -6.005045   1.000000
   36       -5.907742   1.000000
   37       -5.648344   1.000000
   38       -5.583648   1.000000
   39       -5.450265   1.000000
   40       -5.362673   1.000000
   41       -5.282622   1.000000
   42       -5.242650   1.000000
   43       -5.153635   1.000000
   44       -5.083915   1.000000
   45       -5.035631   1.000000
   46       -5.008593   1.000000
   47       -4.908545   1.000000
   48       -4.804245   1.000000
   49       -4.711407   1.000000
   50       -4.578991   1.000000
   51       -4.512253   1.000000
   52       -4.493164   1.000000
   53       -4.441378   1.000000
   54       -4.378753   1.000000
   55       -4.370521   1.000000
   56       -4.333840   1.000000
   57       -4.250120   1.000000
   58       -4.168715   1.000000
   59       -4.044864   1.000000
   60       -3.987284   1.000000
   61       -3.873140   1.000000
   62       -3.855152   1.000000
   63       -3.709639   1.000000
   64       -3.557074   1.000000
   65       -3.450182   1.000000
   66       -3.422381   1.000000
   67       -3.397558   1.000000
   68       -3.305001   1.000000
   69       -3.287613   1.000000
   70       -3.197976   1.000000
   71       -3.197105   1.000000
   72       -3.130137   1.000000
   73       -3.007367   1.000000
   74       -2.790693   1.000000
   75       -2.670768   1.000000
   76       -2.482212   1.000000
   77       -2.230194   1.000000
   78       -2.211385   1.000000
   79       -2.185329   1.000000
   80       -2.179408   1.000000
   81       -2.023976   1.000000
   82       -1.745373   1.000000
   83       -1.587015   1.000000
   84       -1.443810   1.000000
   85       -1.279607   1.000000
   86       -1.074876   1.000000
   87       -1.006625   1.000000
   88       -1.001347   1.000000
   89       -0.885559   1.000000
   90       -0.515209   1.000000
   91       -0.283408   1.000000
   92       -0.147782   1.000261
   93       -0.096963   1.002693
   94        0.000638   1.034120
   95        0.055857   0.982659
   96        0.191955   0.085199
   97        0.212216   0.012254
   98        0.421369  -0.000177
   99        0.441066  -0.000059
  100        0.612818  -0.000000
  101        0.730717  -0.000000
  102        0.779860  -0.000000
  103        0.859993  -0.000000
  104        0.972325  -0.000000
  105        0.974300  -0.000000
  106        1.094712  -0.000000
  107        1.126137  -0.000000
  108        1.271537  -0.000000
  109        1.371664  -0.000000
  110        1.441124  -0.000000
  111        1.465121  -0.000000
  112        1.520478  -0.000000
  113        1.545277  -0.000000
  114        1.626915  -0.000000
  115        1.679194  -0.000000
  116        1.706175  -0.000000
  117        1.738666  -0.000000
  118        1.780063  -0.000000
  119        1.801949  -0.000000
  120        1.973051  -0.000000
  121        2.007561  -0.000000
  122        2.038285  -0.000000
  123        2.158536  -0.000000
  124        2.168485  -0.000000
  125        2.257894  -0.000000
  126        2.305543  -0.000000
  127        2.314450  -0.000000
  128        2.400710  -0.000000

  0.1111111E+00  0.9090909E-01  0.4822234E-15  0.6734007E-02
    1      -13.839230   1.000000
    2      -12.600430   1.000000
    3      -12.570629   1.000000
    4      -11.848946   1.000000
    5      -11.647258   1.000000
    6      -11.313352   1.000000
    7      -11.206111   1.000000
    8      -11.178893   1.000000
    9      -11.057898   1.000000
   10      -10.680516   1.000000
   11      -10.549015   1.000000
   12      -10.402259   1.000000
   13      -10.180248   1.000000
   14      -10.084758   1.000000
   15       -9.775031   1.000000
   16       -9.744813   1.000000
   17       -9.226922   1.000000
   18       -9.046598   1.000000
   19       -9.040420   1.000000
   20       -8.807510   1.000000
   21       -8.684524   1.000000
   22       -8.502486   1.000000
   23       -8.418969   1.000000
   24       -8.050579   1.000000
   25       -7.907839   1.000000
   26       -7.841930   1.000000
   27       -7.553789   1.000000
   28       -7.416306   1.000000
   29       -7.009685   1.000000
   30       -6.726325   1.000000
   31       -6.552484   1.000000
   32       -6.522937   1.000000
   33       -6.362138   1.000000
   34       -6.099070   1.000000
   35       -6.011875   1.000000
   36       -5.947835   1.000000
   37       -5.609043   1.000000
   38       -5.519401   1.000000
   39       -5.470881   1.000000
   40       -5.363101   1.000000
   41       -5.274342   1.000000
   42       -5.219049   1.000000
   43       -5.127837   1.000000
   44       -5.050720   1.000000
   45       -5.019379   1.000000
   46       -4.971339   1.000000
   47       -4.957854   1.000000
   48       -4.759382   1.000000
   49       -4.686010   1.000000
   50       -4.521149   1.000000
   51       -4.504157   1.000000
   52       -4.463224   1.000000
   53       -4.446389   1.000000
   54       -4.385863   1.000000
   55       -4.342385   1.000000
   56       -4.305073   1.000000
   57       -4.258379   1.000000
   58       -4.149722   1.000000
   59       -4.080152   1.000000
   60       -3.993666   1.000000
   61       -3.879278   1.000000
   62       -3.819678   1.000000
   63       -3.686911   1.000000
   64       -3.576438   1.000000
   65       -3.489471   1.000000
   66       -3.464640   1.000000
   67       -3.363744   1.000000
   68       -3.329144   1.000000
   69       -3.257234   1.000000
   70       -3.214867   1.000000
   71       -3.196532   1.000000
   72       -3.095198   1.000000
   73       -2.993515   1.000000
   74       -2.878495   1.000000
   75       -2.689329   1.000000
   76       -2.463392   1.000000
   77       -2.361610   1.000000
   78       -2.286548   1.000000
   79       -2.248586   1.000000
   80       -2.132122   1.000000
   81       -2.071614   1.000000
   82       -1.636691   1.000000
   83       -1.626074   1.000000
   84       -1.431056   1.000000
   85       -1.311985   1.000000
   86       -1.050391   1.000000
   87       -0.981578   1.000000
   88       -0.926342   1.000000
   89       -0.739974   1.000000
   90       -0.572952   1.000000
   91       -0.334126   1.000000
   92       -0.199891   1.000013
   93       -0.090931   1.003411
   94        0.081481   0.878868
   95        0.099471   0.767549
   96        0.222203  -0.009809
   97        0.223082  -0.011362
   98        0.353077  -0.003979
   99        0.368053  -0.002209
  100        0.596514  -0.000000
  101        0.780185  -0.000000
  102        0.855939  -0.000000
  103        0.866987  -0.000000
  104        0.909533  -0.000000
  105        1.006909  -0.000000
  106        1.063525  -0.000000
  107        1.267119  -0.000000
  108        1.320330  -0.000000
  109        1.326248  -0.000000
  110        1.391997  -0.000000
  111        1.483433  -0.000000
  112        1.565659  -0.000000
  113        1.576004  -0.000000
  114        1.602460  -0.000000
  115        1.679300  -0.000000
  116        1.685952  -0.000000
  117        1.758269  -0.000000
  118        1.799778  -0.000000
  119        1.803358  -0.000000
  120        1.962290  -0.000000
  121        1.989639  -0.000000
  122        2.044784  -0.000000