   51   51   85    1
  0.1966621E+02  0.8733603E-09  0.6079487E-09  0.2183401E-08  0.5000000E-15
   1.0000000000000000E-004
  CAR 
 Name                                    
    187     50    120

  0.3742002E-15  0.3742002E-15  0.1262379E-14  0.1010101E-01
    1      -13.117442   1.000000
    2      -11.840938   1.000000
    3      -11.654118   1.000000
    4      -11.254018   1.000000
    5      -10.693575   1.000000
    6      -10.426188   1.000000
    7      -10.209403   1.000000
    8      -10.107903   1.000000
    9      -10.004154   1.000000
   10       -9.816856   1.000000
   11       -9.814980   1.000000
   12       -9.641960   1.000000
   13       -9.370772   1.000000
   14       -9.339222   1.000000
   15       -8.971333   1.000000
   16       -8.918809   1.000000
   17       -8.401097   1.000000
   18       -8.302656   1.000000
   19       -8.007941   1.000000
   20       -7.645938   1.000000
   21       -7.632881   1.000000
   22       -7.447097   1.000000
   23       -7.427350   1.000000
   24       -7.201642   1.000000
   25       -7.181509   1.000000
   26       -7.152219   1.000000
   27       -6.691206   1.000000
   28       -6.499075   1.000000
   29       -6.142524   1.000000
   30       -5.731887   1.000000
   31       -5.614258   1.000000
   32       -5.418228   1.000000
   33       -5.282345   1.000000
   34       -5.009893   1.000000
   35       -4.948586   1.000000
   36       -4.794010   1.000000
   37       -4.708505   1.000000
   38       -4.522562   1.000000
   39       -4.431501   1.000000
   40       -4.388669   1.000000
   41       -4.327044   1.000000
   42       -4.194416   1.000000
   43       -4.100675   1.000000
   44       -3.958020   1.000000
   45       -3.932804   1.000000
   46       -3.879997   1.000000
   47       -3.854050   1.000000
   48       -3.778418   1.000000
   49       -3.675533   1.000000
   50       -3.591549   1.000000
   51       -3.557579   1.000000
   52       -3.503158   1.000000
   53       -3.469688   1.000000
   54       -3.256639   1.000000
   55       -3.183244   1.000000
   56       -3.165369   1.000000
   57       -3.068722   1.000000
   58       -3.049391   1.000000
   59       -2.949674   1.000000
   60       -2.924956   1.000000
   61       -2.825603   1.000000
   62       -2.728823   1.000000
   63       -2.651886   1.000000
   64       -2.640223   1.000000
   65       -2.517608   1.000000
   66       -2.466195   1.000000
   67       -2.386701   1.000000
   68       -2.355734   1.000000
   69       -2.212794   1.000000
   70       -2.196567   1.000000
   71       -2.171077   1.000000
   72       -2.071153   1.000000
   73       -2.064480   1.000000
   74       -1.643168   1.000000
   75       -1.462652   1.000000
   76       -1.372476   1.000000
   77       -1.247332   1.000000
   78       -1.196777   1.000000
   79       -1.123322   1.000000
   80       -1.102976   1.000000
   81       -0.776975   1.000000
   82       -0.679788   1.000000
   83       -0.469552   1.000000
   84       -0.437054   1.000000
   85       -0.251454   1.000000
   86       -0.029889   1.000000
   87        0.011333   1.000000
   88        0.085415   1.000000
   89        0.112360   1.000000
   90        0.541239   1.000282
   91        0.589698   1.002603
   92        0.829952   0.421298
   93        0.841273   0.329180
   94        0.945271  -0.035386
   95        1.007822  -0.011816
   96        1.029103  -0.006017
   97        1.072770  -0.001051
   98        1.242212  -0.000000
   99        1.331407  -0.000000
  100        1.350399  -0.000000
  101        1.376318  -0.000000
  102        1.416334  -0.000000
  103        1.483885  -0.000000
  104        1.525072  -0.000000
  105        1.551063  -0.000000
  106        1.698872  -0.000000
  107        1.843936  -0.000000
  108        1.910461  -0.000000
  109        1.982835  -0.000000
  110        2.033178  -0.000000
  111        2.082429  -0.000000
  112        2.120250  -0.000000
  113        2.163071  -0.000000
  114        2.178071  -0.000000
  115        2.200659  -0.000000
  116        2.329485  -0.000000
  117        2.361831  -0.000000
  118        2.467657  -0.000000
  119        2.501839  -0.000000
  120        2.541996  -0.000000

  0.1111111E+00  0.3694577E-15  0.1266495E-14  0.2020202E-01
    1      -13.092273   1.000000
    2      -11.820882   1.000000
    3      -11.784830   1.000000
    4      -11.171977   1.000000
    5      -10.682849   1.000000
    6      -10.462711   1.000000
    7      -10.197293   1.000000
    8      -10.110295   1.000000
    9      -10.008823   1.000000
   10       -9.811611   1.000000
   11       -9.806282   1.000000
   12       -9.635333   1.000000
   13       -9.361911   1.000000
   14       -9.333027   1.000000
   15       -8.959947   1.000000
   16       -8.902238   1.000000
   17       -8.388723   1.000000
   18       -8.310020   1.000000
   19       -8.013723   1.000000
   20       -7.638709   1.000000
   21       -7.623084   1.000000
   22       -7.500202   1.000000
   23       -7.486888   1.000000
   24       -7.207766   1.000000
   25       -7.188061   1.000000
   26       -7.095565   1.000000
   27       -6.778073   1.000000
   28       -6.530209   1.000000
   29       -6.094227   1.000000
   30       -5.721321   1.000000
   31       -5.544710   1.000000
   32       -5.396307   1.000000
   33       -5.263478   1.000000
   34       -5.073151   1.000000
   35       -4.919303   1.000000
   36       -4.790566   1.000000
   37       -4.718311   1.000000
   38       -4.572969   1.000000
   39       -4.476525   1.000000
   40       -4.375230   1.000000
   41       -4.326751   1.000000
   42       -4.152450   1.000000
   43       -4.068863   1.000000
   44       -3.931202   1.000000
   45       -3.877258   1.000000
   46       -3.865990   1.000000
   47       -3.835441   1.000000
   48       -3.757095   1.000000
   49       -3.707023   1.000000
   50       -3.576029   1.000000
   51       -3.540885   1.000000
   52       -3.489497   1.000000
   53       -3.463517   1.000000
   54       -3.260600   1.000000
   55       -3.174339   1.000000
   56       -3.155595   1.000000
   57       -3.078006   1.000000
   58       -3.044162   1.000000
   59       -2.977110   1.000000
   60       -2.944006   1.000000
   61       -2.848813   1.000000
   62       -2.731252   1.000000
   63       -2.654382   1.000000
   64       -2.643075   1.000000
   65       -2.520943   1.000000
   66       -2.487631   1.000000
   67       -2.407293   1.000000
   68       -2.373799   1.000000
   69       -2.209908   1.000000
   70       -2.183173   1.000000
   71       -2.147463   1.000000
   72       -2.059763   1.000000
   73       -2.033344   1.000000
   74       -1.720544   1.000000
   75       -1.471043   1.000000
   76       -1.388876   1.000000
   77       -1.249229   1.000000
   78       -1.244001   1.000000
   79       -1.139203   1.000000
   80       -1.067338   1.000000
   81       -0.801692   1.000000
   82       -0.588759   1.000000
   83       -0.481007   1.000000
   84       -0.456800   1.000000
   85       -0.266776   1.000000
   86       -0.038343   1.000000
   87        0.018006   1.000000
   88        0.100779   1.000000
   89        0.191315   1.000000
   90        0.498802   1.000026
   91        0.544244   1.000329
   92        0.790402   0.743146
   93        0.850808   0.256879
   94        0.986851  -0.020211
   95        1.026824  -0.006506
   96        1.041628  -0.003826
   97        1.078252  -0.000817
   98        1.269803  -0.000000
   99        1.313803  -0.000000
  100        1.353815  -0.000000
  101        1.374419  -0.000000
  102        1.411330  -0.000000
  103        1.497324  -0.000000
  104        1.540745  -0.000000
  105        1.558813  -0.000000
  106        1.728762  -0.000000
  107        1.860479  -0.000000
  108        1.945832  -0.000000
  109        2.009853  -0.000000
  110        2.026020  -0.000000
  111        2.085905  -0.000000
  112        2.118940  -0.000000
  113        2.169104  -0.000000
  114        2.187500  -0.000000
  115        2.217507  -0.000000
  116        2.320467  -0.000000
  117        2.346623  -0.000000
  118        2.457319  -0.000000
  119        2.487368  -0.000000
  120        2.548602  -0.000000

  0.2222222E+00  0.3681327E-15  0.1265439E-14  0.2020202E-01
    1      -13.017400   1.000000
    2      -12.031567   1.000000
    3      -11.751112   1.000000
    4      -11.110400   1.000000
    5      -10.653243   1.000000
    6      -10.509252   1.000000
    7      -10.167482   1.000000
    8      -10.116516   1.000000
    9      -10.011391   1.000000
   10       -9.799009   1.000000
   11       -9.785315   1.000000
   12       -9.647152   1.000000
   13       -9.344262   1.000000
   14       -9.321093   1.000000
   15       -8.926792   1.000000
   16       -8.851634   1.000000
   17       -8.343112   1.000000
   18       -8.319083   1.000000
   19       -8.016441   1.000000
   20       -7.653848   1.000000
   21       -7.649920   1.000000
   22       -7.597401   1.000000
   23       -7.581009   1.000000
   24       -7.238088   1.000000
   25       -7.220948   1.000000
   26       -7.013938   1.000000
   27       -6.889405   1.000000
   28       -6.556998   1.000000
   29       -6.054398   1.000000
   30       -5.705390   1.000000
   31       -5.436221   1.000000
   32       -5.304486   1.000000
   33       -5.258891   1.000000
   34       -5.198063   1.000000
   35       -4.877411   1.000000
   36       -4.796074   1.000000
   37       -4.720811   1.000000
   38       -4.638155   1.000000
   39       -4.497006   1.000000
   40       -4.282719   1.000000
   41       -4.212229   1.000000
   42       -4.157094   1.000000
   43       -4.080961   1.000000
   44       -3.925784   1.000000
   45       -3.874164   1.000000
   46       -3.843025   1.000000
   47       -3.781635   1.000000
   48       -3.723242   1.000000
   49       -3.655872   1.000000
   50       -3.524077   1.000000
   51       -3.490197   1.000000
   52       -3.465772   1.000000
   53       -3.437910   1.000000
   54       -3.269501   1.000000
   55       -3.165189   1.000000
   56       -3.145062   1.000000
   57       -3.109590   1.000000
   58       -3.050940   1.000000
   59       -3.005094   1.000000
   60       -2.984824   1.000000
   61       -2.880187   1.000000
   62       -2.709345   1.000000
   63       -2.667793   1.000000
   64       -2.651764   1.000000
   65       -2.537676   1.000000
   66       -2.525411   1.000000
   67       -2.433093   1.000000
   68       -2.413797   1.000000
   69       -2.269569   1.000000
   70       -2.239226   1.000000
   71       -2.053474   1.000000
   72       -1.971130   1.000000
   73       -1.937157   1.000000
   74       -1.883307   1.000000
   75       -1.502661   1.000000
   76       -1.438883   1.000000
   77       -1.359294   1.000000
   78       -1.277096   1.000000
   79       -1.188930   1.000000
   80       -0.960910   1.000000
   81       -0.852610   1.000000
   82       -0.544357   1.000000
   83       -0.507116   1.000000
   84       -0.377913   1.000000
   85       -0.297914   1.000000
   86       -0.018111   1.000000
   87        0.051126   1.000000
   88        0.138515   1.000000
   89        0.374611   1.000000
   90        0.408241   1.000000
   91        0.443732   1.000001
   92        0.684950   1.033234
   93        0.929052  -0.031817
   94        0.970671  -0.027623
   95        0.993692  -0.017224
   96        1.096875  -0.000331
   97        1.207329  -0.000000
   98        1.256528  -0.000000
   99        1.301760  -0.000000
  100        1.342725  -0.000000
  101        1.353608  -0.000000
  102        1.418539  -0.000000
  103        1.536453  -0.000000
  104        1.569383  -0.000000
  105        1.594369  -0.000000
  106        1.859387  -0.000000
  107        1.929439  -0.000000
  108        1.939169  -0.000000
  109        2.015169  -0.000000
  110        2.079346  -0.000000
  111        2.099423  -0.000000
  112        2.116709  -0.000000
  113        2.182269  -0.000000
  114        2.221472  -0.000000
  115        2.245232  -0.000000
  116        2.310258  -0.000000
  117        2.345718  -0.000000
  118        2.415645  -0.000000
  119        2.452061  -0.000000
  120        2.540974  -0.000000

  0.3333333E+00  0.3672355E-15  0.1308213E-14  0.2020202E-01
    1      -12.894788   1.000000
    2      -12.285297   1.000000
    3      -11.644458   1.000000
    4      -11.185660   1.000000
    5      -10.608468   1.000000
    6      -10.500900   1.000000
    7      -10.141610   1.000000
    8      -10.123924   1.000000
    9       -9.984745   1.000000
   10       -9.788063   1.000000
   11       -9.764414   1.000000
   12       -9.699868   1.000000
   13       -9.330823   1.000000
   14       -9.314684   1.000000
   15       -8.880253   1.000000
   16       -8.774002   1.000000
   17       -8.331624   1.000000
   18       -8.260752   1.000000
   19       -7.982785   1.000000
   20       -7.808346   1.000000
   21       -7.793768   1.000000
   22       -7.576889   1.000000
   23       -7.557931   1.000000
   24       -7.317632   1.000000
   25       -7.272379   1.000000
   26       -7.200297   1.000000
   27       -6.683200   1.000000
   28       -6.497077   1.000000
   29       -6.114568   1.000000
   30       -5.698995   1.000000
   31       -5.587026   1.000000
   32       -5.395140   1.000000
   33       -5.189780   1.000000
   34       -5.027702   1.000000
   35       -4.803258   1.000000
   36       -4.773304   1.000000
   37       -4.679022   1.000000
   38       -4.566632   1.000000
   39       -4.506309   1.000000
   40       -4.274678   1.000000
   41       -4.204778   1.000000
   42       -4.084226   1.000000
   43       -4.032380   1.000000
   44       -4.013941   1.000000
   45       -3.989052   1.000000
   46       -3.763127   1.000000
   47       -3.735696   1.000000
   48       -3.665303   1.000000
   49       -3.575736   1.000000
   50       -3.491376   1.000000
   51       -3.456620   1.000000
   52       -3.424203   1.000000
   53       -3.385160   1.000000
   54       -3.289831   1.000000
   55       -3.229502   1.000000
   56       -3.161003   1.000000
   57       -3.109469   1.000000
   58       -3.049774   1.000000
   59       -3.012281   1.000000
   60       -2.920958   1.000000
   61       -2.890808   1.000000
   62       -2.715084   1.000000
   63       -2.674102   1.000000
   64       -2.656172   1.000000
   65       -2.593415   1.000000
   66       -2.570328   1.000000
   67       -2.495434   1.000000
   68       -2.395147   1.000000
   69       -2.319711   1.000000
   70       -2.283091   1.000000
   71       -2.068056   1.000000
   72       -1.938866   1.000000
   73       -1.905699   1.000000
   74       -1.817347   1.000000
   75       -1.544562   1.000000
   76       -1.511440   1.000000
   77       -1.476531   1.000000
   78       -1.285404   1.000000
   79       -1.252998   1.000000
   80       -1.034176   1.000000
   81       -0.730530   1.000000
   82       -0.631462   1.000000
   83       -0.581404   1.000000
   84       -0.348113   1.000000
   85       -0.147823   1.000000
   86        0.042543   1.000000
   87        0.113020   1.000000
   88        0.232614   1.000000
   89        0.296431   1.000000
   90        0.344851   1.000000
   91        0.537146   1.000228
   92        0.626492   1.009624
   93        0.892427   0.033932
   94        0.971987  -0.027032
   95        1.001369  -0.014140
   96        1.147666  -0.000019
   97        1.175644  -0.000003
   98        1.218471  -0.000000
   99        1.248375  -0.000000
  100        1.342930  -0.000000
  101        1.417491  -0.000000
  102        1.494620  -0.000000
  103        1.609992  -0.000000
  104        1.660551  -0.000000
  105        1.683371  -0.000000
  106        1.808803  -0.000000
  107        1.984808  -0.000000
  108        2.019066  -0.000000
  109        2.051038  -0.000000
  110        2.102619  -0.000000
  111        2.123754  -0.000000
  112        2.158494  -0.000000
  113        2.201437  -0.000000
  114        2.248572  -0.000000
  115        2.261338  -0.000000
  116        2.341044  -0.000000
  117        2.367018  -0.000000
  118        2.392121  -0.000000
  119        2.425643  -0.000000
  120        2.486725  -0.000000

  0.4444444E+00  0.3795814E-15  0.1235432E-14  0.2020202E-01
    1      -12.728027   1.000000
    2      -12.521651   1.000000
    3      -11.505756   1.000000
    4      -11.335765   1.000000
    5      -10.571018   1.000000
    6      -10.480630   1.000000
    7      -10.133307   1.000000
    8      -10.129266   1.000000
    9       -9.920466   1.000000
   10       -9.820342   1.000000
   11       -9.752185   1.000000
   12       -9.739587   1.000000
   13       -9.323347   1.000000
   14       -9.316380   1.000000
   15       -8.843877   1.000000
   16       -8.704662   1.000000
   17       -8.320178   1.000000
   18       -8.224616   1.000000
   19       -7.953563   1.000000
   20       -7.913868   1.000000
   21       -7.843638   1.000000
   22       -7.549743   1.000000
   23       -7.535816   1.000000
   24       -7.480026   1.000000
   25       -7.311237   1.000000
   26       -7.282806   1.000000
   27       -6.515834   1.000000
   28       -6.319744   1.000000
   29       -6.199021   1.000000
   30       -5.923870   1.000000
   31       -5.693703   1.000000
   32       -5.400467   1.000000
   33       -5.154185   1.000000
   34       -4.834999   1.000000
   35       -4.735083   1.000000
   36       -4.683064   1.000000
   37       -4.627486   1.000000
   38       -4.515380   1.000000
   39       -4.479362   1.000000
   40       -4.353418   1.000000
   41       -4.328341   1.000000
   42       -4.104843   1.000000
   43       -4.086998   1.000000
   44       -3.976903   1.000000
   45       -3.923775   1.000000
   46       -3.722702   1.000000
   47       -3.656143   1.000000
   48       -3.638770   1.000000
   49       -3.588556   1.000000
   50       -3.527018   1.000000
   51       -3.421491   1.000000
   52       -3.399334   1.000000
   53       -3.361137   1.000000
   54       -3.296292   1.000000
   55       -3.253444   1.000000
   56       -3.191784   1.000000
   57       -3.083497   1.000000
   58       -3.031104   1.000000
   59       -2.968578   1.000000
   60       -2.895890   1.000000
   61       -2.819074   1.000000
   62       -2.774168   1.000000
   63       -2.705281   1.000000
   64       -2.685181   1.000000
   65       -2.640194   1.000000
   66       -2.584816   1.000000
   67       -2.561349   1.000000
   68       -2.361722   1.000000
   69       -2.321109   1.000000
   70       -2.265459   1.000000
   71       -2.179817   1.000000
   72       -1.937942   1.000000
   73       -1.857968   1.000000
   74       -1.734529   1.000000
   75       -1.582179   1.000000
   76       -1.548869   1.000000
   77       -1.527401   1.000000
   78       -1.341874   1.000000
   79       -1.221840   1.000000
   80       -1.145747   1.000000
   81       -0.712732   1.000000
   82       -0.647808   1.000000
   83       -0.588241   1.000000
   84       -0.372410   1.000000
   85       -0.004929   1.000000
   86        0.071714   1.000000
   87        0.161322   1.000000
   88        0.219403   1.000000
   89        0.293568   1.000000
   90        0.403861   1.000000
   91        0.456241   1.000002
   92        0.725750   1.018933
   93        0.859808   0.194824
   94        0.903064   0.003929
   95        1.007768  -0.011835
   96        1.081815  -0.000692
   97        1.139678  -0.000031
   98        1.180872  -0.000002
   99        1.335911  -0.000000
  100        1.411482  -0.000000
  101        1.443553  -0.000000
  102        1.481207  -0.000000
  103        1.620982  -0.000000
  104        1.656269  -0.000000
  105        1.805862  -0.000000
  106        1.912264  -0.000000
  107        1.952418  -0.000000
  108        2.075526  -0.000000
  109        2.097310  -0.000000
  110        2.135170  -0.000000
  111        2.172917  -0.000000
  112        2.198555  -0.000000
  113        2.218603  -0.000000
  114        2.267988  -0.000000
  115        2.299457  -0.000000
  116        2.313975  -0.000000
  117        2.336564  -0.000000
  118        2.354893  -0.000000
  119        2.401023  -0.000000
  120        2.436556  -0.000000

  0.3742002E-15  0.9090909E-01  0.1339361E-14  0.2020202E-01
    1      -13.084647   1.000000
    2      -11.811692   1.000000
    3      -11.663839   1.000000
    4      -11.213756   1.000000
    5      -10.672994   1.000000
    6      -10.415624   1.000000
    7      -10.380516   1.000000
    8      -10.339946   1.000000
    9      -10.100448   1.000000
   10       -9.770048   1.000000
   11       -9.694730   1.000000
   12       -9.623141   1.000000
   13       -9.329977   1.000000
   14       -9.303716   1.000000
   15       -8.965918   1.000000
   16       -8.892243   1.000000
   17       -8.367672   1.000000
   18       -8.278666   1.000000
   19       -8.040813   1.000000
   20       -7.783733   1.000000
   21       -7.747668   1.000000
   22       -7.339537   1.000000
   23       -7.286124   1.000000
   24       -7.131078   1.000000
   25       -7.000277   1.000000
   26       -6.965471   1.000000
   27       -6.714041   1.000000
   28       -6.489470   1.000000
   29       -6.114471   1.000000
   30       -5.764183   1.000000
   31       -5.576137   1.000000
   32       -5.448414   1.000000
   33       -5.275218   1.000000
   34       -5.068215   1.000000
   35       -4.922355   1.000000
   36       -4.787175   1.000000
   37       -4.672469   1.000000
   38       -4.557341   1.000000
   39       -4.435363   1.000000
   40       -4.382166   1.000000
   41       -4.345893   1.000000
   42       -4.203800   1.000000
   43       -4.135368   1.000000
   44       -4.029373   1.000000
   45       -3.976712   1.000000
   46       -3.904667   1.000000
   47       -3.881294   1.000000
   48       -3.834174   1.000000
   49       -3.747392   1.000000
   50       -3.607945   1.000000
   51       -3.580013   1.000000
   52       -3.505353   1.000000
   53       -3.483285   1.000000
   54       -3.304187   1.000000
   55       -3.253238   1.000000
   56       -3.179549   1.000000
   57       -3.103169   1.000000
   58       -3.064045   1.000000
   59       -2.930298   1.000000
   60       -2.896331   1.000000
   61       -2.848884   1.000000
   62       -2.751552   1.000000
   63       -2.634276   1.000000
   64       -2.619189   1.000000
   65       -2.514674   1.000000
   66       -2.442402   1.000000
   67       -2.384545   1.000000
   68       -2.351810   1.000000
   69       -2.268866   1.000000
   70       -2.154098   1.000000
   71       -2.116337   1.000000
   72       -2.057105   1.000000
   73       -2.023364   1.000000
   74       -1.823883   1.000000
   75       -1.437891   1.000000
   76       -1.331400   1.000000
   77       -1.239497   1.000000
   78       -1.217282   1.000000
   79       -1.081879   1.000000
   80       -1.058411   1.000000
   81       -0.802221   1.000000
   82       -0.607902   1.000000
   83       -0.480899   1.000000
   84       -0.421425   1.000000
   85       -0.260728   1.000000
   86       -0.084695   1.000000
   87        0.009934   1.000000
   88        0.038420   1.000000
   89        0.103031   1.000000
   90        0.420546   1.000000
   91        0.586611   1.002297
   92        0.768608   0.880879
   93        0.791827   0.732728
   94        0.838743   0.349281
   95        0.924209  -0.028473
   96        1.013193  -0.010083
   97        1.076228  -0.000897
   98        1.231180  -0.000000
   99        1.252506  -0.000000
  100        1.368869  -0.000000
  101        1.384503  -0.000000
  102        1.531121  -0.000000
  103        1.562426  -0.000000
  104        1.583106  -0.000000
  105        1.649012  -0.000000
  106        1.722701  -0.000000
  107        1.852664  -0.000000
  108        1.942664  -0.000000
  109        2.008867  -0.000000
  110        2.049913  -0.000000
  111        2.076473  -0.000000
  112        2.118393  -0.000000
  113        2.160000  -0.000000
  114        2.187140  -0.000000
  115        2.233642  -0.000000
  116        2.333006  -0.000000
  117        2.361022  -0.000000
  118        2.398999  -0.000000
  119        2.471737  -0.000000
  120        2.547260  -0.000000

  0.1111111E+00  0.9090909E-01  0.1250028E-14  0.2020202E-01
    1      -13.039106   1.000000
    2      -11.863574   1.000000
    3      -11.769740   1.000000
    4      -11.111732   1.000000
    5      -10.653872   1.000000
    6      -10.468613   1.000000
    7      -10.445824   1.000000
    8      -10.278860   1.000000
    9      -10.055253   1.000000
   10       -9.764042   1.000000
   11       -9.666804   1.000000
   12       -9.617068   1.000000
   13       -9.360755   1.000000
   14       -9.326753   1.000000
   15       -8.931097   1.000000
   16       -8.847450   1.000000
   17       -8.344796   1.000000
   18       -8.283562   1.000000
   19       -8.049831   1.000000
   20       -7.832050   1.000000
   21       -7.744273   1.000000
   22       -7.416811   1.000000
   23       -7.340543   1.000000
   24       -7.061517   1.000000
   25       -7.002834   1.000000
   26       -6.954917   1.000000
   27       -6.840343   1.000000
   28       -6.523115   1.000000
   29       -6.053978   1.000000
   30       -5.774973   1.000000
   31       -5.462899   1.000000
   32       -5.390879   1.000000
   33       -5.250722   1.000000
   34       -5.138570   1.000000
   35       -4.941027   1.000000
   36       -4.785397   1.000000
   37       -4.687603   1.000000
   38       -4.594828   1.000000
   39       -4.509049   1.000000
   40       -4.329577   1.000000
   41       -4.305933   1.000000
   42       -4.212871   1.000000
   43       -4.097812   1.000000
   44       -3.984683   1.000000
   45       -3.944679   1.000000
   46       -3.887701   1.000000
   47       -3.803545   1.000000
   48       -3.788762   1.000000
   49       -3.730080   1.000000
   50       -3.594727   1.000000
   51       -3.539640   1.000000
   52       -3.499796   1.000000
   53       -3.475468   1.000000
   54       -3.316625   1.000000
   55       -3.233563   1.000000
   56       -3.181944   1.000000
   57       -3.114713   1.000000
   58       -3.025369   1.000000
   59       -2.959238   1.000000
   60       -2.943552   1.000000
   61       -2.819222   1.000000
   62       -2.748604   1.000000
   63       -2.671501   1.000000
   64       -2.649150   1.000000
   65       -2.564482   1.000000
   66       -2.478164   1.000000
   67       -2.402745   1.000000
   68       -2.397451   1.000000
   69       -2.227817   1.000000
   70       -2.157821   1.000000
   71       -2.099401   1.000000
   72       -2.029449   1.000000
   73       -2.000522   1.000000
   74       -1.882158   1.000000
   75       -1.469269   1.000000
   76       -1.405164   1.000000
   77       -1.291049   1.000000
   78       -1.269854   1.000000
   79       -1.063309   1.000000
   80       -0.979258   1.000000
   81       -0.877985   1.000000
   82       -0.573487   1.000000
   83       -0.499368   1.000000
   84       -0.415251   1.000000
   85       -0.256655   1.000000
   86       -0.126820   1.000000
   87        0.070312   1.000000
   88        0.129017   1.000000
   89        0.194617   1.000000
   90        0.371650   1.000000
   91        0.559192   1.000685
   92        0.709649   1.033080
   93        0.812646   0.567137
   94        0.934965  -0.034327
   95        0.971189  -0.027391
   96        1.034609  -0.004955
   97        1.067235  -0.001344
   98        1.180091  -0.000002
   99        1.205871  -0.000000
  100        1.411921  -0.000000
  101        1.469395  -0.000000
  102        1.500244  -0.000000
  103        1.575042  -0.000000
  104        1.603619  -0.000000
  105        1.617745  -0.000000
  106        1.727773  -0.000000
  107        1.927952  -0.000000
  108        1.985243  -0.000000
  109        2.003285  -0.000000
  110        2.027939  -0.000000
  111        2.094488  -0.000000
  112        2.111675  -0.000000
  113        2.177730  -0.000000
  114        2.231675  -0.000000
  115        2.246256  -0.000000
  116        2.314542  -0.000000
  117        2.354905  -0.000000
  118        2.389668  -0.000000
  119        2.456643  -0.000000
  120        2.517863  -0.000000

  0.2222222E+00  0.9090909E-01  0.1327369E-14  0.2020202E-01
    1      -12.944735   1.000000
    2      -12.113185   1.000000
    3      -11.687933   1.000000
    4      -11.105025   1.000000
    5      -10.617865   1.000000
    6      -10.507276   1.000000
    7      -10.485299   1.000000
    8      -10.221561   1.000000
    9       -9.993678   1.000000
   10       -9.732455   1.000000
   11       -9.658667   1.000000
   12       -9.605046   1.000000
   13       -9.418187   1.000000
   14       -9.361879   1.000000
   15       -8.866617   1.000000
   16       -8.763663   1.000000
   17       -8.319978   1.000000
   18       -8.269717   1.000000
   19       -8.064553   1.000000
   20       -7.865054   1.000000
   21       -7.760429   1.000000
   22       -7.562431   1.000000
   23       -7.417868   1.000000
   24       -7.124144   1.000000
   25       -7.023677   1.000000
   26       -6.960013   1.000000
   27       -6.786990   1.000000
   28       -6.526293   1.000000
   29       -6.058173   1.000000
   30       -5.793133   1.000000
   31       -5.410085   1.000000
   32       -5.357017   1.000000
   33       -5.237006   1.000000
   34       -5.138510   1.000000
   35       -4.921663   1.000000
   36       -4.823794   1.000000
   37       -4.683776   1.000000
   38       -4.572649   1.000000
   39       -4.503177   1.000000
   40       -4.309304   1.000000
   41       -4.247090   1.000000
   42       -4.140993   1.000000
   43       -4.110014   1.000000
   44       -3.984246   1.000000
   45       -3.932947   1.000000
   46       -3.832654   1.000000
   47       -3.776811   1.000000
   48       -3.742904   1.000000