   72   72    1    1
  0.2145201E+02  0.1036705E-08  0.2428040E-08  0.6136055E-09  0.5000000E-15
   1.0000000000000000E-004
  CAR 
 Name                                    
    276     30    176

  0.3742002E-15  0.3742002E-15  0.3742002E-15  0.7407407E-02
    1      -14.128031   1.000000
    2      -12.944242   1.000000
    3      -12.942285   1.000000
    4      -12.886100   1.000000
    5      -12.008591   1.000000
    6      -11.766076   1.000000
    7      -11.765166   1.000000
    8      -11.582791   1.000000
    9      -11.581873   1.000000
   10      -11.375647   1.000000
   11      -11.276032   1.000000
   12      -11.084138   1.000000
   13      -11.082669   1.000000
   14      -10.591607   1.000000
   15      -10.527264   1.000000
   16      -10.261129   1.000000
   17      -10.260120   1.000000
   18      -10.170693   1.000000
   19       -9.709363   1.000000
   20       -9.632921   1.000000
   21       -9.631612   1.000000
   22       -9.617188   1.000000
   23       -9.429781   1.000000
   24       -9.359284   1.000000
   25       -8.937839   1.000000
   26       -8.906515   1.000000
   27       -8.528087   1.000000
   28       -8.526721   1.000000
   29       -8.239679   1.000000
   30       -8.231394   1.000000
   31       -8.212987   1.000000
   32       -7.847355   1.000000
   33       -7.817520   1.000000
   34       -7.300520   1.000000
   35       -7.299391   1.000000
   36       -7.099519   1.000000
   37       -7.064948   1.000000
   38       -6.863036   1.000000
   39       -6.861979   1.000000
   40       -6.791570   1.000000
   41       -6.790304   1.000000
   42       -6.764238   1.000000
   43       -6.518418   1.000000
   44       -6.496969   1.000000
   45       -6.349453   1.000000
   46       -6.348853   1.000000
   47       -6.216127   1.000000
   48       -6.215017   1.000000
   49       -6.189978   1.000000
   50       -5.883812   1.000000
   51       -5.883341   1.000000
   52       -5.737266   1.000000
   53       -5.719062   1.000000
   54       -5.718446   1.000000
   55       -5.563065   1.000000
   56       -5.561963   1.000000
   57       -5.471514   1.000000
   58       -5.291812   1.000000
   59       -5.274779   1.000000
   60       -5.256716   1.000000
   61       -4.790965   1.000000
   62       -4.790213   1.000000
   63       -4.783267   1.000000
   64       -4.724644   1.000000
   65       -4.626505   1.000000
   66       -4.625316   1.000000
   67       -4.510398   1.000000
   68       -4.224744   1.000000
   69       -4.131054   1.000000
   70       -4.129551   1.000000
   71       -4.129035   1.000000
   72       -4.128488   1.000000
   73       -4.032700   1.000000
   74       -4.028783   1.000000
   75       -3.989528   1.000000
   76       -3.989082   1.000000
   77       -3.874073   1.000000
   78       -3.868913   1.000000
   79       -3.673925   1.000000
   80       -3.673528   1.000000
   81       -3.663945   1.000000
   82       -3.652029   1.000000
   83       -3.644987   1.000000
   84       -3.586479   1.000000
   85       -3.585471   1.000000
   86       -3.583710   1.000000
   87       -3.582622   1.000000
   88       -3.534185   1.000000
   89       -3.494214   1.000000
   90       -3.492977   1.000000
   91       -3.333812   1.000000
   92       -3.014725   1.000000
   93       -3.013890   1.000000
   94       -3.000165   1.000000
   95       -2.927686   1.000000
   96       -2.811629   1.000000
   97       -2.811118   1.000000
   98       -2.659965   1.000000
   99       -2.509158   1.000000
  100       -2.384602   1.000000
  101       -2.384120   1.000000
  102       -2.346890   1.000000
  103       -2.345548   1.000000
  104       -2.239565   1.000000
  105       -2.118560   1.000000
  106       -2.118296   1.000000
  107       -2.079216   1.000000
  108       -2.022272   1.000000
  109       -2.012924   1.000000
  110       -1.964712   1.000000
  111       -1.879095   1.000000
  112       -1.878277   1.000000
  113       -1.689295   1.000000
  114       -1.677698   1.000000
  115       -1.672630   1.000000
  116       -1.672160   1.000000
  117       -1.641740   1.000000
  118       -1.586828   1.000000
  119       -1.499898   1.000000
  120       -1.423600   1.000000
  121       -1.118697   1.000000
  122       -0.916531   1.000000
  123       -0.916304   1.000000
  124       -0.869723   1.000000
  125       -0.690655   1.000000
  126       -0.530535   1.000000
  127       -0.529849   1.000000
  128       -0.495934   1.000000
  129       -0.396779   1.000000
  130       -0.383840   1.000000
  131       -0.139670   1.000000
  132       -0.139170   1.000000
  133        0.023905   1.001996
  134        0.188245   0.970086
  135        0.207598   0.889748
  136        0.207660   0.889428
  137        0.298361   0.208967
  138        0.374468  -0.033948
  139        0.387544  -0.035250
  140        0.387768  -0.035225
  141        0.477258  -0.004616
  142        0.525206  -0.000608
  143        0.529719  -0.000489
  144        0.530124  -0.000479
  145        0.556040  -0.000125
  146        0.592782  -0.000014
  147        0.623934  -0.000002
  148        0.767243  -0.000000
  149        0.782939  -0.000000
  150        0.784795  -0.000000
  151        1.006063  -0.000000
  152        1.006539  -0.000000
  153        1.041429  -0.000000
  154        1.111398  -0.000000
  155        1.112204  -0.000000
  156        1.175686  -0.000000
  157        1.193296  -0.000000
  158        1.279075  -0.000000
  159        1.293070  -0.000000
  160        1.295988  -0.000000
  161        1.329905  -0.000000
  162        1.331037  -0.000000
  163        1.349547  -0.000000
  164        1.356968  -0.000000
  165        1.502385  -0.000000
  166        1.568032  -0.000000
  167        1.584935  -0.000000
  168        1.635061  -0.000000
  169        1.665952  -0.000000
  170        1.681237  -0.000000
  171        1.699731  -0.000000
  172        2.283558  -0.000000
  173        2.305463  -0.000000
  174        2.337855  -0.000000
  175        2.366859  -0.000000
  176        2.654845  -0.000000

  0.2000000E+00  0.3742002E-15  0.3742002E-15  0.1481481E-01
    1      -14.078683   1.000000
    2      -13.358297   1.000000
    3      -12.839830   1.000000
    4      -12.452870   1.000000
    5      -12.160234   1.000000
    6      -11.992271   1.000000
    7      -11.738951   1.000000
    8      -11.394798   1.000000
    9      -11.365870   1.000000
   10      -11.296917   1.000000
   11      -11.234449   1.000000
   12      -11.180835   1.000000
   13      -10.955725   1.000000
   14      -10.687017   1.000000
   15      -10.649895   1.000000
   16      -10.619628   1.000000
   17      -10.566748   1.000000
   18       -9.832876   1.000000
   19       -9.677232   1.000000
   20       -9.636771   1.000000
   21       -9.557264   1.000000
   22       -9.551077   1.000000
   23       -9.446354   1.000000
   24       -9.399370   1.000000
   25       -9.101073   1.000000
   26       -8.847802   1.000000
   27       -8.345435   1.000000
   28       -8.244874   1.000000
   29       -8.214159   1.000000
   30       -8.158552   1.000000
   31       -8.144852   1.000000
   32       -8.114667   1.000000
   33       -7.658224   1.000000
   34       -7.532791   1.000000
   35       -7.314367   1.000000
   36       -7.295930   1.000000
   37       -7.125263   1.000000
   38       -6.974080   1.000000
   39       -6.970830   1.000000
   40       -6.741549   1.000000
   41       -6.722522   1.000000
   42       -6.676119   1.000000
   43       -6.517025   1.000000
   44       -6.510389   1.000000
   45       -6.396450   1.000000
   46       -6.387898   1.000000
   47       -6.269424   1.000000
   48       -6.156497   1.000000
   49       -6.101065   1.000000
   50       -6.083550   1.000000
   51       -5.770644   1.000000
   52       -5.748558   1.000000
   53       -5.653057   1.000000
   54       -5.444964   1.000000
   55       -5.434691   1.000000
   56       -5.389162   1.000000
   57       -5.351199   1.000000
   58       -5.338162   1.000000
   59       -5.306084   1.000000
   60       -5.271646   1.000000
   61       -5.098904   1.000000
   62       -4.898313   1.000000
   63       -4.788927   1.000000
   64       -4.692006   1.000000
   65       -4.643951   1.000000
   66       -4.575998   1.000000
   67       -4.567051   1.000000
   68       -4.199623   1.000000
   69       -4.192510   1.000000
   70       -4.187791   1.000000
   71       -4.138514   1.000000
   72       -4.125358   1.000000
   73       -4.087642   1.000000
   74       -3.962381   1.000000
   75       -3.944802   1.000000
   76       -3.922484   1.000000
   77       -3.815130   1.000000
   78       -3.799501   1.000000
   79       -3.766525   1.000000
   80       -3.743331   1.000000
   81       -3.707759   1.000000
   82       -3.683184   1.000000
   83       -3.662609   1.000000
   84       -3.642778   1.000000
   85       -3.580861   1.000000
   86       -3.538546   1.000000
   87       -3.538526   1.000000
   88       -3.524897   1.000000
   89       -3.509606   1.000000
   90       -3.394172   1.000000
   91       -3.367298   1.000000
   92       -3.099026   1.000000
   93       -3.036833   1.000000
   94       -3.013445   1.000000
   95       -2.874634   1.000000
   96       -2.860147   1.000000
   97       -2.769439   1.000000
   98       -2.693491   1.000000
   99       -2.565246   1.000000
  100       -2.427164   1.000000
  101       -2.403697   1.000000
  102       -2.356488   1.000000
  103       -2.293402   1.000000
  104       -2.162110   1.000000
  105       -2.074902   1.000000
  106       -2.062872   1.000000
  107       -2.047027   1.000000
  108       -1.999912   1.000000
  109       -1.989821   1.000000
  110       -1.961697   1.000000
  111       -1.953401   1.000000
  112       -1.932874   1.000000
  113       -1.696362   1.000000
  114       -1.637745   1.000000
  115       -1.605410   1.000000
  116       -1.553973   1.000000
  117       -1.509598   1.000000
  118       -1.480367   1.000000
  119       -1.436613   1.000000
  120       -1.390688   1.000000
  121       -1.098576   1.000000
  122       -0.953505   1.000000
  123       -0.946147   1.000000
  124       -0.930884   1.000000
  125       -0.798312   1.000000
  126       -0.597218   1.000000
  127       -0.552151   1.000000
  128       -0.513567   1.000000
  129       -0.481845   1.000000
  130       -0.393509   1.000000
  131       -0.292561   1.000000
  132       -0.268673   1.000000
  133       -0.169521   1.000000
  134        0.067413   1.009691
  135        0.067768   1.009797
  136        0.165737   1.019889
  137        0.266025   0.460060
  138        0.359907  -0.023621
  139        0.378980  -0.035080
  140        0.485459  -0.003395
  141        0.529461  -0.000495
  142        0.561911  -0.000090
  143        0.565301  -0.000075
  144        0.592214  -0.000015
  145        0.627388  -0.000001
  146        0.628278  -0.000001
  147        0.670382  -0.000000
  148        0.732668  -0.000000
  149        0.810592  -0.000000
  150        0.872715  -0.000000
  151        1.026282  -0.000000
  152        1.061525  -0.000000
  153        1.107114  -0.000000
  154        1.145048  -0.000000
  155        1.176251  -0.000000
  156        1.255538  -0.000000
  157        1.266342  -0.000000
  158        1.269166  -0.000000
  159        1.286103  -0.000000
  160        1.310022  -0.000000
  161        1.370295  -0.000000
  162        1.385405  -0.000000
  163        1.391806  -0.000000
  164        1.471047  -0.000000
  165        1.502338  -0.000000
  166        1.561993  -0.000000
  167        1.569127  -0.000000
  168        1.645038  -0.000000
  169        1.685021  -0.000000
  170        1.753971  -0.000000
  171        1.910983  -0.000000
  172        2.085129  -0.000000
  173        2.222828  -0.000000
  174        2.358813  -0.000000
  175        2.424419  -0.000000
  176        2.591072  -0.000000

  0.4000000E+00  0.3742002E-15  0.3742002E-15  0.1481481E-01
    1      -13.931649   1.000000
    2      -13.689911   1.000000
    3      -12.701748   1.000000
    4      -12.474033   1.000000
    5      -11.942818   1.000000
    6      -11.896794   1.000000
    7      -11.858908   1.000000
    8      -11.336639   1.000000
    9      -11.295277   1.000000
   10      -11.287987   1.000000
   11      -11.131932   1.000000
   12      -11.110196   1.000000
   13      -10.905767   1.000000
   14      -10.901122   1.000000
   15      -10.811905   1.000000
   16      -10.760906   1.000000
   17      -10.672012   1.000000
   18      -10.174383   1.000000
   19       -9.689359   1.000000
   20       -9.671551   1.000000
   21       -9.465977   1.000000
   22       -9.396022   1.000000
   23       -9.348786   1.000000
   24       -9.301165   1.000000
   25       -9.104096   1.000000
   26       -8.844568   1.000000
   27       -8.375745   1.000000
   28       -8.121132   1.000000
   29       -7.935924   1.000000
   30       -7.909467   1.000000
   31       -7.862767   1.000000
   32       -7.845766   1.000000
   33       -7.815602   1.000000
   34       -7.814617   1.000000
   35       -7.546410   1.000000
   36       -7.527983   1.000000
   37       -7.343331   1.000000
   38       -7.311546   1.000000
   39       -7.141529   1.000000
   40       -6.874247   1.000000
   41       -6.722086   1.000000
   42       -6.526405   1.000000
   43       -6.516998   1.000000
   44       -6.438035   1.000000
   45       -6.431902   1.000000
   46       -6.166572   1.000000
   47       -6.124128   1.000000
   48       -6.062830   1.000000
   49       -5.934210   1.000000
   50       -5.926532   1.000000
   51       -5.896176   1.000000
   52       -5.798432   1.000000
   53       -5.792501   1.000000
   54       -5.616893   1.000000
   55       -5.524258   1.000000
   56       -5.362221   1.000000
   57       -5.222524   1.000000
   58       -5.186537   1.000000
   59       -5.160994   1.000000
   60       -5.116734   1.000000
   61       -5.046227   1.000000
   62       -4.947806   1.000000
   63       -4.785740   1.000000
   64       -4.753980   1.000000
   65       -4.655172   1.000000
   66       -4.524819   1.000000
   67       -4.429288   1.000000
   68       -4.412772   1.000000
   69       -4.323099   1.000000
   70       -4.229613   1.000000
   71       -4.198188   1.000000
   72       -4.126245   1.000000
   73       -4.096668   1.000000
   74       -4.082916   1.000000
   75       -4.036479   1.000000
   76       -4.006039   1.000000
   77       -3.900511   1.000000
   78       -3.792232   1.000000
   79       -3.776187   1.000000
   80       -3.759755   1.000000
   81       -3.757420   1.000000
   82       -3.701981   1.000000
   83       -3.657034   1.000000
   84       -3.552867   1.000000
   85       -3.547119   1.000000
   86       -3.518718   1.000000
   87       -3.387283   1.000000
   88       -3.367106   1.000000
   89       -3.361691   1.000000
   90       -3.319017   1.000000
   91       -3.271774   1.000000
   92       -3.212631   1.000000
   93       -3.139359   1.000000
   94       -3.099174   1.000000
   95       -3.013616   1.000000
   96       -2.894482   1.000000
   97       -2.889512   1.000000
   98       -2.721666   1.000000
   99       -2.568951   1.000000
  100       -2.403298   1.000000
  101       -2.318502   1.000000
  102       -2.261704   1.000000
  103       -2.247476   1.000000
  104       -2.239116   1.000000
  105       -2.147089   1.000000
  106       -2.091442   1.000000
  107       -2.047291   1.000000
  108       -2.044842   1.000000
  109       -2.044368   1.000000
  110       -2.038281   1.000000
  111       -1.719960   1.000000
  112       -1.662785   1.000000
  113       -1.616005   1.000000
  114       -1.578569   1.000000
  115       -1.479235   1.000000
  116       -1.425466   1.000000
  117       -1.387057   1.000000
  118       -1.272522   1.000000
  119       -1.228488   1.000000
  120       -1.169719   1.000000
  121       -1.125196   1.000000
  122       -1.079119   1.000000
  123       -1.044242   1.000000
  124       -1.013652   1.000000
  125       -1.013083   1.000000
  126       -0.776423   1.000000
  127       -0.755105   1.000000
  128       -0.644093   1.000000
  129       -0.638354   1.000000
  130       -0.637977   1.000000
  131       -0.420584   1.000000
  132       -0.383921   1.000000
  133       -0.163891   1.000000
  134       -0.130811   1.000000
  135        0.000050   1.000690
  136        0.239720   0.677989
  137        0.247534   0.615281
  138        0.266348   0.457341
  139        0.409158  -0.028595
  140        0.474984  -0.005012
  141        0.494741  -0.002350
  142        0.494833  -0.002341
  143        0.553306  -0.000145
  144        0.580442  -0.000031
  145        0.621816  -0.000002
  146        0.636160  -0.000001
  147        0.764149  -0.000000
  148        0.908829  -0.000000
  149        0.916467  -0.000000
  150        0.964742  -0.000000
  151        1.106857  -0.000000
  152        1.128086  -0.000000
  153        1.177041  -0.000000
  154        1.197232  -0.000000
  155        1.203838  -0.000000
  156        1.286553  -0.000000
  157        1.342848  -0.000000
  158        1.379868  -0.000000
  159        1.391380  -0.000000
  160        1.406649  -0.000000
  161        1.415275  -0.000000
  162        1.428580  -0.000000
  163        1.459280  -0.000000
  164        1.540303  -0.000000
  165        1.555169  -0.000000
  166        1.562262  -0.000000
  167        1.641607  -0.000000
  168        1.673922  -0.000000
  169        1.687526  -0.000000
  170        1.749228  -0.000000
  171        1.769428  -0.000000
  172        1.824765  -0.000000
  173        1.877739  -0.000000
  174        2.069169  -0.000000
  175        2.693988  -0.000000
  176        2.997988   0.000000

  0.3742002E-15  0.3333333E+00  0.3742002E-15  0.1481481E-01
    1      -14.128031   1.000000
    2      -12.944242   1.000000
    3      -12.942285   1.000000
    4      -12.886099   1.000000
    5      -12.008589   1.000000
    6      -11.766076   1.000000
    7      -11.765166   1.000000
    8      -11.582790   1.000000
    9      -11.581872   1.000000
   10      -11.375646   1.000000
   11      -11.276030   1.000000
   12      -11.084138   1.000000
   13      -11.082669   1.000000
   14      -10.591605   1.000000
   15      -10.527262   1.000000
   16      -10.261127   1.000000
   17      -10.260119   1.000000
   18      -10.170691   1.000000
   19       -9.709359   1.000000
   20       -9.632920   1.000000
   21       -9.631611   1.000000
   22       -9.617194   1.000000
   23       -9.429780   1.000000
   24       -9.359280   1.000000
   25       -8.937838   1.000000
   26       -8.906508   1.000000
   27       -8.528084   1.000000
   28       -8.526719   1.000000
   29       -8.239690   1.000000
   30       -8.231390   1.000000
   31       -8.212992   1.000000
   32       -7.847344   1.000000
   33       -7.817511   1.000000
   34       -7.300519   1.000000
   35       -7.299389   1.000000
   36       -7.099514   1.000000
   37       -7.064946   1.000000
   38       -6.863036   1.000000
   39       -6.861979   1.000000
   40       -6.791568   1.000000
   41       -6.790302   1.000000
   42       -6.764236   1.000000
   43       -6.518414   1.000000
   44       -6.496956   1.000000
   45       -6.349449   1.000000
   46       -6.348848   1.000000
   47       -6.216133   1.000000
   48       -6.215023   1.000000
   49       -6.189979   1.000000
   50       -5.883807   1.000000
   51       -5.883336   1.000000
   52       -5.737267   1.000000
   53       -5.719061   1.000000
   54       -5.718446   1.000000
   55       -5.563064   1.000000
   56       -5.561963   1.000000
   57       -5.471509   1.000000
   58       -5.291813   1.000000
   59       -5.274777   1.000000
   60       -5.256696   1.000000
   61       -4.790968   1.000000
   62       -4.790216   1.000000
   63       -4.783258   1.000000
   64       -4.724642   1.000000
   65       -4.626511   1.000000
   66       -4.625322   1.000000
   67       -4.510385   1.000000
   68       -4.224741   1.000000
   69       -4.131053   1.000000
   70       -4.129551   1.000000
   71       -4.129031   1.000000
   72       -4.128484   1.000000
   73       -4.032698   1.000000
   74       -4.028780   1.000000
   75       -3.989522   1.000000
   76       -3.989077   1.000000
   77       -3.874070   1.000000
   78       -3.868906   1.000000
   79       -3.673923   1.000000
   80       -3.673525   1.000000
   81       -3.663939   1.000000
   82       -3.652016   1.000000
   83       -3.644980   1.000000
   84       -3.586481   1.000000
   85       -3.585472   1.000000
   86       -3.583708   1.000000
   87       -3.582619   1.000000
   88       -3.534181   1.000000
   89       -3.494215   1.000000
   90       -3.492978   1.000000
   91       -3.333808   1.000000
   92       -3.014728   1.000000
   93       -3.013892   1.000000
   94       -3.000158   1.000000
   95       -2.927686   1.000000
   96       -2.811628   1.000000
   97       -2.811117   1.000000
   98       -2.659960   1.000000
   99       -2.509155   1.000000
  100       -2.384604   1.000000
  101       -2.384122   1.000000
  102       -2.346889   1.000000
  103       -2.345547   1.000000
  104       -2.239550   1.000000
  105       -2.118563   1.000000
  106       -2.118299   1.000000
  107       -2.079213   1.000000
  108       -2.022268   1.000000
  109       -2.012908   1.000000
  110       -1.964714   1.000000
  111       -1.879093   1.000000
  112       -1.878275   1.000000
  113       -1.689292   1.000000
  114       -1.677692   1.000000
  115       -1.672629   1.000000
  116       -1.672159   1.000000
  117       -1.641733   1.000000
  118       -1.586823   1.000000
  119       -1.499895   1.000000
  120       -1.423598   1.000000
  121       -1.118688   1.000000
  122       -0.916537   1.000000
  123       -0.916311   1.000000
  124       -0.869721   1.000000
  125       -0.690652   1.000000
  126       -0.530538   1.000000
  127       -0.529852   1.000000
  128       -0.495931   1.000000
  129       -0.396775   1.000000
  130       -0.383830   1.000000
  131       -0.139673   1.000000
  132       -0.139172   1.000000
  133        0.023910   1.001997
  134        0.188248   0.970078
  135        0.207596   0.889757
  136        0.207659   0.889436
  137        0.298366   0.208934
  138        0.374468  -0.033948
  139        0.387544  -0.035250
  140        0.387767  -0.035225
  141        0.477267  -0.004615
  142        0.525215  -0.000608
  143        0.529719  -0.000489
  144        0.530124  -0.000479
  145        0.556041  -0.000125
  146        0.592783  -0.000014
  147        0.623959  -0.000002
  148        0.767250  -0.000000
  149        0.782936  -0.000000
  150        0.784792  -0.000000
  151        1.006059  -0.000000
  152        1.006538  -0.000000
  153        1.041435  -0.000000
  154        1.111430  -0.000000
  155        1.112309  -0.000000
  156        1.175687  -0.000000
  157        1.193448  -0.000000
  158        1.280236  -0.000000
  159        1.295857  -0.000000
  160        1.296579  -0.000000
  161        1.330738  -0.000000
  162        1.331382  -0.000000
  163        1.351251  -0.000000
  164        1.396537  -0.000000
  165        1.540478  -0.000000
  166        1.593822  -0.000000
  167        1.615742  -0.000000
  168        1.624826  -0.000000
  169        1.679680  -0.000000
  170        1.699724  -0.000000
  171        2.281187  -0.000000
  172        2.326083  -0.000000
  173        2.344427  -0.000000
  174        2.418345  -0.000000
  175        2.611242  -0.000000
  176        3.116135   0.000000

  0.2000000E+00  0.3333333E+00  0.3742002E-15  0.2962963E-01
    1      -14.078684   1.000000
    2      -13.358297   1.000000
    3      -12.839830   1.000000
    4      -12.452871   1.000000
    5      -12.160233   1.000000
    6      -11.992272   1.000000
    7      -11.738951   1.000000
    8      -11.394798   1.000000
    9      -11.365869   1.000000
   10      -11.296916   1.000000
   11      -11.234450   1.000000
   12      -11.180835   1.000000
   13      -10.955725   1.000000
   14      -10.687017   1.000000
   15      -10.649895   1.000000
   16      -10.619626   1.000000
   17      -10.566748   1.000000
   18       -9.832875   1.000000
   19       -9.677231   1.000000
   20       -9.636774   1.000000
   21       -9.557264   1.000000
   22       -9.551078   1.000000
   23       -9.446352   1.000000
   24       -9.399370   1.000000
   25       -9.101073   1.000000
   26       -8.847799   1.000000
   27       -8.345427   1.000000
   28       -8.244877   1.000000
   29       -8.214160   1.000000
   30       -8.158552   1.000000
   31       -8.144854   1.000000
   32       -8.114665   1.000000
   33       -7.658229   1.000000
   34       -7.532789   1.000000
   35       -7.314358   1.000000
   36       -7.295932   1.000000
   37       -7.125258   1.000000
   38       -6.974081   1.000000
   39       -6.970829   1.000000
   40       -6.741547   1.000000
   41       -6.722520   1.000000
   42       -6.676122   1.000000
   43       -6.517025   1.000000
   44       -6.510390   1.000000
   45       -6.396453   1.000000
   46       -6.387899   1.000000
   47       -6.269423   1.000000
   48       -6.156496   1.000000
   49       -6.101064   1.000000
   50       -6.083554   1.000000
   51       -5.770650   1.000000
   52       -5.748559   1.000000
   53       -5.653048   1.000000
   54       -5.444967   1.000000
   55       -5.434688   1.000000
   56       -5.389159   1.000000
   57       -5.351199   1.000000
   58       -5.338164   1.000000
   59       -5.306084   1.000000
   60       -5.271650   1.000000
   61       -5.098905   1.000000
   62       -4.898312   1.000000
   63       -4.788929   1.000000
   64       -4.692001   1.000000
   65       -4.643952   1.000000
   66       -4.576001   1.000000
   67       -4.567052   1.000000
   68       -4.199622   1.000000
   69       -4.192509   1.000000
   70       -4.187792   1.000000
   71       -4.138518   1.000000
   72       -4.125355   1.000000
   73       -4.087648   1.000000
   74       -3.962386   1.000000
   75       -3.944800   1.000000
   76       -3.922490   1.000000
   77       -3.815129   1.000000
   78       -3.799504   1.000000
   79       -3.766528   1.000000
   80       -3.743331   1.000000
   81       -3.707760   1.000000
   82       -3.683183   1.000000
   83       -3.662611   1.000000
   84       -3.642778   1.000000
   85       -3.580861   1.000000
   86       -3.538548   1.000000
   87       -3.538528   1.000000
   88       -3.524896   1.000000
   89       -3.509604   1.000000
   90       -3.394171   1.000000
   91       -3.367298   1.000000
   92       -3.099027   1.000000
   93       -3.036837   1.000000
   94       -3.013444   1.000000
   95       -2.874635   1.000000
   96       -2.860148   1.000000
   97       -2.769440   1.000000
   98       -2.693487   1.000000
   99       -2.565245   1.000000
  100       -2.427163   1.000000
  101       -2.403698   1.000000
  102       -2.356492   1.000000
  103       -2.293407   1.000000
  104       -2.162109   1.000000
  105       -2.074901   1.000000
  106       -2.062876   1.000000
  107       -2.047022   1.000000
  108       -1.999912   1.000000
  109       -1.989824   1.000000
  110       -1.961700   1.000000
  111       -1.953401   1.000000
  112       -1.932876   1.000000
  113       -1.696360   1.000000
  114       -1.637741   1.000000
  115       -1.605408   1.000000
  116       -1.553971   1.000000
  117       -1.509598   1.000000
  118       -1.480368   1.000000
  119       -1.436612   1.000000
  120       -1.390689   1.000000
  121       -1.098575   1.000000
  122       -0.953503   1.000000
  123       -0.946147   1.000000
  124       -0.930885   1.000000
  125       -0.798314   1.000000
  126       -0.597218   1.000000
  127       -0.552152   1.000000
  128       -0.513570   1.000000
  129       -0.481847   1.000000
  130       -0.393510   1.000000
  131       -0.292550   1.000000
  132       -0.268671   1.000000
  133       -0.169522   1.000000
  134        0.067411   1.009691
  135        0.067767   1.009797
  136        0.165737   1.019889
  137        0.266025   0.460062
  138        0.359906  -0.023619
  139        0.378979  -0.035080
  140        0.485460  -0.003394
  141        0.529463  -0.000495
  142        0.561913  -0.000090
  143        0.565302  -0.000075
  144        0.592213  -0.000015
  145        0.627389  -0.000001
  146        0.628278  -0.000001
  147        0.670382  -0.000000
  148        0.732668  -0.000000
  149        0.810598  -0.000000
  150        0.872713  -0.000000
  151        1.026230  -0.000000
  152        1.061524  -0.000000
  153        1.107083  -0.000000
  154        1.145040  -0.000000
  155        1.176213  -0.000000
  156        1.254581  -0.000000
  157        1.266302  -0.000000
  158        1.269230  -0.000000
  159        1.282170  -0.000000
  160        1.308739  -0.000000
  161        1.361487  -0.000000
  162        1.383947  -0.000000
  163        1.386458  -0.000000
  164        1.401501  -0.000000
  165        1.496933  -0.000000
  166        1.556092  -0.000000
  167        1.577506  -0.000000
  168        1.606134  -0.000000
  169        1.701908  -0.000000
  170        1.717522  -0.000000
  171        1.734903  -0.000000
  172        2.082411  -0.000000
  173        2.213964  -0.000000
  174        2.367932  -0.000000
  175        2.416682  -0.000000
  176        2.531011  -0.000000

  0.4000000E+00  0.3333333E+00  0.3742002E-15  0.2962963E-01
    1      -13.931647   1.000000
    2      -13.689913   1.000000
    3      -12.701746   1.000000
    4      -12.474034   1.000000
    5      -11.942819   1.000000
    6      -11.896793   1.000000
    7      -11.858906   1.000000
    8      -11.336639   1.000000
    9      -11.295276   1.000000
   10      -11.287986   1.000000
   11      -11.131933   1.000000