 running on   72 total cores
 distrk:  each k-point on   72 cores,    1 groups
 distr:  one band on    9 cores,    8 groups
 using from now: INCAR     
 vasp.5.4.4.18Apr17-6-g9f103f2a35 (build Dec  7 2020 12:43:57) complex           
 POSCAR found type information on POSCAR  Mo V  B 
 POSCAR found :  3 types and      72 ions
 scaLAPACK will be used

 ----------------------------------------------------------------------------- 
|                                                                             |
|  ADVICE TO THIS USER RUNNING 'VASP/VAMP'   (HEAR YOUR MASTER'S VOICE ...):  |
|                                                                             |
|      You enforced a specific xc-type in the INCAR file,                     |
|      a different type was found on the POTCAR file                          |
|          I HOPE YOU KNOW, WHAT YOU ARE  DOING                               |
|                                                                             |
 ----------------------------------------------------------------------------- 

 LDA part: xc-table for Pade appr. of Perdew
 POSCAR, INCAR and KPOINTS ok, starting setup
 resort distribution
 resort distribution
 resort distribution
 resort distribution
 resort distribution
 resort distribution
 resort distribution
 resort distribution
 resort distribution
 resort distribution
 resort distribution
 resort distribution
 resort distribution
 resort distribution
 resort distribution
 resort distribution
 resort distribution
 resort distribution
 resort distribution
 resort distribution
 resort distribution
 resort distribution
 resort distribution
 resort distribution
 resort distribution
 resort distribution
 resort distribution
 resort distribution
 resort distribution
 resort distribution
 resort distribution
 resort distribution
 resort distribution
 resort distribution
 resort distribution
 resort distribution
 resort distribution
 resort distribution
 resort distribution
 resort distribution
 resort distribution
 resort distribution
 resort distribution
 resort distribution
 resort distribution
 resort distribution
 resort distribution
 resort distribution
 resort distribution
 resort distribution
 resort distribution
 resort distribution
 resort distribution
 resort distribution
 resort distribution
 resort distribution
 resort distribution
 resort distribution
 resort distribution
 resort distribution
 resort distribution
 resort distribution
 resort distribution
 resort distribution
 resort distribution
 resort distribution
 resort distribution
 resort distribution
 resort distribution
 resort distribution
 resort distribution
 resort distribution
 FFT: planning ...
 WAVECAR not read
 augmentation electrons   276.02611492408460     
 soft         electrons   0.0000000000000000     
 augmentation electrons   276.02611492408460     
 soft         electrons   0.0000000000000000     
 augmentation electrons   276.02611492408460     
 soft         electrons   0.0000000000000000     
 augmentation electrons   276.02611492408460     
 soft         electrons   0.0000000000000000     
 augmentation electrons   276.02611492408460     
 soft         electrons   0.0000000000000000     
 augmentation electrons   276.02611492408460     
 soft         electrons   0.0000000000000000     
 augmentation electrons   276.02611492408460     
 soft         electrons   0.0000000000000000     
 augmentation electrons   276.02611492408460     
 soft         electrons   0.0000000000000000     
 augmentation electrons   276.02611492408460     
 soft         electrons   0.0000000000000000     
 augmentation electrons   276.02611492408460     
 soft         electrons   0.0000000000000000     
 augmentation electrons   276.02611492408460     
 soft         electrons   0.0000000000000000     
 augmentation electrons   276.02611492408460     
 soft         electrons   0.0000000000000000     
 augmentation electrons   276.02611492408460     
 soft         electrons   0.0000000000000000     
 augmentation electrons   276.02611492408460     
 soft         electrons   0.0000000000000000     
 augmentation electrons   276.02611492408460     
 soft         electrons   0.0000000000000000     
 augmentation electrons   276.02611492408460     
 soft         electrons   0.0000000000000000     
 augmentation electrons   276.02611492408460     
 soft         electrons   0.0000000000000000     
 augmentation electrons   276.02611492408460     
 soft         electrons   0.0000000000000000     
 augmentation electrons   276.02611492408460     
 soft         electrons   0.0000000000000000     
 augmentation electrons   276.02611492408460     
 soft         electrons   0.0000000000000000     
 augmentation electrons   276.02611492408460     
 soft         electrons   0.0000000000000000     
 augmentation electrons   276.02611492408460     
 soft         electrons   0.0000000000000000     
 augmentation electrons   276.02611492408460     
 soft         electrons   0.0000000000000000     
 augmentation electrons   276.02611492408460     
 soft         electrons   0.0000000000000000     
 augmentation electrons   276.02611492408460     
 soft         electrons   0.0000000000000000     
 augmentation electrons   276.02611492408460     
 soft         electrons   0.0000000000000000     
 augmentation electrons   276.02611492408460     
 soft         electrons   0.0000000000000000     
 augmentation electrons   276.02611492408460     
 soft         electrons   0.0000000000000000     
 augmentation electrons   276.02611492408460     
 soft         electrons   0.0000000000000000     
 augmentation electrons   276.02611492408460     
 soft         electrons   0.0000000000000000     
 augmentation electrons   276.02611492408460     
 soft         electrons   0.0000000000000000     
 augmentation electrons   276.02611492408460     
 soft         electrons   0.0000000000000000     
 augmentation electrons   276.02611492408460     
 soft         electrons   0.0000000000000000     
 augmentation electrons   276.02611492408460     
 soft         electrons   0.0000000000000000     
 augmentation electrons   276.02611492408460     
 soft         electrons   0.0000000000000000     
 augmentation electrons   276.02611492408460     
 soft         electrons   0.0000000000000000     
 augmentation electrons   276.02611492408460     
 soft         electrons   0.0000000000000000     
 augmentation electrons   276.02611492408460     
 soft         electrons   0.0000000000000000     
 augmentation electrons   276.02611492408460     
 soft         electrons   0.0000000000000000     
 augmentation electrons   276.02611492408460     
 soft         electrons   0.0000000000000000     
 augmentation electrons   276.02611492408460     
 soft         electrons   0.0000000000000000     
 augmentation electrons   276.02611492408460     
 soft         electrons   0.0000000000000000     
 augmentation electrons   276.02611492408460     
 soft         electrons   0.0000000000000000     
 augmentation electrons   276.02611492408460     
 soft         electrons   0.0000000000000000     
 augmentation electrons   276.02611492408460     
 soft         electrons   0.0000000000000000     
 augmentation electrons   276.02611492408460     
 soft         electrons   0.0000000000000000     
 augmentation electrons   276.02611492408460     
 soft         electrons   0.0000000000000000     
 augmentation electrons   276.02611492408460     
 soft         electrons   0.0000000000000000     
 augmentation electrons   276.02611492408460     
 soft         electrons   0.0000000000000000     
 augmentation electrons   276.02611492408460     
 soft         electrons   0.0000000000000000     
 augmentation electrons   276.02611492408460     
 soft         electrons   0.0000000000000000     
 augmentation electrons   276.02611492408460     
 soft         electrons   0.0000000000000000     
 augmentation electrons   276.02611492408460     
 soft         electrons   0.0000000000000000     
 augmentation electrons   276.02611492408460     
 soft         electrons   0.0000000000000000     
 augmentation electrons   276.02611492408460     
 soft         electrons   0.0000000000000000     
 augmentation electrons   276.02611492408460     
 soft         electrons   0.0000000000000000     
 augmentation electrons   276.02611492408460     
 soft         electrons   0.0000000000000000     
 augmentation electrons   276.02611492408460     
 soft         electrons   0.0000000000000000     
 augmentation electrons   276.02611492408460     
 soft         electrons   0.0000000000000000     
 augmentation electrons   276.02611492408460     
 soft         electrons   0.0000000000000000     
 augmentation electrons   276.02611492408460     
 soft         electrons   0.0000000000000000     
 augmentation electrons   276.02611492408460     
 soft         electrons   0.0000000000000000     
 augmentation electrons   276.02611492408460     
 soft         electrons   0.0000000000000000     
 augmentation electrons   276.02611492408460     
 soft         electrons   0.0000000000000000     
 augmentation electrons   276.02611492408460     
 soft         electrons   0.0000000000000000     
 augmentation electrons   276.02611492408460     
 soft         electrons   0.0000000000000000     
 augmentation electrons   276.02611492408460     
 soft         electrons   0.0000000000000000     
 augmentation electrons   276.02611492408460     
 soft         electrons   0.0000000000000000     
 augmentation electrons   276.02611492408460     
 soft         electrons   0.0000000000000000     
 augmentation electrons   276.02611492408460     
 soft         electrons   0.0000000000000000     
 augmentation electrons   276.02611492408460     
 soft         electrons   0.0000000000000000     
 total        electrons   276.02611492408460     
 total        electrons   276.02611492408460     
 total        electrons   276.02611492408460     
 total        electrons   276.02611492408460     
 total        electrons   276.02611492408460     
 total        electrons   276.02611492408460     
 total        electrons   276.02611492408460     
 total        electrons   276.02611492408460     
 total        electrons   276.02611492408460     
 total        electrons   276.02611492408460     
 total        electrons   276.02611492408460     
 total        electrons   276.02611492408460     
 total        electrons   276.02611492408460     
 total        electrons   276.02611492408460     
 total        electrons   276.02611492408460     
 total        electrons   276.02611492408460     
 total        electrons   276.02611492408460     
 total        electrons   276.02611492408460     
 total        electrons   276.02611492408460     
 total        electrons   276.02611492408460     
 total        electrons   276.02611492408460     
 total        electrons   276.02611492408460     
 total        electrons   276.02611492408460     
 augmentation electrons   276.02611492408460     
 soft         electrons   0.0000000000000000     
 total        electrons   276.02611492408460     
 total        electrons   276.02611492408460     
 total        electrons   276.02611492408460     
 total        electrons   276.02611492408460     
 total        electrons   276.02611492408460     
 total        electrons   276.02611492408460     
 total        electrons   276.02611492408460     
 total        electrons   276.02611492408460     
 total        electrons   276.02611492408460     
 total        electrons   276.02611492408460     
 total        electrons   276.02611492408460     
 total        electrons   276.02611492408460     
 total        electrons   276.02611492408460     
 total        electrons   276.02611492408460     
 total        electrons   276.02611492408460     
 total        electrons   276.02611492408460     
 total        electrons   276.02611492408460     
 total        electrons   276.02611492408460     
 total        electrons   276.02611492408460     
 total        electrons   276.02611492408460     
 total        electrons   276.02611492408460     
 total        electrons   276.02611492408460     
 total        electrons   276.02611492408460     
 total        electrons   276.02611492408460     
 total        electrons   276.02611492408460     
 total        electrons   276.02611492408460     
 total        electrons   276.02611492408460     
 total        electrons   276.02611492408460     
 total        electrons   276.02611492408460     
 total        electrons   276.02611492408460     
 total        electrons   276.02611492408460     
 total        electrons   276.02611492408460     
 total        electrons   276.02611492408460     
 total        electrons   276.02611492408460     
 total        electrons   276.02611492408460     
 total        electrons   276.02611492408460     
 total        electrons   276.02611492408460     
 total        electrons   276.02611492408460     
 total        electrons   276.02611492408460     
 total        electrons   276.02611492408460     
 total        electrons   276.02611492408460     
 total        electrons   276.02611492408460     
 total        electrons   276.02611492408460     
 total        electrons   276.02611492408460     
 total        electrons   276.02611492408460     
 total        electrons   276.02611492408460     
 total        electrons   276.02611492408460     
 total        electrons   276.02611492408460     
 total        electrons   276.02611492408460     
 augmentation electrons   864.17339141328512     
 soft         electrons   0.0000000000000000     
 augmentation electrons   864.17339141328512     
 soft         electrons   0.0000000000000000     
 augmentation electrons   864.17339141328512     
 augmentation electrons   864.17339141328512     
 soft         electrons   0.0000000000000000     
 augmentation electrons   864.17339141328512     
 soft         electrons   0.0000000000000000     
 augmentation electrons   864.17339141328512     
 soft         electrons   0.0000000000000000     
 augmentation electrons   864.17339141328512     
 soft         electrons   0.0000000000000000     
 augmentation electrons   864.17339141328512     
 soft         electrons   0.0000000000000000     
 augmentation electrons   864.17339141328512     
 soft         electrons   0.0000000000000000     
 augmentation electrons   864.17339141328512     
 soft         electrons   0.0000000000000000     
 augmentation electrons   864.17339141328512     
 soft         electrons   0.0000000000000000     
 augmentation electrons   864.17339141328512     
 soft         electrons   0.0000000000000000     
 augmentation electrons   864.17339141328512     
 soft         electrons   0.0000000000000000     
 augmentation electrons   864.17339141328512     
 soft         electrons   0.0000000000000000     
 augmentation electrons   864.17339141328512     
 soft         electrons   0.0000000000000000     
 augmentation electrons   864.17339141328512     
 soft         electrons   0.0000000000000000     
 augmentation electrons   864.17339141328512     
 soft         electrons   0.0000000000000000     
 augmentation electrons   864.17339141328512     
 soft         electrons   0.0000000000000000     
 augmentation electrons   864.17339141328512     
 soft         electrons   0.0000000000000000     
 augmentation electrons   864.17339141328512     
 soft         electrons   0.0000000000000000     
 augmentation electrons   864.17339141328512     
 soft         electrons   0.0000000000000000     
 augmentation electrons   864.17339141328512     
 soft         electrons   0.0000000000000000     
 augmentation electrons   864.17339141328512     
 soft         electrons   0.0000000000000000     
 augmentation electrons   864.17339141328512     
 soft         electrons   0.0000000000000000     
 augmentation electrons   864.17339141328512     
 soft         electrons   0.0000000000000000     
 augmentation electrons   864.17339141328512     
 soft         electrons   0.0000000000000000     
 augmentation electrons   864.17339141328512     
 soft         electrons   0.0000000000000000     
 augmentation electrons   864.17339141328512     
 soft         electrons   0.0000000000000000     
 augmentation electrons   864.17339141328512     
 soft         electrons   0.0000000000000000     
 augmentation electrons   864.17339141328512     
 soft         electrons   0.0000000000000000     
 augmentation electrons   864.17339141328512     
 soft         electrons   0.0000000000000000     
 augmentation electrons   864.17339141328512     
 soft         electrons   0.0000000000000000     
 augmentation electrons   864.17339141328512     
 soft         electrons   0.0000000000000000     
 augmentation electrons   864.17339141328512     
 soft         electrons   0.0000000000000000     
 augmentation electrons   864.17339141328512     
 soft         electrons   0.0000000000000000     
 augmentation electrons   864.17339141328512     
 soft         electrons   0.0000000000000000     
 augmentation electrons   864.17339141328512     
 soft         electrons   0.0000000000000000     
 augmentation electrons   864.17339141328512     
 soft         electrons   0.0000000000000000     
 augmentation electrons   864.17339141328512     
 soft         electrons   0.0000000000000000     
 augmentation electrons   864.17339141328512     
 soft         electrons   0.0000000000000000     
 augmentation electrons   864.17339141328512     
 soft         electrons   0.0000000000000000     
 augmentation electrons   864.17339141328512     
 soft         electrons   0.0000000000000000     
 augmentation electrons   864.17339141328512     
 soft         electrons   0.0000000000000000     
 augmentation electrons   864.17339141328512     
 soft         electrons   0.0000000000000000     
 augmentation electrons   864.17339141328512     
 soft         electrons   0.0000000000000000     
 augmentation electrons   864.17339141328512     
 soft         electrons   0.0000000000000000     
 augmentation electrons   864.17339141328512     
 soft         electrons   0.0000000000000000     
 augmentation electrons   864.17339141328512     
 soft         electrons   0.0000000000000000     
 augmentation electrons   864.17339141328512     
 soft         electrons   0.0000000000000000     
 augmentation electrons   864.17339141328512     
 soft         electrons   0.0000000000000000     
 augmentation electrons   864.17339141328512     
 soft         electrons   0.0000000000000000     
 augmentation electrons   864.17339141328512     
 soft         electrons   0.0000000000000000     
 augmentation electrons   864.17339141328512     
 soft         electrons   0.0000000000000000     
 augmentation electrons   864.17339141328512     
 soft         electrons   0.0000000000000000     
 augmentation electrons   864.17339141328512     
 soft         electrons   0.0000000000000000     
 augmentation electrons   864.17339141328512     
 soft         electrons   0.0000000000000000     
 augmentation electrons   864.17339141328512     
 soft         electrons   0.0000000000000000     
 augmentation electrons   864.17339141328512     
 soft         electrons   0.0000000000000000     
 augmentation electrons   864.17339141328512     
 soft         electrons   0.0000000000000000     
 augmentation electrons   864.17339141328512     
 soft         electrons   0.0000000000000000     
 augmentation electrons   864.17339141328512     
 soft         electrons   0.0000000000000000     
 augmentation electrons   864.17339141328512     
 soft         electrons   0.0000000000000000     
 augmentation electrons   864.17339141328512     
 soft         electrons   0.0000000000000000     
 augmentation electrons   864.17339141328512     
 soft         electrons   0.0000000000000000     
 augmentation electrons   864.17339141328512     
 soft         electrons   0.0000000000000000     
 augmentation electrons   864.17339141328512     
 soft         electrons   0.0000000000000000     
 augmentation electrons   864.17339141328512     
 soft         electrons   0.0000000000000000     
 augmentation electrons   864.17339141328512     
 soft         electrons   0.0000000000000000     
 augmentation electrons   864.17339141328512     
 soft         electrons   0.0000000000000000     
 augmentation electrons   864.17339141328512     
 soft         electrons   0.0000000000000000     
 augmentation electrons   864.17339141328512     
 soft         electrons   0.0000000000000000     
 augmentation electrons   864.17339141328512     
 soft         electrons   0.0000000000000000     
 soft         electrons   0.0000000000000000     
 total        electrons   864.17339141328512     
 total        electrons   864.17339141328512     
 total        electrons   864.17339141328512     
 total        electrons   864.17339141328512     
 total        electrons   864.17339141328512     
 total        electrons   864.17339141328512     
 total        electrons   864.17339141328512     
 total        electrons   864.17339141328512     
 total        electrons   864.17339141328512     
 total        electrons   864.17339141328512     
 total        electrons   864.17339141328512     
 total        electrons   864.17339141328512     
 total        electrons   864.17339141328512     
 total        electrons   864.17339141328512     
 total        electrons   864.17339141328512     
 total        electrons   864.17339141328512     
 total        electrons   864.17339141328512     
 total        electrons   864.17339141328512     
 total        electrons   864.17339141328512     
 total        electrons   864.17339141328512     
 total        electrons   864.17339141328512     
 total        electrons   864.17339141328512     
 total        electrons   864.17339141328512     
 total        electrons   864.17339141328512     
 total        electrons   864.17339141328512     
 total        electrons   864.17339141328512     
 total        electrons   864.17339141328512     
 total        electrons   864.17339141328512     
 total        electrons   864.17339141328512     
 total        electrons   864.17339141328512     
 total        electrons   864.17339141328512     
 total        electrons   864.17339141328512     
 total        electrons   864.17339141328512     
 total        electrons   864.17339141328512     
 total        electrons   864.17339141328512     
 total        electrons   864.17339141328512     
 total        electrons   864.17339141328512     
 total        electrons   864.17339141328512     
 total        electrons   864.17339141328512     
 total        electrons   864.17339141328512     
 total        electrons   864.17339141328512     
 total        electrons   864.17339141328512     
 total        electrons   864.17339141328512     
 total        electrons   864.17339141328512     
 total        electrons   864.17339141328512     
 total        electrons   864.17339141328512     
 total        electrons   864.17339141328512     
 total        electrons   864.17339141328512     
 total        electrons   864.17339141328512     
 total        electrons   864.17339141328512     
 total        electrons   864.17339141328512     
 total        electrons   864.17339141328512     
 total        electrons   864.17339141328512     
 total        electrons   864.17339141328512     
 total        electrons   864.17339141328512     
 total        electrons   864.17339141328512     
 total        electrons   864.17339141328512     
 total        electrons   864.17339141328512     
 total        electrons   864.17339141328512     
 total        electrons   864.17339141328512     
 total        electrons   864.17339141328512     
 total        electrons   864.17339141328512     
 total        electrons   864.17339141328512     
 total        electrons   864.17339141328512     
 total        electrons   864.17339141328512     
 total        electrons   864.17339141328512     
 total        electrons   864.17339141328512     
 total        electrons   864.17339141328512     
 total        electrons   864.17339141328512     
 total        electrons   864.17339141328512     
 total        electrons   864.17339141328512     
 total        electrons   864.17339141328512     
 entering main loop
       N       E                     dE             d eps       ncg     rms          rms(c)
DAV:   1     0.308443266988E+04    0.30844E+04   -0.94272E+04 10560   0.132E+03
DAV:   2     0.132216506261E+03   -0.29522E+04   -0.27418E+04 11160   0.342E+02
DAV:   3    -0.592840256864E+03   -0.72506E+03   -0.69825E+03 15000   0.203E+02
DAV:   4    -0.666285080825E+03   -0.73445E+02   -0.70226E+02 17304   0.723E+01
DAV:   5    -0.670591950060E+03   -0.43069E+01   -0.40708E+01 17568   0.179E+01    0.141E+02
RMM:   6    -0.608246314993E+03    0.62346E+02   -0.14227E+03 14694   0.116E+02    0.691E+01
RMM:   7    -0.634533365483E+03   -0.26287E+02   -0.79453E+02 12223   0.112E+02    0.557E+01
RMM:   8    -0.555646873422E+03    0.78886E+02   -0.91443E+01 11074   0.374E+01    0.229E+01
RMM:   9    -0.549672462835E+03    0.59744E+01   -0.46632E+01 13961   0.188E+01    0.167E+01
RMM:  10    -0.550788738848E+03   -0.11163E+01   -0.10253E+01 16139   0.526E+00    0.158E+01
RMM:  11    -0.550580902819E+03    0.20784E+00   -0.12568E+00 14429   0.248E+00    0.145E+01
RMM:  12    -0.550479322290E+03    0.10158E+00   -0.16465E+00 14541   0.358E+00    0.125E+01
RMM:  13    -0.550649236710E+03   -0.16991E+00   -0.10300E+01 14006   0.922E+00    0.803E+00
RMM:  14    -0.549555708776E+03    0.10935E+01   -0.16445E+00 12304   0.449E+00    0.354E+00
RMM:  15    -0.549520323351E+03    0.35385E-01   -0.64396E-01 15681   0.174E+00    0.325E+00
RMM:  16    -0.549489647655E+03    0.30676E-01   -0.15101E-01 16352   0.732E-01    0.283E+00
RMM:  17    -0.549485168324E+03    0.44793E-02   -0.28692E-02 17046   0.198E-01    0.269E+00
RMM:  18    -0.549468095987E+03    0.17072E-01   -0.54658E-02 14784   0.585E-01    0.202E+00
RMM:  19    -0.549458789704E+03    0.93063E-02   -0.29434E-01 13966   0.141E+00    0.162E+00
RMM:  20    -0.549435128279E+03    0.23661E-01   -0.91824E-02 14845   0.670E-01    0.153E+00
RMM:  21    -0.549406464197E+03    0.28664E-01   -0.37378E-02 15032   0.483E-01    0.120E+00
RMM:  22    -0.549396605523E+03    0.98587E-02   -0.23376E-02 16578   0.234E-01    0.103E+00
RMM:  23    -0.549392351957E+03    0.42536E-02   -0.11740E-02 16482   0.225E-01    0.865E-01
RMM:  24    -0.549388905776E+03    0.34462E-02   -0.86225E-03 16139   0.195E-01    0.597E-01
RMM:  25    -0.549386364609E+03    0.25412E-02   -0.19775E-02 15988   0.289E-01    0.211E-01
RMM:  26    -0.549387349372E+03   -0.98476E-03   -0.79904E-03 16853   0.129E-01    0.247E-01
RMM:  27    -0.549387180548E+03    0.16882E-03   -0.85141E-04 13933   0.750E-02    0.244E-01
RMM:  28    -0.549386751636E+03    0.42891E-03   -0.12311E-03 15351   0.806E-02    0.160E-01
RMM:  29    -0.549387129089E+03   -0.37745E-03   -0.16600E-03 15660   0.938E-02    0.115E-01
RMM:  30    -0.549387370443E+03   -0.24135E-03   -0.63482E-04 16537   0.407E-02    0.968E-02
RMM:  31    -0.549387470630E+03   -0.10019E-03   -0.10654E-04 14449   0.229E-02    0.794E-02
RMM:  32    -0.549387606590E+03   -0.13596E-03   -0.12905E-04 15349   0.243E-02    0.460E-02
RMM:  33    -0.549387679957E+03   -0.73367E-04   -0.22408E-04 15997   0.305E-02    0.117E-02
RMM:  34    -0.549387813390E+03   -0.13343E-03   -0.13794E-04 16572   0.164E-02    0.374E-02
RMM:  35    -0.549387901157E+03   -0.87766E-04   -0.37468E-05 13398   0.159E-02    0.138E-02
RMM:  36    -0.549387955671E+03   -0.54514E-04   -0.53678E-05 14790   0.112E-02    0.651E-03
RMM:  37    -0.549388027027E+03   -0.71356E-04   -0.49974E-06  9592   0.735E-03    0.361E-03
RMM:  38    -0.549388102840E+03   -0.75813E-04   -0.59073E-06  9184   0.408E-03    0.273E-03
RMM:  39    -0.549388159524E+03   -0.56684E-04   -0.52825E-06  9000   0.510E-03    0.252E-03
RMM:  40    -0.549388181652E+03   -0.22128E-04   -0.21645E-06  8481   0.335E-03    0.252E-03
RMM:  41    -0.549388203055E+03   -0.21403E-04   -0.22013E-06  8447   0.386E-03    0.294E-03
RMM:  42    -0.549388209935E+03   -0.68802E-05   -0.84286E-07  7778   0.266E-03    0.674E-04
RMM:  43    -0.549388212592E+03   -0.26568E-05   -0.36350E-07  6286   0.133E-03    0.876E-04
RMM:  44    -0.549388214596E+03   -0.20042E-05   -0.29321E-07  6899   0.145E-03    0.812E-04
RMM:  45    -0.549388215818E+03   -0.12220E-05   -0.19095E-07  6258   0.106E-03    0.344E-04
RMM:  46    -0.549388216118E+03   -0.29963E-06   -0.10409E-07  5430   0.986E-04
   1 F= -.54938822E+03 E0= -.54939123E+03  d E =0.903361E-02
 augmentation electrons   35.472003558637567     
 soft         electrons   240.62350970658960     
 augmentation electrons   35.472003558637567     
 soft         electrons   240.62350970658960     
 augmentation electrons   35.472003558637567     
 soft         electrons   240.62350970658960     
 augmentation electrons   35.472003558637567     
 soft         electrons   240.62350970658960     
 augmentation electrons   35.472003558637567     
 soft         electrons   240.62350970658960     
 augmentation electrons   35.472003558637567     
 soft         electrons   240.62350970658960     
 augmentation electrons   35.472003558637567     
 soft         electrons   240.62350970658960     
 augmentation electrons   35.472003558637567     
 soft         electrons   240.62350970658960     
 augmentation electrons   35.472003558637567     
 soft         electrons   240.62350970658960     
 augmentation electrons   35.472003558637567     
 soft         electrons   240.62350970658960     
 augmentation electrons   35.472003558637567     
 soft         electrons   240.62350970658960     
 augmentation electrons   35.472003558637567     
 soft         electrons   240.62350970658960     
 augmentation electrons   35.472003558637567     
 soft         electrons   240.62350970658960     
 augmentation electrons   35.472003558637567     
 soft         electrons   240.62350970658960     
 augmentation electrons   35.472003558637567     
 soft         electrons   240.62350970658960     
 augmentation electrons   35.472003558637567     
 soft         electrons   240.62350970658960     
 augmentation electrons   35.472003558637567     
 soft         electrons   240.62350970658960     
 augmentation electrons   35.472003558637567     
 augmentation electrons   35.472003558637567     
 soft         electrons   240.62350970658960     
 augmentation electrons   35.472003558637567     
 soft         electrons   240.62350970658960     
 augmentation electrons   35.472003558637567     
 soft         electrons   240.62350970658960     
 augmentation electrons   35.472003558637567     
 soft         electrons   240.62350970658960     
 augmentation electrons   35.472003558637567     
 soft         electrons   240.62350970658960     
 augmentation electrons   35.472003558637567     
 soft         electrons   240.62350970658960     
 augmentation electrons   35.472003558637567     
 soft         electrons   240.62350970658960     
 augmentation electrons   35.472003558637567     
 soft         electrons   240.62350970658960     
 augmentation electrons   35.472003558637567     
 soft         electrons   240.62350970658960     
 augmentation electrons   35.472003558637567     
 soft         electrons   240.62350970658960     
 augmentation electrons   35.472003558637567     
 soft         electrons   240.62350970658960     
 augmentation electrons   35.472003558637567     
 soft         electrons   240.62350970658960     
 augmentation electrons   35.472003558637567     
 soft         electrons   240.62350970658960     
 augmentation electrons   35.472003558637567     
 soft         electrons   240.62350970658960     
 augmentation electrons   35.472003558637567     
 soft         electrons   240.62350970658960     
 augmentation electrons   35.472003558637567     
 soft         electrons   240.62350970658960     
 augmentation electrons   35.472003558637567     
 soft         electrons   240.62350970658960     
 augmentation electrons   35.472003558637567     
 soft         electrons   240.62350970658960     
 augmentation electrons   35.472003558637567     
 soft         electrons   240.62350970658960     
 augmentation electrons   35.472003558637567     
 soft         electrons   240.62350970658960     
 augmentation electrons   35.472003558637567     
 soft         electrons   240.62350970658960     
 augmentation electrons   35.472003558637567     
 soft         electrons   240.62350970658960     
 augmentation electrons   35.472003558637567     
 soft         electrons   240.62350970658960     
 augmentation electrons   35.472003558637567     
 soft         electrons   240.62350970658960     
 augmentation electrons   35.472003558637567     
 soft         electrons   240.62350970658960     
 augmentation electrons   35.472003558637567     
 soft         electrons   240.62350970658960     
 augmentation electrons   35.472003558637567     
 soft         electrons   240.62350970658960     
 augmentation electrons   35.472003558637567     
 soft         electrons   240.62350970658960     
 augmentation electrons   35.472003558637567     
 soft         electrons   240.62350970658960     
 augmentation electrons   35.472003558637567     
 soft         electrons   240.62350970658960     
 augmentation electrons   35.472003558637567     
 soft         electrons   240.62350970658960     
 augmentation electrons   35.472003558637567     
 soft         electrons   240.62350970658960     
 augmentation electrons   35.472003558637567     
 soft         electrons   240.62350970658960     
 augmentation electrons   35.472003558637567     
 soft         electrons   240.62350970658960     
 augmentation electrons   35.472003558637567     
 soft         electrons   240.62350970658960     
 augmentation electrons   35.472003558637567     
 soft         electrons   240.62350970658960     
 augmentation electrons   35.472003558637567     
 soft         electrons   240.62350970658960     
 augmentation electrons   35.472003558637567     
 soft         electrons   240.62350970658960     
 augmentation electrons   35.472003558637567     
 soft         electrons   240.62350970658960     
 augmentation electrons   35.472003558637567     
 soft         electrons   240.62350970658960     
 augmentation electrons   35.472003558637567     
 soft         electrons   240.62350970658960     
 augmentation electrons   35.472003558637567     
 soft         electrons   240.62350970658960     
 augmentation electrons   35.472003558637567     
 soft         electrons   240.62350970658960     
 augmentation electrons   35.472003558637567     
 soft         electrons   240.62350970658960     
 augmentation electrons   35.472003558637567     
 soft         electrons   240.62350970658960     
 augmentation electrons   35.472003558637567     
 soft         electrons   240.62350970658960     
 augmentation electrons   35.472003558637567     
 soft         electrons   240.62350970658960     
 augmentation electrons   35.472003558637567     
 soft         electrons   240.62350970658960     
 augmentation electrons   35.472003558637567     
 soft         electrons   240.62350970658960     
 augmentation electrons   35.472003558637567     
 soft         electrons   240.62350970658960     
 augmentation electrons   35.472003558637567     
 soft         electrons   240.62350970658960     
 augmentation electrons   35.472003558637567     
 soft         electrons   240.62350970658960     
 augmentation electrons   35.472003558637567     
 soft         electrons   240.62350970658960     
 augmentation electrons   35.472003558637567     
 soft         electrons   240.62350970658960     
 soft         electrons   240.62350970658960     
 total        electrons   276.09551326522717     
 total        electrons   276.09551326522717     
 total        electrons   276.09551326522717     
 total        electrons   276.09551326522717     
 total        electrons   276.09551326522717     
 total        electrons   276.09551326522717     
 total        electrons   276.09551326522717     
 total        electrons   276.09551326522717     
 total        electrons   276.09551326522717     
 total        electrons   276.09551326522717     
 total        electrons   276.09551326522717     
 total        electrons   276.09551326522717     
 total        electrons   276.09551326522717     
 total        electrons   276.09551326522717     
 total        electrons   276.09551326522717     
 total        electrons   276.09551326522717     
 total        electrons   276.09551326522717     
 total        electrons   276.09551326522717     
 total        electrons   276.09551326522717     
 total        electrons   276.09551326522717     
 total        electrons   276.09551326522717     
 total        electrons   276.09551326522717     
 total        electrons   276.09551326522717     
 total        electrons   276.09551326522717     
 total        electrons   276.09551326522717     
 total        electrons   276.09551326522717     
 total        electrons   276.09551326522717     
 total        electrons   276.09551326522717     
 total        electrons   276.09551326522717     
 total        electrons   276.09551326522717     
 total        electrons   276.09551326522717     
 total        electrons   276.09551326522717     
 total        electrons   276.09551326522717     
 total        electrons   276.09551326522717     
 total        electrons   276.09551326522717     
 total        electrons   276.09551326522717     
 total        electrons   276.09551326522717     
 total        electrons   276.09551326522717     
 total        electrons   276.09551326522717     
 total        electrons   276.09551326522717     
 total        electrons   276.09551326522717     
 total        electrons   276.09551326522717     
 total        electrons   276.09551326522717     
 total        electrons   276.09551326522717     
 total        electrons   276.09551326522717     
 total        electrons   276.09551326522717     
 total        electrons   276.09551326522717     
 total        electrons   276.09551326522717     
 total        electrons   276.09551326522717     
 total        electrons   276.09551326522717     
 total        electrons   276.09551326522717     
 total        electrons   276.09551326522717     
 total        electrons   276.09551326522717     
 total        electrons   276.09551326522717     
 total        electrons   276.09551326522717     
 total        electrons   276.09551326522717     
 total        electrons   276.09551326522717     
 total        electrons   276.09551326522717     
 total        electrons   276.09551326522717     
 total        electrons   276.09551326522717     
 total        electrons   276.09551326522717     
 total        electrons   276.09551326522717     
 total        electrons   276.09551326522717     
 total        electrons   276.09551326522717     
 total        electrons   276.09551326522717     
 total        electrons   276.09551326522717     
 total        electrons   276.09551326522717     
 total        electrons   276.09551326522717     
 total        electrons   276.09551326522717     
 total        electrons   276.09551326522717     
 total        electrons   276.09551326522717     
 total        electrons   276.09551326522717     
Note: The following floating-point exceptions are signalling: IEEE_OVERFLOW_FLAG
Note: The following floating-point exceptions are signalling: IEEE_OVERFLOW_FLAG
Note: The following floating-point exceptions are signalling: IEEE_OVERFLOW_FLAG
Note: The following floating-point exceptions are signalling: IEEE_OVERFLOW_FLAG
Note: The following floating-point exceptions are signalling: IEEE_OVERFLOW_FLAG
Note: The following floating-point exceptions are signalling: IEEE_OVERFLOW_FLAG
Note: The following floating-point exceptions are signalling: IEEE_OVERFLOW_FLAG
Note: The following floating-point exceptions are signalling: IEEE_OVERFLOW_FLAG
Note: The following floating-point exceptions are signalling: IEEE_OVERFLOW_FLAG
Note: The following floating-point exceptions are signalling: IEEE_OVERFLOW_FLAG
Note: The following floating-point exceptions are signalling: IEEE_OVERFLOW_FLAG
Note: The following floating-point exceptions are signalling: IEEE_OVERFLOW_FLAG
Note: The following floating-point exceptions are signalling: IEEE_OVERFLOW_FLAG
Note: The following floating-point exceptions are signalling: IEEE_OVERFLOW_FLAG
Note: The following floating-point exceptions are signalling: IEEE_OVERFLOW_FLAG
Note: The following floating-point exceptions are signalling: IEEE_OVERFLOW_FLAG
Note: The following floating-point exceptions are signalling: IEEE_OVERFLOW_FLAG
Note: The following floating-point exceptions are signalling: IEEE_OVERFLOW_FLAG
Note: The following floating-point exceptions are signalling: IEEE_OVERFLOW_FLAG
Note: The following floating-point exceptions are signalling: IEEE_OVERFLOW_FLAG
Note: The following floating-point exceptions are signalling: IEEE_OVERFLOW_FLAG
Note: The following floating-point exceptions are signalling: IEEE_OVERFLOW_FLAG
Note: The following floating-point exceptions are signalling: IEEE_OVERFLOW_FLAG
Note: The following floating-point exceptions are signalling: IEEE_OVERFLOW_FLAG
Note: The following floating-point exceptions are signalling: IEEE_OVERFLOW_FLAG
Note: The following floating-point exceptions are signalling: IEEE_OVERFLOW_FLAG
Note: The following floating-point exceptions are signalling: IEEE_OVERFLOW_FLAG
Note: The following floating-point exceptions are signalling: IEEE_OVERFLOW_FLAG
Note: The following floating-point exceptions are signalling: IEEE_OVERFLOW_FLAG
Note: The following floating-point exceptions are signalling: IEEE_OVERFLOW_FLAG
Note: The following floating-point exceptions are signalling: IEEE_OVERFLOW_FLAG
Note: The following floating-point exceptions are signalling: IEEE_OVERFLOW_FLAG
Note: The following floating-point exceptions are signalling: IEEE_OVERFLOW_FLAG
Note: The following floating-point exceptions are signalling: IEEE_OVERFLOW_FLAG
Note: The following floating-point exceptions are signalling: IEEE_OVERFLOW_FLAG
Note: The following floating-point exceptions are signalling: IEEE_OVERFLOW_FLAG
Note: The following floating-point exceptions are signalling: IEEE_OVERFLOW_FLAG
Note: The following floating-point exceptions are signalling: IEEE_OVERFLOW_FLAG
Note: The following floating-point exceptions are signalling: IEEE_OVERFLOW_FLAG
Note: The following floating-point exceptions are signalling: IEEE_OVERFLOW_FLAG
Note: The following floating-point exceptions are signalling: IEEE_OVERFLOW_FLAG
Note: The following floating-point exceptions are signalling: IEEE_OVERFLOW_FLAG
Note: The following floating-point exceptions are signalling: IEEE_OVERFLOW_FLAG
Note: The following floating-point exceptions are signalling: IEEE_OVERFLOW_FLAG
Note: The following floating-point exceptions are signalling: IEEE_OVERFLOW_FLAG
Note: The following floating-point exceptions are signalling: IEEE_OVERFLOW_FLAG
Note: The following floating-point exceptions are signalling: IEEE_OVERFLOW_FLAG
Note: The following floating-point exceptions are signalling: IEEE_OVERFLOW_FLAG
Note: The following floating-point exceptions are signalling: IEEE_OVERFLOW_FLAG
Note: The following floating-point exceptions are signalling: IEEE_OVERFLOW_FLAG
Note: The following floating-point exceptions are signalling: IEEE_OVERFLOW_FLAG
Note: The following floating-point exceptions are signalling: IEEE_OVERFLOW_FLAG
Note: The following floating-point exceptions are signalling: IEEE_OVERFLOW_FLAG
Note: The following floating-point exceptions are signalling: IEEE_OVERFLOW_FLAG
Note: The following floating-point exceptions are signalling: IEEE_OVERFLOW_FLAG
Note: The following floating-point exceptions are signalling: IEEE_OVERFLOW_FLAG
Note: The following floating-point exceptions are signalling: IEEE_OVERFLOW_FLAG
Note: The following floating-point exceptions are signalling: IEEE_OVERFLOW_FLAG
Note: The following floating-point exceptions are signalling: IEEE_OVERFLOW_FLAG
Note: The following floating-point exceptions are signalling: IEEE_OVERFLOW_FLAG
Note: The following floating-point exceptions are signalling: IEEE_OVERFLOW_FLAG
Note: The following floating-point exceptions are signalling: IEEE_OVERFLOW_FLAG
Note: The following floating-point exceptions are signalling: IEEE_OVERFLOW_FLAG
Note: The following floating-point exceptions are signalling: IEEE_OVERFLOW_FLAG
Note: The following floating-point exceptions are signalling: IEEE_OVERFLOW_FLAG
Note: The following floating-point exceptions are signalling: IEEE_OVERFLOW_FLAG
Note: The following floating-point exceptions are signalling: IEEE_OVERFLOW_FLAG
Note: The following floating-point exceptions are signalling: IEEE_OVERFLOW_FLAG
Note: The following floating-point exceptions are signalling: IEEE_OVERFLOW_FLAG
Note: The following floating-point exceptions are signalling: IEEE_OVERFLOW_FLAG
Note: The following floating-point exceptions are signalling: IEEE_OVERFLOW_FLAG
Note: The following floating-point exceptions are signalling: IEEE_OVERFLOW_FLAG
