   56   56   85    1
  0.1275712E+02  0.6078000E-09  0.6078000E-09  0.2233000E-08  0.5000000E-15
   1.0000000000000000E-004
  CAR 
 Name                                    
    204     41    132

  0.3742002E-15  0.3742002E-15  0.1262379E-14  0.1234568E-01
    1      -11.114094   1.000000
    2      -10.537081   1.000000
    3       -9.740315   1.000000
    4       -8.678435   1.000000
    5       -8.262882   1.000000
    6       -8.232537   1.000000
    7       -7.839776   1.000000
    8       -7.771397   1.000000
    9       -7.648343   1.000000
   10       -7.517256   1.000000
   11       -7.374118   1.000000
   12       -7.339802   1.000000
   13       -7.310659   1.000000
   14       -7.304116   1.000000
   15       -6.987330   1.000000
   16       -6.978568   1.000000
   17       -6.927268   1.000000
   18       -6.771127   1.000000
   19       -6.699968   1.000000
   20       -6.668372   1.000000
   21       -6.421102   1.000000
   22       -5.880743   1.000000
   23       -5.778205   1.000000
   24       -5.552493   1.000000
   25       -5.488496   1.000000
   26       -5.432834   1.000000
   27       -5.407353   1.000000
   28       -5.254206   1.000000
   29       -5.078049   1.000000
   30       -4.788855   1.000000
   31       -4.758420   1.000000
   32       -4.281720   1.000000
   33       -4.169802   1.000000
   34       -4.135152   1.000000
   35       -3.927982   1.000000
   36       -3.745546   1.000000
   37       -3.711353   1.000000
   38       -3.185477   1.000000
   39       -2.974427   1.000000
   40       -2.838954   1.000000
   41       -2.659656   1.000000
   42       -2.629774   1.000000
   43       -2.439401   1.000000
   44       -2.336154   1.000000
   45       -2.257219   1.000000
   46       -2.101833   1.000000
   47       -2.091469   1.000000
   48       -1.957171   1.000000
   49       -1.918952   1.000000
   50       -1.735807   1.000000
   51       -1.703417   1.000000
   52       -1.610121   1.000000
   53       -1.578239   1.000000
   54       -1.507565   1.000000
   55       -1.478360   1.000000
   56       -1.424394   1.000000
   57       -1.379911   1.000000
   58       -1.239508   1.000000
   59       -1.188883   1.000000
   60       -1.165702   1.000000
   61       -1.152994   1.000000
   62       -1.119639   1.000000
   63       -1.041522   1.000000
   64       -0.886779   1.000000
   65       -0.744296   1.000000
   66       -0.721907   1.000000
   67       -0.701477   1.000000
   68       -0.527541   1.000000
   69       -0.446127   1.000000
   70       -0.429511   1.000000
   71       -0.394485   1.000000
   72       -0.340124   1.000000
   73       -0.297326   1.000000
   74       -0.284220   1.000000
   75        0.006366   1.000000
   76        0.122057   1.000000
   77        0.215137   1.000000
   78        0.245100   1.000000
   79        0.333756   1.000000
   80        0.517702   1.000000
   81        0.809156   1.000000
   82        0.815370   1.000000
   83        0.888302   1.000000
   84        0.992119   1.000000
   85        1.473427   1.000000
   86        1.623270   1.000000
   87        1.628117   1.000000
   88        1.654653   1.000000
   89        1.762166   1.000000
   90        1.789256   1.000000
   91        1.826420   1.000000
   92        1.964909   1.000000
   93        2.007876   1.000000
   94        2.025052   1.000000
   95        2.092412   1.000000
   96        2.225935   1.000000
   97        2.402188   1.000000
   98        2.541105   1.000045
   99        2.757723   1.006940
  100        3.068780   0.863286
  101        3.144890   0.590133
  102        3.247321   0.186457
  103        3.371119  -0.027438
  104        3.441661  -0.032590
  105        3.506852  -0.018433
  106        3.613059  -0.003500
  107        3.774875  -0.000073
  108        3.871260  -0.000004
  109        3.959192  -0.000000
  110        3.970788  -0.000000
  111        3.996645  -0.000000
  112        4.076968  -0.000000
  113        4.182809  -0.000000
  114        4.257111  -0.000000
  115        4.260987  -0.000000
  116        4.321207  -0.000000
  117        4.334875  -0.000000
  118        4.454374  -0.000000
  119        4.469179  -0.000000
  120        4.491683  -0.000000
  121        4.578769  -0.000000
  122        4.643522  -0.000000
  123        4.683754  -0.000000
  124        4.690308  -0.000000
  125        4.729468  -0.000000
  126        4.792530  -0.000000
  127        4.824728  -0.000000
  128        4.957308  -0.000000
  129        5.206292  -0.000000
  130        5.358935  -0.000000
  131        5.463940  -0.000000
  132        5.523719  -0.000000

  0.1111111E+00  0.3687552E-15  0.1262379E-14  0.2469136E-01
    1      -11.056531   1.000000
    2      -10.484916   1.000000
    3       -9.700710   1.000000
    4       -8.644369   1.000000
    5       -8.266015   1.000000
    6       -8.227490   1.000000
    7       -7.950241   1.000000
    8       -7.918766   1.000000
    9       -7.813934   1.000000
   10       -7.714634   1.000000
   11       -7.614729   1.000000
   12       -7.555657   1.000000
   13       -7.419582   1.000000
   14       -7.396094   1.000000
   15       -7.071545   1.000000
   16       -6.752752   1.000000
   17       -6.739159   1.000000
   18       -6.553064   1.000000
   19       -6.498869   1.000000
   20       -6.389100   1.000000
   21       -6.187627   1.000000
   22       -5.874798   1.000000
   23       -5.758338   1.000000
   24       -5.606605   1.000000
   25       -5.474892   1.000000
   26       -5.424936   1.000000
   27       -5.314655   1.000000
   28       -5.276902   1.000000
   29       -5.018060   1.000000
   30       -4.878631   1.000000
   31       -4.643949   1.000000
   32       -4.167009   1.000000
   33       -4.106304   1.000000
   34       -3.963793   1.000000
   35       -3.871961   1.000000
   36       -3.680436   1.000000
   37       -3.506126   1.000000
   38       -3.171523   1.000000
   39       -2.969211   1.000000
   40       -2.813073   1.000000
   41       -2.688004   1.000000
   42       -2.601025   1.000000
   43       -2.544735   1.000000
   44       -2.305539   1.000000
   45       -2.290778   1.000000
   46       -2.161965   1.000000
   47       -2.124018   1.000000
   48       -2.047240   1.000000
   49       -1.990569   1.000000
   50       -1.928671   1.000000
   51       -1.717863   1.000000
   52       -1.660226   1.000000
   53       -1.549319   1.000000
   54       -1.521022   1.000000
   55       -1.514115   1.000000
   56       -1.417443   1.000000
   57       -1.305374   1.000000
   58       -1.230743   1.000000
   59       -1.192379   1.000000
   60       -1.178990   1.000000
   61       -1.126617   1.000000
   62       -1.088204   1.000000
   63       -1.045888   1.000000
   64       -0.953860   1.000000
   65       -0.799184   1.000000
   66       -0.790602   1.000000
   67       -0.710024   1.000000
   68       -0.687231   1.000000
   69       -0.560168   1.000000
   70       -0.497100   1.000000
   71       -0.405249   1.000000
   72       -0.367604   1.000000
   73       -0.223816   1.000000
   74       -0.160725   1.000000
   75       -0.038920   1.000000
   76        0.073825   1.000000
   77        0.144145   1.000000
   78        0.221884   1.000000
   79        0.348169   1.000000
   80        0.432248   1.000000
   81        0.550688   1.000000
   82        0.656237   1.000000
   83        0.846194   1.000000
   84        0.997232   1.000000
   85        1.289096   1.000000
   86        1.348975   1.000000
   87        1.510649   1.000000
   88        1.639077   1.000000
   89        1.702260   1.000000
   90        1.844541   1.000000
   91        1.871534   1.000000
   92        1.936959   1.000000
   93        1.963498   1.000000
   94        1.991367   1.000000
   95        2.116231   1.000000
   96        2.176612   1.000000
   97        2.570958   1.000106
   98        2.781057   1.010068
   99        2.929734   1.035173
  100        3.023658   0.964446
  101        3.163520   0.511875
  102        3.220148   0.281150
  103        3.259348   0.149665
  104        3.365162  -0.024512
  105        3.447220  -0.031608
  106        3.687405  -0.000714
  107        3.841971  -0.000010
  108        3.929537  -0.000000
  109        3.948946  -0.000000
  110        3.980847  -0.000000
  111        4.006614  -0.000000
  112        4.083308  -0.000000
  113        4.174152  -0.000000
  114        4.204519  -0.000000
  115        4.259184  -0.000000
  116        4.291082  -0.000000
  117        4.337493  -0.000000
  118        4.382207  -0.000000
  119        4.402448  -0.000000
  120        4.428783  -0.000000
  121        4.554553  -0.000000
  122        4.589681  -0.000000
  123        4.619885  -0.000000
  124        4.672120  -0.000000
  125        4.721172  -0.000000
  126        4.769733  -0.000000
  127        4.826824  -0.000000
  128        4.954715  -0.000000
  129        5.180905  -0.000000
  130        5.227555  -0.000000
  131        5.387047  -0.000000
  132        5.486245  -0.000000

  0.2222222E+00  0.3503827E-15  0.1262379E-14  0.2469136E-01
    1      -10.886029   1.000000
    2      -10.330976   1.000000
    3       -9.585641   1.000000
    4       -8.597341   1.000000
    5       -8.521138   1.000000
    6       -8.425686   1.000000
    7       -8.291031   1.000000
    8       -8.113567   1.000000
    9       -7.934800   1.000000
   10       -7.813014   1.000000
   11       -7.751252   1.000000
   12       -7.726837   1.000000
   13       -7.645183   1.000000
   14       -7.558478   1.000000
   15       -7.299973   1.000000
   16       -6.608835   1.000000
   17       -6.389528   1.000000
   18       -6.338105   1.000000
   19       -6.263252   1.000000
   20       -6.117716   1.000000
   21       -5.855627   1.000000
   22       -5.655446   1.000000
   23       -5.578371   1.000000
   24       -5.509850   1.000000
   25       -5.424483   1.000000
   26       -5.367217   1.000000
   27       -5.293022   1.000000
   28       -5.109185   1.000000
   29       -4.812436   1.000000
   30       -4.706008   1.000000
   31       -4.388948   1.000000
   32       -3.995479   1.000000
   33       -3.969715   1.000000
   34       -3.795356   1.000000
   35       -3.547193   1.000000
   36       -3.444985   1.000000
   37       -3.150094   1.000000
   38       -3.090829   1.000000
   39       -2.978937   1.000000
   40       -2.898249   1.000000
   41       -2.814898   1.000000
   42       -2.722027   1.000000
   43       -2.695275   1.000000
   44       -2.565231   1.000000
   45       -2.455472   1.000000
   46       -2.229170   1.000000
   47       -2.177561   1.000000
   48       -2.126906   1.000000
   49       -1.953315   1.000000
   50       -1.885958   1.000000
   51       -1.789144   1.000000
   52       -1.724961   1.000000
   53       -1.595367   1.000000
   54       -1.573356   1.000000
   55       -1.504515   1.000000
   56       -1.501807   1.000000
   57       -1.407337   1.000000
   58       -1.341648   1.000000
   59       -1.277355   1.000000
   60       -1.183222   1.000000
   61       -1.138034   1.000000
   62       -1.109081   1.000000
   63       -1.091019   1.000000
   64       -1.059892   1.000000
   65       -0.946549   1.000000
   66       -0.921892   1.000000
   67       -0.813395   1.000000
   68       -0.790533   1.000000
   69       -0.736013   1.000000
   70       -0.613306   1.000000
   71       -0.459036   1.000000
   72       -0.402330   1.000000
   73       -0.308562   1.000000
   74       -0.227460   1.000000
   75       -0.163487   1.000000
   76       -0.092760   1.000000
   77       -0.065323   1.000000
   78        0.187092   1.000000
   79        0.312857   1.000000
   80        0.345981   1.000000
   81        0.440436   1.000000
   82        0.554567   1.000000
   83        0.802768   1.000000
   84        0.928333   1.000000
   85        1.022323   1.000000
   86        1.104507   1.000000
   87        1.353047   1.000000
   88        1.414947   1.000000
   89        1.663611   1.000000
   90        1.669732   1.000000
   91        1.791669   1.000000
   92        1.832785   1.000000
   93        1.855899   1.000000
   94        1.967094   1.000000
   95        2.150327   1.000000
   96        2.235437   1.000000
   97        2.550286   1.000059
   98        2.713950   1.003138
   99        2.857369   1.025618
  100        3.073963   0.848411
  101        3.143767   0.594788
  102        3.347996  -0.012816
  103        3.375428  -0.029228
  104        3.482279  -0.024003
  105        3.614989  -0.003372
  106        3.668463  -0.001104
  107        3.781813  -0.000060
  108        3.806447  -0.000029
  109        3.834218  -0.000012
  110        3.853343  -0.000007
  111        3.921731  -0.000001
  112        4.008395  -0.000000
  113        4.096109  -0.000000
  114        4.120729  -0.000000
  115        4.146901  -0.000000
  116        4.190030  -0.000000
  117        4.288552  -0.000000
  118        4.300516  -0.000000
  119        4.354999  -0.000000
  120        4.412508  -0.000000
  121        4.477225  -0.000000
  122        4.524289  -0.000000
  123        4.604078  -0.000000
  124        4.677856  -0.000000
  125        4.730899  -0.000000
  126        4.817099  -0.000000
  127        4.893306  -0.000000
  128        4.915240  -0.000000
  129        5.057877  -0.000000
  130        5.169958  -0.000000
  131        5.231520  -0.000000
  132        5.342083  -0.000000

  0.3333333E+00  0.3767071E-15  0.1262379E-14  0.2469136E-01
    1      -10.609855   1.000000
    2      -10.083385   1.000000
    3       -9.408947   1.000000
    4       -9.178924   1.000000
    5       -8.854860   1.000000
    6       -8.568100   1.000000
    7       -8.373940   1.000000
    8       -8.042194   1.000000
    9       -7.971648   1.000000
   10       -7.928448   1.000000
   11       -7.843821   1.000000
   12       -7.756625   1.000000
   13       -7.748964   1.000000
   14       -7.664116   1.000000
   15       -7.582679   1.000000
   16       -6.961104   1.000000
   17       -6.176795   1.000000
   18       -6.080672   1.000000
   19       -6.019028   1.000000
   20       -5.775381   1.000000
   21       -5.694807   1.000000
   22       -5.575433   1.000000
   23       -5.484240   1.000000
   24       -5.425556   1.000000
   25       -5.354606   1.000000
   26       -5.251970   1.000000
   27       -4.738197   1.000000
   28       -4.581764   1.000000
   29       -4.422772   1.000000
   30       -4.225267   1.000000
   31       -4.092685   1.000000
   32       -3.803820   1.000000
   33       -3.707462   1.000000
   34       -3.695122   1.000000
   35       -3.425093   1.000000
   36       -3.306519   1.000000
   37       -3.277038   1.000000
   38       -3.211427   1.000000
   39       -3.173583   1.000000
   40       -3.090345   1.000000
   41       -3.000043   1.000000
   42       -2.940784   1.000000
   43       -2.658407   1.000000
   44       -2.495400   1.000000
   45       -2.391204   1.000000
   46       -2.313501   1.000000
   47       -2.121776   1.000000
   48       -2.070640   1.000000
   49       -2.001730   1.000000
   50       -1.931634   1.000000
   51       -1.905660   1.000000
   52       -1.843752   1.000000
   53       -1.787104   1.000000
   54       -1.701384   1.000000
   55       -1.691460   1.000000
   56       -1.566222   1.000000
   57       -1.475028   1.000000
   58       -1.456512   1.000000
   59       -1.373069   1.000000
   60       -1.357556   1.000000
   61       -1.284122   1.000000
   62       -1.224361   1.000000
   63       -1.165550   1.000000
   64       -1.136349   1.000000
   65       -1.033949   1.000000
   66       -1.012949   1.000000
   67       -0.890194   1.000000
   68       -0.865584   1.000000
   69       -0.759953   1.000000
   70       -0.726361   1.000000
   71       -0.559443   1.000000
   72       -0.462981   1.000000
   73       -0.408060   1.000000
   74       -0.385511   1.000000
   75       -0.253701   1.000000
   76       -0.187492   1.000000
   77       -0.169416   1.000000
   78       -0.140741   1.000000
   79        0.148065   1.000000
   80        0.285560   1.000000
   81        0.469568   1.000000
   82        0.693582   1.000000
   83        0.743524   1.000000
   84        0.908556   1.000000
   85        1.017035   1.000000
   86        1.058570   1.000000
   87        1.279058   1.000000
   88        1.338334   1.000000
   89        1.408149   1.000000
   90        1.518786   1.000000
   91        1.665522   1.000000
   92        1.749344   1.000000
   93        1.803595   1.000000
   94        1.899994   1.000000
   95        2.027720   1.000000
   96        2.360369   1.000000
   97        2.448835   1.000002
   98        2.510978   1.000018
   99        2.704565   1.002606
  100        3.035500   0.942830
  101        3.047286   0.917850
  102        3.156189   0.542836
  103        3.296934   0.057604
  104        3.363412  -0.023548
  105        3.409597  -0.035447
  106        3.518794  -0.015920
  107        3.591214  -0.005240
  108        3.654441  -0.001504
  109        3.734813  -0.000219
  110        3.831887  -0.000013
  111        3.875114  -0.000003
  112        3.933352  -0.000000
  113        3.951315  -0.000000
  114        4.033593  -0.000000
  115        4.084361  -0.000000
  116        4.198654  -0.000000
  117        4.222795  -0.000000
  118        4.265547  -0.000000
  119        4.306972  -0.000000
  120        4.388451  -0.000000
  121        4.468368  -0.000000
  122        4.563832  -0.000000
  123        4.676193  -0.000000
  124        4.751091  -0.000000
  125        4.791580  -0.000000
  126        4.835251  -0.000000
  127        4.920849  -0.000000
  128        4.975567  -0.000000
  129        5.045252  -0.000000
  130        5.140256  -0.000000
  131        5.287171  -0.000000
  132        5.350633  -0.000000

  0.4444444E+00  0.3698634E-15  0.1262379E-14  0.2469136E-01
    1      -10.252043   1.000000
    2       -9.779717   1.000000
    3       -9.684067   1.000000
    4       -9.339852   1.000000
    5       -9.146959   1.000000
    6       -8.835935   1.000000
    7       -8.156664   1.000000
    8       -8.087100   1.000000
    9       -8.037519   1.000000
   10       -7.930434   1.000000
   11       -7.889190   1.000000
   12       -7.786786   1.000000
   13       -7.769013   1.000000
   14       -7.705286   1.000000
   15       -7.651580   1.000000
   16       -7.331941   1.000000
   17       -6.078506   1.000000
   18       -5.971479   1.000000
   19       -5.965538   1.000000
   20       -5.745225   1.000000
   21       -5.591168   1.000000
   22       -5.375264   1.000000
   23       -5.346045   1.000000
   24       -5.250676   1.000000
   25       -5.201935   1.000000
   26       -5.130299   1.000000
   27       -4.168902   1.000000
   28       -4.034167   1.000000
   29       -3.949150   1.000000
   30       -3.918725   1.000000
   31       -3.871698   1.000000
   32       -3.748633   1.000000
   33       -3.693028   1.000000
   34       -3.638187   1.000000
   35       -3.524916   1.000000
   36       -3.425676   1.000000
   37       -3.390933   1.000000
   38       -3.330968   1.000000
   39       -3.252635   1.000000
   40       -3.205832   1.000000
   41       -3.085768   1.000000
   42       -2.985728   1.000000
   43       -2.911138   1.000000
   44       -2.818137   1.000000
   45       -2.411757   1.000000
   46       -2.368052   1.000000
   47       -2.224226   1.000000
   48       -2.118445   1.000000
   49       -2.019861   1.000000
   50       -1.949208   1.000000
   51       -1.890161   1.000000
   52       -1.873543   1.000000
   53       -1.774010   1.000000
   54       -1.728577   1.000000
   55       -1.644418   1.000000
   56       -1.591623   1.000000
   57       -1.550812   1.000000
   58       -1.506775   1.000000
   59       -1.464993   1.000000
   60       -1.416337   1.000000
   61       -1.343959   1.000000
   62       -1.327415   1.000000
   63       -1.293349   1.000000
   64       -1.226902   1.000000
   65       -1.087086   1.000000
   66       -1.027232   1.000000
   67       -0.992829   1.000000
   68       -0.849145   1.000000
   69       -0.812724   1.000000
   70       -0.703514   1.000000
   71       -0.654683   1.000000
   72       -0.522850   1.000000
   73       -0.477136   1.000000
   74       -0.453334   1.000000
   75       -0.332106   1.000000
   76       -0.300951   1.000000
   77       -0.215506   1.000000
   78       -0.168881   1.000000
   79       -0.121056   1.000000
   80        0.396191   1.000000
   81        0.533120   1.000000
   82        0.581833   1.000000
   83        0.668750   1.000000
   84        0.941667   1.000000
   85        1.048006   1.000000
   86        1.151429   1.000000
   87        1.177652   1.000000
   88        1.300094   1.000000
   89        1.378765   1.000000
   90        1.448398   1.000000
   91        1.564198   1.000000
   92        1.686783   1.000000
   93        1.788721   1.000000
   94        1.969734   1.000000
   95        2.144858   1.000000
   96        2.269363   1.000000
   97        2.480650   1.000007
   98        2.501893   1.000014
   99        2.612305   1.000319
  100        2.667016   1.001176
  101        2.710956   1.002959
  102        3.046142   0.920430
  103        3.126537   0.664726
  104        3.205239   0.338754
  105        3.307916   0.037382
  106        3.363384  -0.023532
  107        3.445147  -0.031986
  108        3.544532  -0.011186
  109        3.626478  -0.002691
  110        3.725131  -0.000282
  111        3.789145  -0.000049
  112        3.802701  -0.000033
  113        3.872238  -0.000004
  114        3.950867  -0.000000
  115        3.976342  -0.000000
  116        4.123263  -0.000000
  117        4.219894  -0.000000
  118        4.234732  -0.000000
  119        4.277758  -0.000000
  120        4.376847  -0.000000
  121        4.550789  -0.000000
  122        4.696438  -0.000000
  123        4.720118  -0.000000
  124        4.794613  -0.000000
  125        4.865962  -0.000000
  126        4.919792  -0.000000
  127        5.048653  -0.000000
  128        5.124802  -0.000000
  129        5.194718  -0.000000
  130        5.266835  -0.000000
  131        5.357423  -0.000000
  132        5.544344  -0.000000

  0.3742002E-15  0.1111111E+00  0.1262379E-14  0.2469136E-01
    1      -11.056531   1.000000
    2      -10.484915   1.000000
    3       -9.700708   1.000000
    4       -8.644384   1.000000
    5       -8.266007   1.000000
    6       -8.227476   1.000000
    7       -7.950267   1.000000
    8       -7.918968   1.000000
    9       -7.813847   1.000000
   10       -7.714877   1.000000
   11       -7.614664   1.000000
   12       -7.555387   1.000000
   13       -7.419553   1.000000
   14       -7.395915   1.000000
   15       -7.071616   1.000000
   16       -6.752812   1.000000
   17       -6.739196   1.000000
   18       -6.552857   1.000000
   19       -6.498955   1.000000
   20       -6.389281   1.000000
   21       -6.187555   1.000000
   22       -5.874739   1.000000
   23       -5.758251   1.000000
   24       -5.606487   1.000000
   25       -5.474998   1.000000
   26       -5.424798   1.000000
   27       -5.315043   1.000000
   28       -5.276654   1.000000
   29       -5.018259   1.000000
   30       -4.878690   1.000000
   31       -4.644260   1.000000
   32       -4.166851   1.000000
   33       -4.106365   1.000000
   34       -3.963813   1.000000
   35       -3.871230   1.000000
   36       -3.680491   1.000000
   37       -3.506397   1.000000
   38       -3.171623   1.000000
   39       -2.969176   1.000000
   40       -2.813176   1.000000
   41       -2.688173   1.000000
   42       -2.600892   1.000000
   43       -2.544592   1.000000
   44       -2.305422   1.000000
   45       -2.290893   1.000000
   46       -2.161915   1.000000
   47       -2.124170   1.000000
   48       -2.047303   1.000000
   49       -1.990676   1.000000
   50       -1.928668   1.000000
   51       -1.717946   1.000000
   52       -1.659747   1.000000
   53       -1.549535   1.000000
   54       -1.520836   1.000000
   55       -1.514145   1.000000
   56       -1.417543   1.000000
   57       -1.305301   1.000000
   58       -1.230838   1.000000
   59       -1.192696   1.000000
   60       -1.178993   1.000000
   61       -1.126361   1.000000
   62       -1.087552   1.000000
   63       -1.046211   1.000000
   64       -0.954149   1.000000
   65       -0.799266   1.000000
   66       -0.790521   1.000000
   67       -0.709996   1.000000
   68       -0.686876   1.000000
   69       -0.560464   1.000000
   70       -0.496918   1.000000
   71       -0.405556   1.000000
   72       -0.367553   1.000000
   73       -0.224098   1.000000
   74       -0.160331   1.000000
   75       -0.038912   1.000000
   76        0.073618   1.000000
   77        0.144548   1.000000
   78        0.221493   1.000000
   79        0.348090   1.000000
   80        0.432347   1.000000
   81        0.550742   1.000000
   82        0.656108   1.000000
   83        0.846271   1.000000
   84        0.997175   1.000000
   85        1.289006   1.000000
   86        1.349056   1.000000
   87        1.510656   1.000000
   88        1.638967   1.000000
   89        1.702194   1.000000
   90        1.844570   1.000000
   91        1.871610   1.000000
   92        1.936767   1.000000
   93        1.963522   1.000000
   94        1.991139   1.000000
   95        2.116844   1.000000
   96        2.176637   1.000000
   97        2.570836   1.000106
   98        2.781433   1.010126
   99        2.929539   1.035187
  100        3.023575   0.964585
  101        3.163536   0.511809
  102        3.220139   0.281185
  103        3.259440   0.149398
  104        3.364810  -0.024322
  105        3.447403  -0.031574
  106        3.687824  -0.000707
  107        3.842252  -0.000010
  108        3.930109  -0.000000
  109        3.947744  -0.000000
  110        3.981470  -0.000000
  111        4.005529  -0.000000
  112        4.084151  -0.000000
  113        4.173952  -0.000000
  114        4.204625  -0.000000
  115        4.258882  -0.000000
  116        4.291124  -0.000000
  117        4.337382  -0.000000
  118        4.382384  -0.000000
  119        4.402690  -0.000000
  120        4.427997  -0.000000
  121        4.554689  -0.000000
  122        4.589891  -0.000000
  123        4.619866  -0.000000
  124        4.672137  -0.000000
  125        4.720951  -0.000000
  126        4.770368  -0.000000
  127        4.826667  -0.000000
  128        4.955275  -0.000000
  129        5.180870  -0.000000
  130        5.227228  -0.000000
  131        5.387081  -0.000000
  132        5.486159  -0.000000

  0.1111111E+00  0.1111111E+00  0.1262379E-14  0.2469136E-01
    1      -10.942221   1.000000
    2      -10.381679   1.000000
    3       -9.622993   1.000000
    4       -8.571223   1.000000
    5       -8.334072   1.000000
    6       -8.312387   1.000000
    7       -8.189626   1.000000
    8       -8.148742   1.000000
    9       -8.020024   1.000000
   10       -7.950964   1.000000
   11       -7.868908   1.000000
   12       -7.714837   1.000000
   13       -7.440861   1.000000
   14       -7.279005   1.000000
   15       -6.983842   1.000000
   16       -6.969554   1.000000
   17       -6.503408   1.000000
   18       -6.491321   1.000000
   19       -6.356690   1.000000
   20       -5.925693   1.000000
   21       -5.919244   1.000000
   22       -5.814438   1.000000
   23       -5.612287   1.000000
   24       -5.586443   1.000000
   25       -5.350375   1.000000
   26       -5.279757   1.000000
   27       -5.252972   1.000000
   28       -5.140731   1.000000
   29       -4.973836   1.000000
   30       -4.900918   1.000000
   31       -4.600133   1.000000
   32       -4.262944   1.000000
   33       -3.742796   1.000000
   34       -3.741953   1.000000
   35       -3.635767   1.000000
   36       -3.585273   1.000000
   37       -3.226564   1.000000
   38       -3.159120   1.000000
   39       -3.000589   1.000000
   40       -2.880739   1.000000
   41       -2.774504   1.000000
   42       -2.710618   1.000000
   43       -2.529010   1.000000
   44       -2.492514   1.000000
   45       -2.337347   1.000000
   46       -2.182640   1.000000
   47       -2.181154   1.000000
   48       -2.017810   1.000000
   49       -1.977827   1.000000
   50       -1.891409   1.000000
   51       -1.890881   1.000000
   52       -1.738837   1.000000
   53       -1.647647   1.000000
   54       -1.636039   1.000000
   55       -1.538361   1.000000
   56       -1.368149   1.000000
   57       -1.356470   1.000000
   58       -1.314954   1.000000
   59       -1.221373   1.000000
   60       -1.219427   1.000000
   61       -1.093865   1.000000
   62       -1.090879   1.000000
   63       -1.043955   1.000000
   64       -0.953146   1.000000
   65       -0.932684   1.000000
   66       -0.928623   1.000000
   67       -0.787607   1.000000
   68       -0.749696   1.000000
   69       -0.624256   1.000000
   70       -0.533784   1.000000
   71       -0.500655   1.000000
   72       -0.334845   1.000000
   73       -0.321289   1.000000
   74       -0.255871   1.000000
   75       -0.152707   1.000000
   76       -0.033723   1.000000
   77       -0.016567   1.000000
   78        0.132664   1.000000
   79        0.371600   1.000000
   80        0.404569   1.000000
   81        0.516321   1.000000
   82        0.589627   1.000000
   83        0.766734   1.000000
   84        0.808834   1.000000
   85        0.970650   1.000000
   86        1.255990   1.000000
   87        1.432569   1.000000
   88        1.591090   1.000000
   89        1.732279   1.000000
   90        1.748301   1.000000
   91        1.789017   1.000000
   92        1.804547   1.000000
   93        1.862943   1.000000
   94        1.931567   1.000000
   95        2.115138   1.000000
   96        2.300200   1.000000
   97        2.642644   1.000671
   98        2.716572   1.003302