    3    3   60    1
  0.8144830E+01  0.3039000E-09  0.3039000E-09  0.3055000E-09  0.5000000E-15
   1.0000000000000000E-004
  CAR 
 Name                                    
     12    216     10

  0.3742002E-15  0.3742002E-15  0.3742002E-15  0.2962963E-03
    1       -5.682975   1.000000
    2        4.123190   1.000000
    3        4.123193   1.000000
    4        5.800560   1.000000
    5        5.896581   1.000000
    6        8.394876   1.000000
    7        8.394877   1.000000
    8       11.657842  -0.000000
    9       11.657845  -0.000000
   10       13.061719   0.000000

  0.6666667E-01  0.3766815E-15  0.3742002E-15  0.1777778E-02
    1       -5.597383   1.000000
    2        3.911478   1.000000
    3        4.156730   1.000000
    4        5.623967   1.000000
    5        5.842827   1.000000
    6        8.362218   1.000000
    7        8.754581   1.000000
    8       11.104377  -0.000000
    9       11.180801  -0.000000
   10       13.546589   0.000000

  0.1333333E+00  0.3754153E-15  0.3742002E-15  0.1777778E-02
    1       -5.344042   1.000000
    2        3.348211   1.000000
    3        4.244322   1.000000
    4        5.076668   1.000000
    5        5.928032   1.000000
    6        8.271444   1.000000
    7        9.539567  -0.035432
    8       10.287929  -0.000000
    9       10.534752  -0.000000
   10       14.129778   0.000000

  0.2000000E+00  0.3870416E-15  0.3742002E-15  0.1777778E-02
    1       -4.932895   1.000000
    2        2.572693   1.000000
    3        4.351054   1.000000
    4        4.520677   1.000000
    5        5.921738   1.000000
    6        8.141452   1.000000
    7        9.770250  -0.000004
    8       10.078230  -0.000000
    9       10.395343  -0.000000
   10       14.553026   0.000000

  0.2666667E+00  0.4120044E-15  0.3742002E-15  0.1777778E-02
    1       -4.379372   1.000000
    2        1.691848   1.000000
    3        4.045431   1.000000
    4        4.436201   1.000000
    5        5.687177   1.000000
    6        7.997335   1.000000
    7        9.794521  -0.000001
    8        9.859294  -0.000000
    9       11.038533  -0.000000
   10       14.852658   0.000000

  0.3333333E+00  0.4025434E-15  0.3742002E-15  0.1777778E-02
    1       -3.703364   1.000000
    2        0.764103   1.000000
    3        3.679944   1.000000
    4        4.477121   1.000000
    5        5.296680   1.000000
    6        7.864261   1.000000
    7        9.847384  -0.000000
    8       10.314515  -0.000000
    9       11.254185  -0.000000
   10       14.982632   0.000000

  0.4000000E+00  0.3732510E-15  0.3742002E-15  0.1777778E-02
    1       -2.929259   1.000000
    2       -0.177258   1.000000
    3        3.434153   1.000000
    4        4.481779   1.000000
    5        4.938831   1.000000
    6        7.763275   1.000000
    7        9.949253  -0.000000
    8       11.078344  -0.000000
    9       11.177863  -0.000000
   10       15.110421   0.000000

  0.4666667E+00  0.3915456E-15  0.3742002E-15  0.1777778E-02
    1       -2.102533   1.000000
    2       -1.087180   1.000000
    3        3.310973   1.000000
    4        4.474802   1.000000
    5        4.735641   1.000000
    6        7.709057   1.000000
    7       10.043711  -0.000000
    8       11.076798  -0.000000
    9       11.711985  -0.000000
   10       15.267829   0.000000

  0.6666667E-01  0.6666667E-01  0.3742002E-15  0.1777778E-02
    1       -5.427887   1.000000
    2        3.538494   1.000000
    3        4.198699   1.000000
    4        5.232786   1.000000
    5        5.912317   1.000000
    6        8.283371   1.000000
    7        9.327299   1.013226
    8       10.527267  -0.000000
    9       10.652736  -0.000000
   10       14.197903   0.000000

  0.1333333E+00  0.6666667E-01  0.3742002E-15  0.3555556E-02
    1       -5.095446   1.000000
    2        2.903600   1.000000
    3        4.231014   1.000000
    4        4.721166   1.000000
    5        5.994919   1.000000
    6        8.126811   1.000000
    7        9.844879  -0.000000
    8       10.170925  -0.000000
    9       10.248648  -0.000000
   10       14.628072   0.000000

  0.2000000E+00  0.6666667E-01  0.3742002E-15  0.3555556E-02
    1       -4.612501   1.000000
    2        2.112987   1.000000
    3        4.200889   1.000000
    4        4.243541   1.000000
    5        5.988219   1.000000
    6        7.924802   1.000000
    7        9.416867   0.512807
    8       10.157791  -0.000000
    9       11.000008  -0.000000
   10       14.902371   0.000000

  0.2666667E+00  0.6666667E-01  0.3742002E-15  0.3555556E-02
    1       -3.996440   1.000000
    2        1.238889   1.000000
    3        3.855159   1.000000
    4        4.076984   1.000000
    5        5.848109   1.000000
    6        7.712650   1.000000
    7        9.361271   0.906625
    8       10.408473  -0.000000
    9       11.520586  -0.000000
   10       14.878830   0.000000

  0.3333333E+00  0.6666667E-01  0.3742002E-15  0.3555556E-02
    1       -3.268770   1.000000
    2        0.322664   1.000000
    3        3.574443   1.000000
    4        3.895093   1.000000
    5        5.658187   1.000000
    6        7.526595   1.000000
    7        9.561557  -0.030555
    8       10.915367  -0.000000
    9       11.619950  -0.000000
   10       15.241070   0.000000

  0.4000000E+00  0.6666667E-01  0.3742002E-15  0.3555556E-02
    1       -2.457757   1.000000
    2       -0.602606   1.000000
    3        3.406111   1.000000
    4        3.738609   1.000000
    5        5.515724   1.000000
    6        7.399314   1.000000
    7        9.804980  -0.000000
    8       11.468204  -0.000000
    9       11.543264  -0.000000
   10       15.396660   0.000000

  0.4666667E+00  0.6666667E-01  0.3742002E-15  0.1777778E-02
    1       -1.748351   1.000000
    2       -1.350313   1.000000
    3        3.350147   1.000000
    4        3.678036   1.000000
    5        5.464720   1.000000
    6        7.354056   1.000000
    7        9.910381  -0.000000
    8       11.498623  -0.000000
    9       11.727119  -0.000000
   10       15.569066   0.000000

  0.1333333E+00  0.1333333E+00  0.3742002E-15  0.1777778E-02
    1       -4.690747   1.000000
    2        2.313477   1.000000
    3        4.020697   1.000000
    4        4.332268   1.000000
    5        6.150155   1.000000
    6        7.833044   1.000000
    7        9.278080   1.031661
    8       10.266675  -0.000000
    9       11.053718  -0.000000
   10       14.892970   0.000000

  0.2000000E+00  0.1333333E+00  0.3742002E-15  0.3555556E-02
    1       -4.143766   1.000000
    2        1.614746   1.000000
    3        3.646515   1.000000
    4        3.998331   1.000000
    5        6.343791   1.000000
    6        7.466056   1.000000
    7        8.879212   1.000000
    8       10.574705  -0.000000
    9       11.927951  -0.000000
   10       14.599073   0.000000

  0.2666667E+00  0.1333333E+00  0.3742002E-15  0.3555556E-02
    1       -3.472917   1.000000
    2        0.822755   1.000000
    3        3.244571   1.000000
    4        3.751403   1.000000
    5        6.428362   1.000000
    6        7.102422   1.000000
    7        8.857212   1.000000
    8       11.002283  -0.000000
    9       12.439004   0.000000
   10       14.815116   0.000000

  0.3333333E+00  0.1333333E+00  0.3742002E-15  0.3555556E-02
    1       -2.701212   1.000000
    2       -0.040372   1.000000
    3        2.930656   1.000000
    4        3.595403   1.000000
    5        6.375746   1.000000
    6        6.811803   1.000000
    7        9.167516   1.001114
    8       11.340800  -0.000000
    9       12.519137   0.000000
   10       15.480736   0.000000

  0.4000000E+00  0.1333333E+00  0.3742002E-15  0.3555556E-02
    1       -1.863693   1.000000
    2       -0.929000   1.000000
    3        2.763554   1.000000
    4        3.521787   1.000000
    5        6.308405   1.000000
    6        6.650316   1.000000
    7        9.495099   0.018832
    8       11.466428  -0.000000
    9       12.482157   0.000000
   10       16.032731   0.000000

  0.2000000E+00  0.2000000E+00  0.3742002E-15  0.1777778E-02
    1       -3.540985   1.000000
    2        1.080508   1.000000
    3        2.933783   1.000000
    4        3.837498   1.000000
    5        6.830526   1.000000
    6        6.909847   1.000000
    7        8.454249   1.000000
    8       11.050511  -0.000000
    9       12.954710   0.000000
   10       14.417073   0.000000

  0.2666667E+00  0.2000000E+00  0.3742002E-15  0.3555556E-02
    1       -2.823567   1.000000
    2        0.454233   1.000000
    3        2.308380   1.000000
    4        3.770298   1.000000
    5        6.385871   1.000000
    6        7.153105   1.000000
    7        8.420287   1.000000
    8       11.316943  -0.000000
    9       13.572030   0.000000
   10       14.737616   0.000000

  0.3333333E+00  0.2000000E+00  0.3742002E-15  0.3555556E-02
    1       -2.017891   1.000000
    2       -0.308273   1.000000
    3        1.921070   1.000000
    4        3.769511   1.000000
    5        6.003366   1.000000
    6        7.154742   1.000000
    7        8.836320   1.000000
    8       11.236104  -0.000000
    9       13.619414   0.000000
   10       15.510226   0.000000

  0.4000000E+00  0.2000000E+00  0.3742002E-15  0.1777778E-02
    1       -1.197697   1.000000
    2       -1.121824   1.000000
    3        1.796265   1.000000
    4        3.780415   1.000000
    5        5.860210   1.000000
    6        7.117954   1.000000
    7        9.115509   1.000079
    8       11.090551  -0.000000
    9       13.601747   0.000000
   10       15.879055   0.000000

  0.2666667E+00  0.2666667E+00  0.3742002E-15  0.1777778E-02
    1       -2.071978   1.000000
    2        0.076543   1.000000
    3        1.463182   1.000000
    4        3.912203   1.000000
    5        5.718112   1.000000
    6        7.880798   1.000000
    7        8.153810   1.000000
    8       11.157393  -0.000000
    9       14.655538   0.000000
   10       14.707065   0.000000

  0.3333333E+00  0.2666667E+00  0.3742002E-15  0.3555556E-02
    1       -1.263002   1.000000
    2       -0.479887   1.000000
    3        0.966653   1.000000
    4        4.106187   1.000000
    5        5.245686   1.000000
    6        7.904631   1.000000
    7        8.605841   1.000000
    8       10.752215  -0.000000
    9       14.630613   0.000000
   10       15.468698   0.000000

  0.3333333E+00  0.3333333E+00  0.3742002E-15  0.5925926E-03
    1       -0.653097   1.000000
    2       -0.653095   1.000000
    3        0.404159   1.000000
    4        4.602965   1.000000
    5        4.602968   1.000000
    6        8.403324   1.000000
    7        8.403325   1.000000
    8       10.434359  -0.000000
    9       15.255915   0.000000
   10       15.255916   0.000000

  0.3742002E-15  0.3742002E-15  0.6666667E-01  0.5925926E-03
    1       -5.619174   1.000000
    2        4.176630   1.000000
    3        4.176633   1.000000
    4        4.969589   1.000000
    5        6.679552   1.000000
    6        8.190372   1.000000
    7        8.190373   1.000000
    8       11.507574  -0.000000
    9       11.507577  -0.000000
   10       13.447327   0.000000

  0.6666667E-01  0.3766815E-15  0.6666667E-01  0.3555556E-02
    1       -5.534627   1.000000
    2        3.958270   1.000000
    3        4.203877   1.000000
    4        4.909656   1.000000
    5        6.448929   1.000000
    6        8.150812   1.000000
    7        8.596810   1.000000
    8       11.104218  -0.000000
    9       11.182335  -0.000000
   10       13.690146   0.000000

  0.1333333E+00  0.3754153E-15  0.6666667E-01  0.3555556E-02
    1       -5.284510   1.000000
    2        3.375055   1.000000
    3        4.270474   1.000000
    4        4.692425   1.000000
    5        6.166820   1.000000
    6        8.056614   1.000000
    7        9.324955   1.016891
    8       10.503927  -0.000000
    9       10.672132  -0.000000
   10       14.137537   0.000000

  0.2000000E+00  0.3870416E-15  0.6666667E-01  0.3555556E-02
    1       -4.878852   1.000000
    2        2.574210   1.000000
    3        4.337923   1.000000
    4        4.345977   1.000000
    5        5.964812   1.000000
    6        7.966994   1.000000
    7        9.630917  -0.005222
    8       10.275808  -0.000000
    9       10.592804  -0.000000
   10       14.366143   0.000000

  0.2666667E+00  0.4120044E-15  0.6666667E-01  0.3555556E-02
    1       -4.333195   1.000000
    2        1.673176   1.000000
    3        3.988749   1.000000
    4        4.367141   1.000000
    5        5.668077   1.000000
    6        7.930823   1.000000
    7        9.767441  -0.000005
    8       10.040971  -0.000000
    9       11.088964  -0.000000
   10       14.487821   0.000000

  0.3333333E+00  0.4025434E-15  0.6666667E-01  0.3555556E-02
    1       -3.667072   1.000000
    2        0.734891   1.000000
    3        3.695571   1.000000
    4        4.348459   1.000000
    5        5.276450   1.000000
    6        7.943505   1.000000
    7        9.964507  -0.000000
    8       10.232241  -0.000000
    9       11.287659  -0.000000
   10       14.924388   0.000000

  0.4000000E+00  0.3732510E-15  0.6666667E-01  0.3555556E-02
    1       -2.903093   1.000000
    2       -0.208534   1.000000
    3        3.494997   1.000000
    4        4.306317   1.000000
    5        4.927948   1.000000
    6        7.965794   1.000000
    7       10.002119  -0.000000
    8       10.671403  -0.000000
    9       11.505856  -0.000000
   10       15.129142   0.000000

  0.4666667E+00  0.3915456E-15  0.6666667E-01  0.3555556E-02
    1       -2.074558   1.000000
    2       -1.125612   1.000000
    3        3.394621   1.000000
    4        4.274675   1.000000
    5        4.729660   1.000000
    6        7.976425   1.000000
    7       10.061898  -0.000000
    8       10.723749  -0.000000
    9       12.007731  -0.000000
   10       14.954993   0.000000

  0.6666667E-01  0.6666667E-01  0.6666667E-01  0.3555556E-02
    1       -5.367271   1.000000
    2        3.577564   1.000000
    3        4.217352   1.000000
    4        4.775756   1.000000
    5        6.245981   1.000000
    6        8.043236   1.000000
    7        9.177022   1.001689
    8       10.626197  -0.000000
    9       10.796618  -0.000000
   10       14.224701   0.000000

  0.1333333E+00  0.6666667E-01  0.6666667E-01  0.7111111E-02
    1       -5.039199   1.000000
    2        2.925477   1.000000
    3        4.150662   1.000000
    4        4.552185   1.000000
    5        6.125628   1.000000
    6        7.857715   1.000000
    7        9.782116  -0.000002
    8       10.167806  -0.000000
    9       10.586812  -0.000000
   10       14.566117   0.000000

  0.2000000E+00  0.6666667E-01  0.6666667E-01  0.7111111E-02
    1       -4.563018   1.000000
    2        2.111203   1.000000
    3        3.946847   1.000000
    4        4.351776   1.000000
    5        6.010679   1.000000
    6        7.711671   1.000000
    7        9.632042  -0.005016
    8       10.189659  -0.000000
    9       11.056790  -0.000000
   10       14.529094   0.000000

  0.2666667E+00  0.6666667E-01  0.6666667E-01  0.7111111E-02
    1       -3.956052   1.000000
    2        1.218656   1.000000
    3        3.708352   1.000000
    4        4.140173   1.000000
    5        5.784818   1.000000
    6        7.680190   1.000000
    7        9.569352  -0.027216
    8       10.401001  -0.000000
    9       11.497667  -0.000000
   10       14.654286   0.000000

  0.3333333E+00  0.6666667E-01  0.6666667E-01  0.7111111E-02
    1       -3.239085   1.000000
    2        0.294295   1.000000
    3        3.531799   1.000000
    4        3.902225   1.000000
    5        5.518432   1.000000
    6        7.701134   1.000000
    7        9.679089  -0.000708
    8       10.799731  -0.000000
    9       11.645997  -0.000000
   10       15.104509   0.000000

  0.4000000E+00  0.6666667E-01  0.6666667E-01  0.7111111E-02
    1       -2.436737   1.000000
    2       -0.632248   1.000000
    3        3.445697   1.000000
    4        3.697362   1.000000
    5        5.324105   1.000000
    6        7.706178   1.000000
    7        9.850948  -0.000000
    8       11.037785  -0.000000
    9       11.895473  -0.000000
   10       15.152409   0.000000

  0.4666667E+00  0.6666667E-01  0.6666667E-01  0.3555556E-02
    1       -1.685439   1.000000
    2       -1.424800   1.000000
    3        3.431366   1.000000
    4        3.607430   1.000000
    5        5.255124   1.000000
    6        7.703071   1.000000
    7        9.932942  -0.000000
    8       11.061530  -0.000000
    9       12.111233  -0.000000
   10       15.079331   0.000000

  0.1333333E+00  0.1333333E+00  0.6666667E-01  0.3555556E-02
    1       -4.640186   1.000000
    2        2.331715   1.000000
    3        3.778314   1.000000
    4        4.400070   1.000000
    5        6.253993   1.000000
    6        7.477304   1.000000
    7        9.615692  -0.008712
    8       10.251164  -0.000000
    9       11.098026  -0.000000
   10       14.706354   0.000000

  0.2000000E+00  0.1333333E+00  0.6666667E-01  0.7111111E-02
    1       -4.101422   1.000000
    2        1.617267   1.000000
    3        3.392148   1.000000
    4        4.149119   1.000000
    5        6.374979   1.000000
    6        7.183628   1.000000
    7        9.255427   1.021706
    8       10.592273  -0.000000
    9       11.860445  -0.000000
   10       14.448002   0.000000

  0.2666667E+00  0.1333333E+00  0.6666667E-01  0.7111111E-02
    1       -3.441183   1.000000
    2        0.807087   1.000000
    3        3.074495   1.000000
    4        3.883333   1.000000
    5        6.176558   1.000000
    6        7.238297   1.000000
    7        9.129684   1.000173
    8       10.992581  -0.000000
    9       12.324796   0.000000
   10       14.650810   0.000000

  0.3333333E+00  0.1333333E+00  0.6666667E-01  0.7111111E-02
    1       -2.681436   1.000000
    2       -0.064229   1.000000
    3        2.846839   1.000000
    4        3.687274   1.000000
    5        5.890447   1.000000
    6        7.333973   1.000000
    7        9.296637   1.035450
    8       11.281521  -0.000000
    9       12.459622   0.000000
   10       15.134811   0.000000

  0.4000000E+00  0.1333333E+00  0.6666667E-01  0.7111111E-02
    1       -1.849667   1.000000
    2       -0.955939   1.000000
    3        2.726301   1.000000
    4        3.589880   1.000000
    5        5.720650   1.000000
    6        7.344437   1.000000
    7        9.549596  -0.034415
    8       11.359651  -0.000000
    9       12.512729   0.000000
   10       15.381510   0.000000

  0.2000000E+00  0.2000000E+00  0.6666667E-01  0.3555556E-02
    1       -3.508581   1.000000
    2        1.080302   1.000000
    3        2.764749   1.000000
    4        3.948990   1.000000
    5        6.554882   1.000000
    6        6.939215   1.000000
    7        8.866942   1.000000
    8       11.059828  -0.000000
    9       12.794915   0.000000
   10       14.295544   0.000000

  0.2666667E+00  0.2000000E+00  0.6666667E-01  0.7111111E-02
    1       -2.803937   1.000000
    2        0.440884   1.000000
    3        2.226588   1.000000
    4        3.841317   1.000000
    5        6.043230   1.000000
    6        7.391318   1.000000
    7        8.714191   1.000000
    8       11.316775  -0.000000
    9       13.396298   0.000000
   10       14.570662   0.000000

  0.3333333E+00  0.2000000E+00  0.6666667E-01  0.7111111E-02
    1       -2.012981   1.000000
    2       -0.328049   1.000000
    3        1.896948   1.000000
    4        3.815311   1.000000
    5        5.668836   1.000000
    6        7.554566   1.000000
    7        8.963920   1.000000
    8       11.240477  -0.000000
    9       13.506270   0.000000
   10       15.222960   0.000000

  0.4000000E+00  0.2000000E+00  0.6666667E-01  0.3555556E-02
    1       -1.183958   1.000000
    2       -1.156860   1.000000
    3        1.790514   1.000000
    4        3.818154   1.000000
    5        5.529440   1.000000
    6        7.558368   1.000000
    7        9.193074   1.003247
    8       11.104857  -0.000000
    9       13.510906   0.000000
   10       15.534383   0.000000

  0.2666667E+00  0.2666667E+00  0.6666667E-01  0.3555556E-02
    1       -2.068566   1.000000
    2        0.056441   1.000000
    3        1.443566   1.000000
    4        3.942775   1.000000
    5        5.517257   1.000000
    6        7.998990   1.000000
    7        8.450998   1.000000
    8       11.176742  -0.000000
    9       14.473283   0.000000
   10       14.546041   0.000000

  0.3333333E+00  0.2666667E+00  0.6666667E-01  0.7111111E-02
    1       -1.282187   1.000000
    2       -0.501300   1.000000
    3        0.988480   1.000000
    4        4.108914   1.000000
    5        5.101074   1.000000
    6        8.146065   1.000000
    7        8.736400   1.000000
    8       10.793014  -0.000000
    9       14.510024   0.000000
   10       15.273834   0.000000

  0.3333333E+00  0.3333333E+00  0.6666667E-01  0.1185185E-02
    1       -0.695074   1.000000
    2       -0.695071   1.000000
    3        0.475259   1.000000
    4        4.548621   1.000000
    5        4.548623   1.000000
    6        8.571291   1.000000
    7        8.571292   1.000000
    8       10.486485  -0.000000
    9       15.121409   0.000000
   10       15.121409   0.000000

  0.3742002E-15  0.3742002E-15  0.1333333E+00  0.5925926E-03
    1       -5.431214   1.000000
    2        4.049668   1.000000
    3        4.336515   1.000000
    4        4.336517   1.000000
    5        7.474282   1.000000
    6        7.708485   1.000000
    7        7.708487   1.000000
    8       11.086093  -0.000000
    9       11.086096  -0.000000
   10       13.445233   0.000000

  0.6666667E-01  0.3766815E-15  0.1333333E+00  0.3555556E-02
    1       -5.349953   1.000000
    2        4.003094   1.000000
    3        4.127431   1.000000
    4        4.342503   1.000000
    5        6.911136   1.000000
    6        7.669207   1.000000
    7        8.393191   1.000000
    8       10.908433  -0.000000
    9       11.009901  -0.000000
   10       13.731896   0.000000

  0.1333333E+00  0.3754153E-15  0.1333333E+00  0.3555556E-02
    1       -5.109803   1.000000
    2        3.417116   1.000000
    3        4.031472   1.000000
    4        4.340468   1.000000
    5        6.412762   1.000000
    6        7.610733   1.000000
    7        9.101341   1.000035
    8       10.682278  -0.000000
    9       10.835071  -0.000000
   10       14.292084   0.000000

  0.2000000E+00  0.3870416E-15  0.1333333E+00  0.3555556E-02
    1       -4.721338   1.000000
    2        2.558320   1.000000
    3        3.951770   1.000000
    4        4.289232   1.000000
    5        6.004226   1.000000
    6        7.647704   1.000000
    7        9.442301   0.303850
    8       10.633501  -0.000000
    9       10.907145  -0.000000
   10       14.112508   0.000000

  0.2666667E+00  0.4120044E-15  0.1333333E+00  0.3555556E-02
    1       -4.200395   1.000000
    2        1.619290   1.000000
    3        3.841199   1.000000
    4        4.173417   1.000000
    5        5.598917   1.000000
    6        7.837952   1.000000
    7        9.666766  -0.001244
    8       10.442112  -0.000000
    9       11.297149  -0.000000
   10       14.082861   0.000000

  0.3333333E+00  0.4025434E-15  0.1333333E+00  0.3555556E-02
    1       -3.566045   1.000000
    2        0.667229   1.000000
    3        3.732809   1.000000
    4        4.025287   1.000000
    5        5.197541   1.000000
    6        8.137678   1.000000
    7       10.013380  -0.000000
    8       10.283032  -0.000000
    9       11.476764  -0.000000
   10       14.453719   0.000000

  0.4000000E+00  0.3732510E-15  0.1333333E+00  0.3555556E-02
    1       -2.838315   1.000000
    2       -0.268551   1.000000
    3        3.655371   1.000000
    4        3.894982   1.000000
    5        4.870191   1.000000
    6        8.438684   1.000000
    7       10.172477  -0.000000
    8       10.230036  -0.000000
    9       11.821911  -0.000000
   10       14.691175   0.000000

  0.4666667E+00  0.3915456E-15  0.1333333E+00  0.3555556E-02
    1       -2.037220   1.000000
    2       -1.171624   1.000000
    3        3.618249   1.000000
    4        3.820573   1.000000
    5        4.686448   1.000000
    6        8.625472   1.000000
    7       10.118031  -0.000000
    8       10.236046  -0.000000
    9       12.387701   0.000000
   10       14.399730   0.000000

  0.6666667E-01  0.6666667E-01  0.1333333E+00  0.3555556E-02
    1       -5.189230   1.000000
    2        3.690924   1.000000
    3        3.923741   1.000000
    4        4.384101   1.000000
    5        6.589785   1.000000
    6        7.529243   1.000000
    7        9.002323   1.000000
    8       10.648928  -0.000000
    9       10.926675  -0.000000
   10       14.246206   0.000000

  0.1333333E+00  0.6666667E-01  0.1333333E+00  0.7111111E-02
    1       -4.874807   1.000000
    2        2.974307   1.000000
    3        3.754796   1.000000
    4        4.403633   1.000000
    5        6.328013   1.000000
    6        7.356720   1.000000
    7        9.589857  -0.017909
    8       10.440464  -0.000000
    9       10.924351  -0.000000
   10       14.475517   0.000000

  0.2000000E+00  0.6666667E-01  0.1333333E+00  0.7111111E-02
    1       -4.419744   1.000000
    2        2.096001   1.000000
    3        3.592005   1.000000
    4        4.322384   1.000000
    5        6.004239   1.000000
    6        7.415802   1.000000
    7        9.789571  -0.000001
    8       10.420462  -0.000000
    9       11.245990  -0.000000
   10       14.181975   0.000000

  0.2666667E+00  0.6666667E-01  0.1333333E+00  0.7111111E-02
    1       -3.841514   1.000000
    2        1.166282   1.000000
    3        3.460663   1.000000
    4        4.144681   1.000000
    5        5.601719   1.000000
    6        7.710751   1.000000
    7        9.930067  -0.000000
    8       10.423431  -0.000000
    9       11.569597  -0.000000
   10       14.249996   0.000000

  0.3333333E+00  0.6666667E-01  0.1333333E+00  0.7111111E-02
    1       -3.159841   1.000000
    2        0.233272   1.000000
    3        3.384930   1.000000
    4        3.926571   1.000000
    5        5.234215   1.000000
    6        8.078825   1.000000
    7        9.994075  -0.000000
    8       10.542811  -0.000000
    9       11.780095  -0.000000
   10       14.607012   0.000000

  0.4000000E+00  0.6666667E-01  0.1333333E+00  0.7111111E-02
    1       -2.395103   1.000000
    2       -0.679802   1.000000
    3        3.371019   1.000000
    4        3.734990   1.000000
    5        4.986480   1.000000
    6        8.361880   1.000000
    7        9.995672  -0.000000
    8       10.589138  -0.000000
    9       12.197288   0.000000
   10       14.615762   0.000000

  0.4666667E+00  0.6666667E-01  0.1333333E+00  0.3555556E-02
    1       -1.622733   1.000000
    2       -1.500990   1.000000
    3        3.384345   1.000000
    4        3.648487   1.000000
    5        4.900034   1.000000
    6        8.463756   1.000000
    7        9.997997  -0.000000
    8       10.577955  -0.000000
    9       12.495164   0.000000
   10       14.440628   0.000000

  0.1333333E+00  0.1333333E+00  0.1333333E+00  0.3555556E-02
    1       -4.493506   1.000000
    2        2.382226   1.000000
    3        3.326856   1.000000
    4        4.390604   1.000000
    5        6.516530   1.000000
    6        6.859991   1.000000
    7       10.114794  -0.000000
    8       10.190654  -0.000000
    9       11.256435  -0.000000
   10       14.452949   0.000000

  0.2000000E+00  0.1333333E+00  0.1333333E+00  0.7111111E-02
    1       -3.980427   1.000000
    2        1.620909   1.000000
    3        3.002190   1.000000
    4        4.246092   1.000000
    5        6.204447   1.000000
    6        7.031490   1.000000
    7        9.881290  -0.000000
    8       10.612421  -0.000000
    9       11.787636  -0.000000
   10       14.168413   0.000000

  0.2666667E+00  0.1333333E+00  0.1333333E+00  0.7111111E-02
    1       -3.353833   1.000000
    2        0.768151   1.000000
    3        2.794490   1.000000
    4        4.043072   1.000000
    5        5.703246   1.000000
    6        7.542253   1.000000
    7        9.724413  -0.000066
    8       10.941301  -0.000000
    9       12.164578   0.000000
   10       14.291100   0.000000

  0.3333333E+00  0.1333333E+00  0.1333333E+00  0.7111111E-02
    1       -2.634555   1.000000
    2       -0.111981   1.000000
    3        2.673683   1.000000
    4        3.864222   1.000000
    5        5.326263   1.000000
    6        7.998889   1.000000
    7        9.668851  -0.001134
    8       11.109057  -0.000000
    9       12.398252   0.000000
   10       14.615476   0.000000

  0.4000000E+00  0.1333333E+00  0.1333333E+00  0.7111111E-02
    1       -1.848954   1.000000
    2       -0.979510   1.000000
    3        2.618671   1.000000
    4        3.764157   1.000000
    5        5.124425   1.000000
    6        8.246126   1.000000
    7        9.711665  -0.000135
    8       11.112022  -0.000000
    9       12.601725   0.000000
   10       14.718647   0.000000

  0.2000000E+00  0.2000000E+00  0.1333333E+00  0.3555556E-02
    1       -3.418590   1.000000
    2        1.077197   1.000000
    3        2.449041   1.000000
    4        4.098013   1.000000
    5        5.953390   1.000000
    6        7.249705   1.000000
    7        9.609776  -0.010451
    8       11.073640  -0.000000
    9       12.503604   0.000000
   10       14.036538   0.000000

  0.2666667E+00  0.2000000E+00  0.1333333E+00  0.7111111E-02
    1       -2.754103   1.000000
    2        0.404964   1.000000
    3        2.058170   1.000000
    4        3.978490   1.000000
    5        5.496181   1.000000
    6        7.799765   1.000000
    7        9.387592   0.747374
    8       11.312163  -0.000000
    9       13.050904   0.000000
   10       14.228564   0.000000
