 running on    4 total cores
 distrk:  each k-point on    4 cores,    1 groups
 distr:  one band on    2 cores,    2 groups
 using from now: INCAR     
 vasp.5.4.4.18Apr17-6-g9f103f2a35 (build Dec  7 2020 12:43:57) complex           
 POSCAR found type information on POSCAR  Mo B 
 POSCAR found :  2 types and       3 ions
 scaLAPACK will be used
 LDA part: xc-table for Pade appr. of Perdew
 POSCAR, INCAR and KPOINTS ok, starting setup
 FFT: planning ...
 WAVECAR not read
 augmentation electrons   12.018373587906812     
 soft         electrons   0.0000000000000000     
 augmentation electrons   12.018373587906812     
 augmentation electrons   12.018373587906812     
 soft         electrons   0.0000000000000000     
 augmentation electrons   12.018373587906812     
 soft         electrons   0.0000000000000000     
 soft         electrons   0.0000000000000000     
 total        electrons   12.018373587906812     
 total        electrons   12.018373587906812     
 total        electrons   12.018373587906812     
 total        electrons   12.018373587906812     
 augmentation electrons   169.75791458332097     
 soft         electrons   0.0000000000000000     
 augmentation electrons   169.75791458332097     
 soft         electrons   0.0000000000000000     
 augmentation electrons   169.75791458332097     
 soft         electrons   0.0000000000000000     
 augmentation electrons   169.75791458332097     
 soft         electrons   0.0000000000000000     
 total        electrons   169.75791458332097     
 total        electrons   169.75791458332097     
 total        electrons   169.75791458332097     
 total        electrons   169.75791458332097     
 entering main loop
       N       E                     dE             d eps       ncg     rms          rms(c)
DAV:   1     0.406832209400E+02    0.40683E+02   -0.57041E+03  4320   0.105E+03
DAV:   2    -0.159199309098E+02   -0.56603E+02   -0.53660E+02  5148   0.218E+02
DAV:   3    -0.181773903973E+02   -0.22575E+01   -0.21506E+01  6216   0.382E+01
DAV:   4    -0.182067290750E+02   -0.29339E-01   -0.29130E-01  5566   0.322E+00
DAV:   5    -0.182071782201E+02   -0.44915E-03   -0.44847E-03  5666   0.307E-01    0.329E+01
RMM:   6    -0.135774137856E+02    0.46298E+01   -0.15073E+01  4347   0.260E+01    0.699E+00
RMM:   7    -0.137162082705E+02   -0.13879E+00   -0.83383E-01  4330   0.613E+00    0.412E+00
RMM:   8    -0.138699362959E+02   -0.15373E+00   -0.88494E-01  4320   0.130E+01    0.525E+00
RMM:   9    -0.138922347029E+02   -0.22298E-01   -0.26485E-01  4330   0.581E+00    0.121E+00
RMM:  10    -0.138956412035E+02   -0.34065E-02   -0.31712E-02  4333   0.251E+00    0.819E-01
RMM:  11    -0.139004018951E+02   -0.47607E-02   -0.17926E-02  4320   0.165E+00    0.424E-01
RMM:  12    -0.139299390279E+02   -0.29537E-01   -0.24915E-01  4320   0.791E+00    0.365E-01
RMM:  13    -0.139302193274E+02   -0.28030E-03   -0.13715E-02  4320   0.199E+00    0.170E-01
RMM:  14    -0.139310378080E+02   -0.81848E-03   -0.92442E-03  4321   0.148E+00    0.669E-02
RMM:  15    -0.139311028257E+02   -0.65018E-04   -0.38776E-04  4355   0.196E-01    0.702E-02
RMM:  16    -0.139311032624E+02   -0.43669E-06   -0.17876E-05  4119   0.323E-02    0.660E-02
RMM:  17    -0.139311251064E+02   -0.21844E-04   -0.73317E-06  4026   0.424E-02    0.597E-02
RMM:  18    -0.139311075363E+02    0.17570E-04   -0.29861E-05  4316   0.842E-02    0.553E-02
RMM:  19    -0.139311945658E+02   -0.87029E-04   -0.31102E-04  4320   0.260E-01    0.126E-02
RMM:  20    -0.139312073497E+02   -0.12784E-04   -0.56929E-05  4227   0.116E-01    0.849E-03
RMM:  21    -0.139312107848E+02   -0.34351E-05   -0.22896E-05  4253   0.683E-02    0.178E-03
RMM:  22    -0.139312107520E+02    0.32787E-07   -0.42434E-07  2721   0.610E-03
   1 F= -.13931211E+02 E0= -.13931268E+02  d E =-.139312E+02
 curvature:   0.00 expect dE= 0.000E+00 dE for cont linesearch  0.000E+00
 trial: gam= 0.00000 g(F)=  0.176E-43 g(S)=  0.110E+01 ort = 0.000E+00 (trialstep = 0.100E+01)
 search vector abs. value=  0.110E+01
 bond charge predicted
       N       E                     dE             d eps       ncg     rms          rms(c)
DAV:   1    -0.144440236523E+02   -0.51281E+00   -0.26987E+01  4354   0.495E+01    0.166E+01
RMM:   2    -0.138458698749E+02    0.59815E+00   -0.17286E+00  4320   0.943E+00    0.592E+00
RMM:   3    -0.138008376113E+02    0.45032E-01   -0.15394E-01  4321   0.364E+00    0.419E+00
RMM:   4    -0.138189319185E+02   -0.18094E-01   -0.17685E-01  4320   0.442E+00    0.930E-01
RMM:   5    -0.138217025481E+02   -0.27706E-02   -0.24027E-02  4341   0.111E+00    0.252E-01
RMM:   6    -0.138193154858E+02    0.23871E-02   -0.75388E-03  4320   0.110E+00    0.653E-02
RMM:   7    -0.138194597086E+02   -0.14422E-03   -0.19082E-03  4336   0.254E-01    0.681E-02
RMM:   8    -0.138193473851E+02    0.11232E-03   -0.24367E-04  4321   0.148E-01    0.182E-02
RMM:   9    -0.138193620030E+02   -0.14618E-04   -0.29095E-05  4274   0.667E-02    0.104E-02
RMM:  10    -0.138193684781E+02   -0.64751E-05   -0.11877E-05  4180   0.432E-02    0.112E-02
RMM:  11    -0.138193719458E+02   -0.34677E-05   -0.89332E-06  3970   0.400E-02    0.635E-03
RMM:  12    -0.138193752066E+02   -0.32608E-05   -0.73107E-06  4011   0.368E-02    0.925E-03
RMM:  13    -0.138193801115E+02   -0.49049E-05   -0.50927E-05  4298   0.104E-01    0.558E-03
RMM:  14    -0.138193807243E+02   -0.61276E-06   -0.93382E-06  4228   0.289E-02
   2 F= -.13819381E+02 E0= -.13819564E+02  d E =0.111830E+00
 trial-energy change:    0.111830  1 .order    0.035905   -1.096526    1.168336
 step:   0.4347(harm=  0.4841)  dis= 0.00000  next Energy=   -14.163314 (dE=-0.232E+00)
 bond charge predicted
       N       E                     dE             d eps       ncg     rms          rms(c)
DAV:   1    -0.143363940513E+02   -0.51701E+00   -0.89557E+00  4364   0.302E+01    0.828E+00
RMM:   2    -0.141621433282E+02    0.17425E+00   -0.28730E-01  4320   0.418E+00    0.273E+00
RMM:   3    -0.141487415060E+02    0.13402E-01   -0.51711E-02  4322   0.174E+00    0.127E+00
RMM:   4    -0.141517195376E+02   -0.29780E-02   -0.35131E-02  4320   0.197E+00    0.527E-01
RMM:   5    -0.141529344658E+02   -0.12149E-02   -0.39002E-03  4344   0.627E-01    0.114E-01
RMM:   6    -0.141526849148E+02    0.24955E-03   -0.90648E-04  4320   0.433E-01    0.635E-02
RMM:   7    -0.141525881208E+02    0.96794E-04   -0.10094E-03  4322   0.308E-01    0.280E-02
RMM:   8    -0.141525699388E+02    0.18182E-04   -0.88638E-05  4320   0.120E-01    0.886E-03
RMM:   9    -0.141525786718E+02   -0.87330E-05   -0.22440E-05  4320   0.623E-02    0.112E-02
RMM:  10    -0.141525806333E+02   -0.19615E-05   -0.45797E-06  3637   0.288E-02    0.781E-03
RMM:  11    -0.141525824169E+02   -0.17836E-05   -0.14236E-05  4140   0.537E-02    0.349E-03
RMM:  12    -0.141525819507E+02    0.46614E-06   -0.36158E-06  3344   0.300E-02
   3 F= -.14152582E+02 E0= -.14152620E+02  d E =-.221371E+00
 curvature:  -0.24 expect dE=-0.240E-02 dE for cont linesearch -0.150E-03
 ZBRENT: interpolating
 opt :   0.4246  next Energy=   -14.152715 (dE=-0.222E+00)
 bond charge predicted
       N       E                     dE             d eps       ncg     rms          rms(c)
DAV:   1    -0.141527843652E+02   -0.20195E-03   -0.28945E-03  4594   0.539E-01    0.175E-01
RMM:   2    -0.141527317825E+02    0.52583E-04   -0.10333E-04  4320   0.765E-02    0.635E-02
RMM:   3    -0.141527313996E+02    0.38290E-06   -0.16147E-05  4324   0.356E-02    0.339E-02
RMM:   4    -0.141527354384E+02   -0.40389E-05   -0.13721E-05  4320   0.429E-02    0.111E-02
RMM:   5    -0.141527358694E+02   -0.43100E-06   -0.17407E-06  2707   0.173E-02
   4 F= -.14152736E+02 E0= -.14152773E+02  d E =-.221525E+00
 curvature:  -0.21 expect dE=-0.189E-02 dE for cont linesearch -0.132E-05
 ZBRENT: interpolating
 opt :   0.4235  next Energy=   -14.152737 (dE=-0.222E+00)
 bond charge predicted
       N       E                     dE             d eps       ncg     rms          rms(c)
DAV:   1    -0.141527384786E+02   -0.30402E-05   -0.37172E-05  4828   0.617E-02    0.184E-02
RMM:   2    -0.141527379502E+02    0.52838E-06   -0.10901E-06  2354   0.909E-03    0.565E-03
RMM:   3    -0.141527380874E+02   -0.13721E-06   -0.22049E-07  2193   0.478E-03    0.342E-03
RMM:   4    -0.141527382906E+02   -0.20318E-06   -0.16237E-07  2145   0.442E-03    0.105E-03
RMM:   5    -0.141527383027E+02   -0.12080E-07   -0.31191E-08  1434   0.236E-03
   5 F= -.14152738E+02 E0= -.14152776E+02  d E =-.221528E+00
 curvature:  -0.24 expect dE=-0.210E-02 dE for cont linesearch -0.109E-07
 trial: gam= 0.00831 g(F)=  0.788E-44 g(S)=  0.889E-02 ort =-0.225E-03 (trialstep = 0.885E+00)
 search vector abs. value=  0.896E-02
 bond charge predicted
       N       E                     dE             d eps       ncg     rms          rms(c)
DAV:   1    -0.141586234270E+02   -0.58851E-02   -0.21417E-01  4404   0.400E+00    0.229E-01
RMM:   2    -0.141577362154E+02    0.88721E-03   -0.51070E-03  4324   0.685E-01    0.258E-01
RMM:   3    -0.141576543253E+02    0.81890E-04   -0.27711E-04  4388   0.157E-01    0.171E-01
RMM:   4    -0.141577030577E+02   -0.48732E-04   -0.57642E-04  4320   0.317E-01    0.418E-02
RMM:   5    -0.141577095668E+02   -0.65091E-05   -0.12312E-05  4097   0.301E-02    0.417E-02
RMM:   6    -0.141577676453E+02   -0.58079E-04   -0.66976E-05  4295   0.123E-01    0.379E-02
RMM:   7    -0.141578799626E+02   -0.11232E-03   -0.33691E-04  4321   0.281E-01    0.234E-02
RMM:   8    -0.141579884842E+02   -0.10852E-03   -0.14537E-03  4320   0.576E-01    0.107E-02
RMM:   9    -0.141579935515E+02   -0.50673E-05   -0.37362E-05  4140   0.343E-02    0.333E-03
RMM:  10    -0.141579974851E+02   -0.39337E-05   -0.20477E-05  4271   0.644E-02    0.365E-03
RMM:  11    -0.141580003492E+02   -0.28641E-05   -0.32157E-05  4271   0.841E-02    0.333E-03
RMM:  12    -0.141580010597E+02   -0.71047E-06   -0.79718E-06  4026   0.370E-02
   6 F= -.14158001E+02 E0= -.14157893E+02  d E =-.526276E-02
 trial-energy change:   -0.005263  1 .order   -0.005426   -0.007862   -0.002989
 step:   1.8009(harm=  1.4272)  dis= 0.00000  next Energy=   -14.159368 (dE=-0.663E-02)
 bond charge predicted
       N       E                     dE             d eps       ncg     rms          rms(c)
DAV:   1    -0.141592307758E+02   -0.12304E-02   -0.22782E-01  4422   0.411E+00    0.237E-01
RMM:   2    -0.141583135225E+02    0.91725E-03   -0.54744E-03  4324   0.717E-01    0.269E-01
RMM:   3    -0.141582488683E+02    0.64654E-04   -0.31128E-04  4389   0.173E-01    0.182E-01
RMM:   4    -0.141583634668E+02   -0.11460E-03   -0.72804E-04  4320   0.365E-01    0.482E-02
RMM:   5    -0.141583806897E+02   -0.17223E-04   -0.22675E-05  4307   0.476E-02    0.477E-02
RMM:   6    -0.141585878446E+02   -0.20715E-03   -0.65814E-04  4320   0.393E-01    0.308E-02
RMM:   7    -0.141586331505E+02   -0.45306E-04   -0.10840E-04  4350   0.136E-01    0.205E-02
RMM:   8    -0.141587363430E+02   -0.10319E-03   -0.19514E-03  4320   0.674E-01    0.134E-02
RMM:   9    -0.141587418089E+02   -0.54658E-05   -0.58952E-05  4312   0.118E-01    0.510E-03
RMM:  10    -0.141587415321E+02    0.27676E-06   -0.15995E-06  3024   0.109E-02
   7 F= -.14158742E+02 E0= -.14158870E+02  d E =-.600323E-02
 curvature:  -0.38 expect dE=-0.206E-03 dE for cont linesearch -0.172E-03
 ZBRENT: interpolating
 opt :   1.4580  next Energy=   -14.159088 (dE=-0.635E-02)
 bond charge predicted
       N       E                     dE             d eps       ncg     rms          rms(c)
DAV:   1    -0.141591894992E+02   -0.44769E-03   -0.31861E-02  4366   0.154E+00    0.908E-02
RMM:   2    -0.141590367985E+02    0.15270E-03   -0.84108E-04  4324   0.276E-01    0.103E-01
RMM:   3    -0.141590250909E+02    0.11708E-04   -0.41620E-05  4384   0.517E-02    0.687E-02
RMM:   4    -0.141590282692E+02   -0.31784E-05   -0.54084E-05  4320   0.926E-02    0.127E-02
RMM:   5    -0.141590282927E+02   -0.23462E-07   -0.89385E-07  2901   0.624E-03
   8 F= -.14159028E+02 E0= -.14159106E+02  d E =-.628999E-02
 curvature:  -0.76 expect dE=-0.342E-04 dE for cont linesearch -0.131E-04
 trial: gam=-0.03355 g(F)=  0.214E-43 g(S)=  0.450E-04 ort = 0.392E-03 (trialstep = 0.999E+00)
 search vector abs. value=  0.288E-04
 reached required accuracy - stopping structural energy minimisation
 writing wavefunctions
 augmentation electrons   1.1776258519534042     
 soft         electrons   10.843932402113980     
 augmentation electrons   1.1776258519534042     
 soft         electrons   10.843932402113980     
 augmentation electrons   1.1776258519534042     
 augmentation electrons   1.1776258519534042     
 soft         electrons   10.843932402113980     
 soft         electrons   10.843932402113980     
 total        electrons   12.021558254067385     
 total        electrons   12.021558254067385     
 total        electrons   12.021558254067385     
 total        electrons   12.021558254067385     
