   56   56    1    1
  0.1275712E+02  0.6078000E-09  0.6078000E-09  0.2233000E-08  0.5000000E-15
   1.0000000000000000E-004
  CAR 
 Name                                    
    204     41    132

  0.3742002E-15  0.3742002E-15  0.1262379E-14  0.1234568E-01
    1      -11.087254   1.000000
    2      -10.520590   1.000000
    3       -9.725409   1.000000
    4       -8.707680   1.000000
    5       -8.239333   1.000000
    6       -8.198956   1.000000
    7       -7.821255   1.000000
    8       -7.755277   1.000000
    9       -7.617162   1.000000
   10       -7.492139   1.000000
   11       -7.345076   1.000000
   12       -7.298977   1.000000
   13       -7.283641   1.000000
   14       -7.280385   1.000000
   15       -6.962993   1.000000
   16       -6.941801   1.000000
   17       -6.909724   1.000000
   18       -6.776271   1.000000
   19       -6.649807   1.000000
   20       -6.516711   1.000000
   21       -6.387415   1.000000
   22       -5.960358   1.000000
   23       -5.779814   1.000000
   24       -5.755312   1.000000
   25       -5.516251   1.000000
   26       -5.463749   1.000000
   27       -5.407619   1.000000
   28       -5.382507   1.000000
   29       -5.183539   1.000000
   30       -4.883895   1.000000
   31       -4.485007   1.000000
   32       -4.251278   1.000000
   33       -4.153411   1.000000
   34       -4.121499   1.000000
   35       -3.961572   1.000000
   36       -3.930352   1.000000
   37       -3.747046   1.000000
   38       -3.151580   1.000000
   39       -2.972286   1.000000
   40       -2.814737   1.000000
   41       -2.750927   1.000000
   42       -2.624145   1.000000
   43       -2.433519   1.000000
   44       -2.326489   1.000000
   45       -2.225245   1.000000
   46       -2.157443   1.000000
   47       -2.065586   1.000000
   48       -1.946499   1.000000
   49       -1.861760   1.000000
   50       -1.771456   1.000000
   51       -1.601385   1.000000
   52       -1.593519   1.000000
   53       -1.537319   1.000000
   54       -1.504650   1.000000
   55       -1.445376   1.000000
   56       -1.394337   1.000000
   57       -1.348502   1.000000
   58       -1.275462   1.000000
   59       -1.205108   1.000000
   60       -1.171641   1.000000
   61       -1.116486   1.000000
   62       -1.070940   1.000000
   63       -1.030981   1.000000
   64       -0.897925   1.000000
   65       -0.723595   1.000000
   66       -0.703990   1.000000
   67       -0.670802   1.000000
   68       -0.509978   1.000000
   69       -0.454717   1.000000
   70       -0.429604   1.000000
   71       -0.386939   1.000000
   72       -0.350462   1.000000
   73       -0.301744   1.000000
   74       -0.211426   1.000000
   75       -0.045018   1.000000
   76        0.183917   1.000000
   77        0.231280   1.000000
   78        0.264190   1.000000
   79        0.371043   1.000000
   80        0.566239   1.000000
   81        0.780334   1.000000
   82        0.809941   1.000000
   83        0.836854   1.000000
   84        1.003650   1.000000
   85        1.448027   1.000000
   86        1.480360   1.000000
   87        1.630629   1.000000
   88        1.697307   1.000000
   89        1.744503   1.000000
   90        1.782665   1.000000
   91        1.886792   1.000000
   92        1.900852   1.000000
   93        1.977803   1.000000
   94        2.021785   1.000000
   95        2.064012   1.000000
   96        2.076916   1.000000
   97        2.496719   1.000006
   98        2.590791   1.000107
   99        2.953705   1.034772
  100        3.080233   0.885193
  101        3.165113   0.587324
  102        3.291006   0.116133
  103        3.351292   0.003342
  104        3.500711  -0.024261
  105        3.563846  -0.011224
  106        3.596088  -0.006755
  107        3.668942  -0.001676
  108        3.968541  -0.000000
  109        3.980210  -0.000000
  110        3.999038  -0.000000
  111        4.020581  -0.000000
  112        4.124254  -0.000000
  113        4.280123  -0.000000
  114        4.293694  -0.000000
  115        4.300058  -0.000000
  116        4.356624  -0.000000
  117        4.401684  -0.000000
  118        4.496452  -0.000000
  119        4.521788  -0.000000
  120        4.570278  -0.000000
  121        4.644862  -0.000000
  122        4.678318  -0.000000
  123        4.728266  -0.000000
  124        4.797875  -0.000000
  125        5.103263  -0.000000
  126        5.505712  -0.000000
  127        5.523038  -0.000000
  128        5.714600  -0.000000
  129        5.982725  -0.000000
  130        6.396364  -0.000000
  131        6.418107  -0.000000
  132        6.574465  -0.000000

  0.1111111E+00  0.3687552E-15  0.1262379E-14  0.2469136E-01
    1      -11.029634   1.000000
    2      -10.468475   1.000000
    3       -9.685683   1.000000
    4       -8.679256   1.000000
    5       -8.233050   1.000000
    6       -8.202288   1.000000
    7       -7.935302   1.000000
    8       -7.897602   1.000000
    9       -7.791908   1.000000
   10       -7.685882   1.000000
   11       -7.582856   1.000000
   12       -7.530613   1.000000
   13       -7.407448   1.000000
   14       -7.372392   1.000000
   15       -6.875778   1.000000
   16       -6.733259   1.000000
   17       -6.684820   1.000000
   18       -6.552356   1.000000
   19       -6.435402   1.000000
   20       -6.383207   1.000000
   21       -6.266819   1.000000
   22       -6.016578   1.000000
   23       -5.752439   1.000000
   24       -5.674296   1.000000
   25       -5.566019   1.000000
   26       -5.440946   1.000000
   27       -5.383625   1.000000
   28       -5.264361   1.000000
   29       -5.176772   1.000000
   30       -4.832283   1.000000
   31       -4.462033   1.000000
   32       -4.138059   1.000000
   33       -4.089172   1.000000
   34       -3.977246   1.000000
   35       -3.888294   1.000000
   36       -3.822967   1.000000
   37       -3.593414   1.000000
   38       -3.135929   1.000000
   39       -2.963004   1.000000
   40       -2.785332   1.000000
   41       -2.726417   1.000000
   42       -2.666159   1.000000
   43       -2.526663   1.000000
   44       -2.291131   1.000000
   45       -2.271539   1.000000
   46       -2.190476   1.000000
   47       -2.111081   1.000000
   48       -2.046725   1.000000
   49       -1.974556   1.000000
   50       -1.847118   1.000000
   51       -1.749481   1.000000
   52       -1.628850   1.000000
   53       -1.521763   1.000000
   54       -1.492110   1.000000
   55       -1.474484   1.000000
   56       -1.355757   1.000000
   57       -1.316843   1.000000
   58       -1.236311   1.000000
   59       -1.202201   1.000000
   60       -1.142947   1.000000
   61       -1.102012   1.000000
   62       -1.077655   1.000000
   63       -0.998007   1.000000
   64       -0.925948   1.000000
   65       -0.798574   1.000000
   66       -0.764872   1.000000
   67       -0.717882   1.000000
   68       -0.651342   1.000000
   69       -0.564672   1.000000
   70       -0.496595   1.000000
   71       -0.451324   1.000000
   72       -0.350403   1.000000
   73       -0.237849   1.000000
   74       -0.172062   1.000000
   75       -0.055929   1.000000
   76        0.096084   1.000000
   77        0.195333   1.000000
   78        0.218049   1.000000
   79        0.397186   1.000000
   80        0.463382   1.000000
   81        0.511254   1.000000
   82        0.772875   1.000000
   83        0.828210   1.000000
   84        0.982846   1.000000
   85        1.296937   1.000000
   86        1.350090   1.000000
   87        1.452756   1.000000
   88        1.564111   1.000000
   89        1.683627   1.000000
   90        1.778841   1.000000
   91        1.883451   1.000000
   92        1.899877   1.000000
   93        1.925169   1.000000
   94        1.977530   1.000000
   95        2.072214   1.000000
   96        2.182356   1.000000
   97        2.725790   1.002695
   98        2.800430   1.010042
   99        2.996925   1.018402
  100        3.043703   0.963605
  101        3.142137   0.680249
  102        3.197720   0.449970
  103        3.281707   0.141558
  104        3.367113  -0.012456
  105        3.542387  -0.015111
  106        3.745402  -0.000277
  107        3.862260  -0.000009
  108        3.954999  -0.000000
  109        3.981626  -0.000000
  110        4.008235  -0.000000
  111        4.055346  -0.000000
  112        4.111423  -0.000000
  113        4.203367  -0.000000
  114        4.246300  -0.000000
  115        4.298748  -0.000000
  116        4.322353  -0.000000
  117        4.374591  -0.000000
  118        4.395736  -0.000000
  119        4.432289  -0.000000
  120        4.472435  -0.000000
  121        4.585050  -0.000000
  122        4.592188  -0.000000
  123        4.629882  -0.000000
  124        4.699842  -0.000000
  125        4.732938  -0.000000
  126        4.775443  -0.000000
  127        5.135220  -0.000000
  128        5.363245  -0.000000
  129        5.436647  -0.000000
  130        6.093438  -0.000000
  131        6.508913  -0.000000
  132        6.651486  -0.000000

  0.2222222E+00  0.3503827E-15  0.1262379E-14  0.2469136E-01
    1      -10.858951   1.000000
    2      -10.314731   1.000000
    3       -9.570342   1.000000
    4       -8.620096   1.000000
    5       -8.524364   1.000000
    6       -8.390932   1.000000
    7       -8.290435   1.000000
    8       -8.088885   1.000000
    9       -7.898694   1.000000
   10       -7.781969   1.000000
   11       -7.735939   1.000000
   12       -7.711263   1.000000
   13       -7.608702   1.000000
   14       -7.552576   1.000000
   15       -6.907821   1.000000
   16       -6.595277   1.000000
   17       -6.573824   1.000000
   18       -6.356184   1.000000
   19       -6.299759   1.000000
   20       -6.175259   1.000000
   21       -6.061340   1.000000
   22       -5.700734   1.000000
   23       -5.599586   1.000000
   24       -5.469223   1.000000
   25       -5.452923   1.000000
   26       -5.316537   1.000000
   27       -5.222202   1.000000
   28       -5.183783   1.000000
   29       -4.842912   1.000000
   30       -4.634905   1.000000
   31       -4.373984   1.000000
   32       -3.973512   1.000000
   33       -3.944785   1.000000
   34       -3.775729   1.000000
   35       -3.645320   1.000000
   36       -3.450916   1.000000
   37       -3.214592   1.000000
   38       -3.107076   1.000000
   39       -2.972425   1.000000
   40       -2.887561   1.000000
   41       -2.816719   1.000000
   42       -2.710768   1.000000
   43       -2.674900   1.000000
   44       -2.630954   1.000000
   45       -2.485859   1.000000
   46       -2.217735   1.000000
   47       -2.191926   1.000000
   48       -2.108871   1.000000
   49       -1.981014   1.000000
   50       -1.810036   1.000000
   51       -1.764863   1.000000
   52       -1.717785   1.000000
   53       -1.566543   1.000000
   54       -1.540102   1.000000
   55       -1.479411   1.000000
   56       -1.456410   1.000000
   57       -1.407920   1.000000
   58       -1.292307   1.000000
   59       -1.237004   1.000000
   60       -1.189152   1.000000
   61       -1.119732   1.000000
   62       -1.086410   1.000000
   63       -1.072811   1.000000
   64       -1.042904   1.000000
   65       -0.954506   1.000000
   66       -0.911129   1.000000
   67       -0.808165   1.000000
   68       -0.760742   1.000000
   69       -0.723492   1.000000
   70       -0.657910   1.000000
   71       -0.564451   1.000000
   72       -0.414927   1.000000
   73       -0.340467   1.000000
   74       -0.235897   1.000000
   75       -0.160364   1.000000
   76       -0.139068   1.000000
   77        0.062493   1.000000
   78        0.240209   1.000000
   79        0.320894   1.000000
   80        0.382119   1.000000
   81        0.514473   1.000000
   82        0.640785   1.000000
   83        0.768259   1.000000
   84        0.928624   1.000000
   85        0.982508   1.000000
   86        1.160076   1.000000
   87        1.301557   1.000000
   88        1.387713   1.000000
   89        1.588225   1.000000
   90        1.691517   1.000000
   91        1.734311   1.000000
   92        1.852976   1.000000
   93        1.864424   1.000000
   94        1.882774   1.000000
   95        2.170758   1.000000
   96        2.249625   1.000000
   97        2.614454   1.000203
   98        2.710476   1.001971
   99        2.799135   1.009846
  100        3.098950   0.832104
  101        3.149667   0.650455
  102        3.362155  -0.008043
  103        3.462174  -0.032427
  104        3.522907  -0.019198
  105        3.650104  -0.002480
  106        3.726801  -0.000442
  107        3.791654  -0.000079
  108        3.841880  -0.000018
  109        3.859956  -0.000010
  110        3.901541  -0.000003
  111        3.982728  -0.000000
  112        4.034910  -0.000000
  113        4.100993  -0.000000
  114        4.144144  -0.000000
  115        4.188546  -0.000000
  116        4.205959  -0.000000
  117        4.293515  -0.000000
  118        4.307569  -0.000000
  119        4.393343  -0.000000
  120        4.456209  -0.000000
  121        4.499899  -0.000000
  122        4.554279  -0.000000
  123        4.627336  -0.000000
  124        4.694711  -0.000000
  125        4.730439  -0.000000
  126        4.860826  -0.000000
  127        4.922657  -0.000000
  128        4.980107  -0.000000
  129        5.246537  -0.000000
  130        5.383685  -0.000000
  131        5.625418  -0.000000
  132        6.355847  -0.000000

  0.3333333E+00  0.3767071E-15  0.1262379E-14  0.2469136E-01
    1      -10.582394   1.000000
    2      -10.067704   1.000000
    3       -9.393354   1.000000
    4       -9.152873   1.000000
    5       -8.835334   1.000000
    6       -8.559423   1.000000
    7       -8.467493   1.000000
    8       -8.004219   1.000000
    9       -7.939284   1.000000
   10       -7.901271   1.000000
   11       -7.833061   1.000000
   12       -7.760182   1.000000
   13       -7.713558   1.000000
   14       -7.640537   1.000000
   15       -7.080709   1.000000
   16       -6.935231   1.000000
   17       -6.740999   1.000000
   18       -6.146036   1.000000
   19       -6.049569   1.000000
   20       -5.842704   1.000000
   21       -5.683105   1.000000
   22       -5.550756   1.000000
   23       -5.456541   1.000000
   24       -5.446055   1.000000
   25       -5.266302   1.000000
   26       -5.211258   1.000000
   27       -4.705712   1.000000
   28       -4.613578   1.000000
   29       -4.352772   1.000000
   30       -4.259004   1.000000
   31       -4.182453   1.000000
   32       -3.777426   1.000000
   33       -3.683729   1.000000
   34       -3.565708   1.000000
   35       -3.419828   1.000000
   36       -3.351809   1.000000
   37       -3.256201   1.000000
   38       -3.203394   1.000000
   39       -3.147142   1.000000
   40       -3.118965   1.000000
   41       -3.061323   1.000000
   42       -2.937339   1.000000
   43       -2.768798   1.000000
   44       -2.468301   1.000000
   45       -2.399256   1.000000
   46       -2.343956   1.000000
   47       -2.138775   1.000000
   48       -2.066991   1.000000
   49       -2.005733   1.000000
   50       -1.942828   1.000000
   51       -1.852190   1.000000
   52       -1.787562   1.000000
   53       -1.766258   1.000000
   54       -1.698225   1.000000
   55       -1.667468   1.000000
   56       -1.553336   1.000000
   57       -1.456459   1.000000
   58       -1.434999   1.000000
   59       -1.356373   1.000000
   60       -1.327923   1.000000
   61       -1.270660   1.000000
   62       -1.225585   1.000000
   63       -1.167150   1.000000
   64       -1.135113   1.000000
   65       -1.078719   1.000000
   66       -0.995712   1.000000
   67       -0.939771   1.000000
   68       -0.850305   1.000000
   69       -0.772068   1.000000
   70       -0.721223   1.000000
   71       -0.635298   1.000000
   72       -0.535747   1.000000
   73       -0.437867   1.000000
   74       -0.378316   1.000000
   75       -0.220639   1.000000
   76       -0.149727   1.000000
   77       -0.125412   1.000000
   78        0.032546   1.000000
   79        0.168638   1.000000
   80        0.393571   1.000000
   81        0.488967   1.000000
   82        0.710110   1.000000
   83        0.729913   1.000000
   84        0.858389   1.000000
   85        0.950524   1.000000
   86        1.111581   1.000000
   87        1.270049   1.000000
   88        1.343032   1.000000
   89        1.472139   1.000000
   90        1.544993   1.000000
   91        1.633007   1.000000
   92        1.731833   1.000000
   93        1.793747   1.000000
   94        1.840810   1.000000
   95        2.059918   1.000000
   96        2.388691   1.000000
   97        2.466349   1.000002
   98        2.519608   1.000013
   99        2.589284   1.000103
  100        2.971669   1.031014
  101        3.111849   0.790706
  102        3.215373   0.376669
  103        3.285317   0.131434
  104        3.399481  -0.030823
  105        3.444771  -0.034777
  106        3.566811  -0.010744
  107        3.617359  -0.004653
  108        3.711542  -0.000640
  109        3.782326  -0.000103
  110        3.846600  -0.000015
  111        3.882157  -0.000005
  112        3.930015  -0.000001
  113        3.974623  -0.000000
  114        4.071761  -0.000000
  115        4.122837  -0.000000
  116        4.197817  -0.000000
  117        4.263853  -0.000000
  118        4.299629  -0.000000
  119        4.366371  -0.000000
  120        4.426050  -0.000000
  121        4.463803  -0.000000
  122        4.568651  -0.000000
  123        4.701846  -0.000000
  124        4.718095  -0.000000
  125        4.826866  -0.000000
  126        4.919027  -0.000000
  127        5.001015  -0.000000
  128        5.095609  -0.000000
  129        5.308158  -0.000000
  130        5.542802  -0.000000
  131        5.769698  -0.000000
  132        6.252516  -0.000000

  0.4444444E+00  0.3698634E-15  0.1262379E-14  0.2469136E-01
    1      -10.223380   1.000000
    2       -9.764072   1.000000
    3       -9.660675   1.000000
    4       -9.323044   1.000000
    5       -9.127546   1.000000
    6       -8.820323   1.000000
    7       -8.376367   1.000000
    8       -8.051238   1.000000
    9       -8.002098   1.000000
   10       -7.913762   1.000000
   11       -7.792589   1.000000
   12       -7.766525   1.000000
   13       -7.675439   1.000000
   14       -7.624753   1.000000
   15       -7.306433   1.000000
   16       -7.248357   1.000000
   17       -6.802397   1.000000
   18       -6.052619   1.000000
   19       -5.944800   1.000000
   20       -5.668027   1.000000
   21       -5.553409   1.000000
   22       -5.349868   1.000000
   23       -5.335575   1.000000
   24       -5.223836   1.000000
   25       -5.168993   1.000000
   26       -5.111022   1.000000
   27       -4.173164   1.000000
   28       -4.108455   1.000000
   29       -3.965447   1.000000
   30       -3.862329   1.000000
   31       -3.816060   1.000000
   32       -3.754555   1.000000
   33       -3.679278   1.000000
   34       -3.606887   1.000000
   35       -3.503689   1.000000
   36       -3.410576   1.000000
   37       -3.376891   1.000000
   38       -3.302653   1.000000
   39       -3.228420   1.000000
   40       -3.146290   1.000000
   41       -3.103580   1.000000
   42       -3.032488   1.000000
   43       -2.940946   1.000000
   44       -2.837565   1.000000
   45       -2.459378   1.000000
   46       -2.369992   1.000000
   47       -2.198290   1.000000
   48       -2.149364   1.000000
   49       -2.073156   1.000000
   50       -1.936071   1.000000
   51       -1.906584   1.000000
   52       -1.794231   1.000000
   53       -1.756514   1.000000
   54       -1.717717   1.000000
   55       -1.669247   1.000000
   56       -1.601966   1.000000
   57       -1.551306   1.000000
   58       -1.458931   1.000000
   59       -1.444811   1.000000
   60       -1.395021   1.000000
   61       -1.361842   1.000000
   62       -1.303564   1.000000
   63       -1.295077   1.000000
   64       -1.238563   1.000000
   65       -1.202214   1.000000
   66       -1.043263   1.000000
   67       -0.964999   1.000000
   68       -0.912296   1.000000
   69       -0.823252   1.000000
   70       -0.795189   1.000000
   71       -0.652084   1.000000
   72       -0.557940   1.000000
   73       -0.488541   1.000000
   74       -0.450792   1.000000
   75       -0.280610   1.000000
   76       -0.202645   1.000000
   77       -0.181947   1.000000
   78       -0.117941   1.000000
   79        0.070556   1.000000
   80        0.404423   1.000000
   81        0.555910   1.000000
   82        0.604859   1.000000
   83        0.689196   1.000000
   84        0.906609   1.000000
   85        1.035066   1.000000
   86        1.109874   1.000000
   87        1.293396   1.000000
   88        1.317260   1.000000
   89        1.386404   1.000000
   90        1.495651   1.000000
   91        1.591079   1.000000
   92        1.698562   1.000000
   93        1.791972   1.000000
   94        1.819083   1.000000
   95        2.146165   1.000000
   96        2.333143   1.000000
   97        2.425282   1.000001
   98        2.503933   1.000008
   99        2.597769   1.000130
  100        2.665793   1.000731
  101        2.728572   1.002848
  102        2.957297   1.034306
  103        3.098291   0.834119
  104        3.214098   0.381880
  105        3.347903   0.007402
  106        3.414767  -0.034353
  107        3.550542  -0.013550
  108        3.613545  -0.004985
  109        3.645940  -0.002696
  110        3.753442  -0.000225
  111        3.808093  -0.000050
  112        3.832037  -0.000024
  113        3.850175  -0.000014
  114        3.972246  -0.000000
  115        4.033391  -0.000000
  116        4.119805  -0.000000
  117        4.192199  -0.000000
  118        4.265716  -0.000000
  119        4.330579  -0.000000
  120        4.433362  -0.000000
  121        4.534379  -0.000000
  122        4.692115  -0.000000
  123        4.750010  -0.000000
  124        4.816782  -0.000000
  125        4.880899  -0.000000
  126        5.037806  -0.000000
  127        5.131691  -0.000000
  128        5.213410  -0.000000
  129        5.438765  -0.000000
  130        5.544809  -0.000000
  131        5.690398  -0.000000
  132        5.817701  -0.000000

  0.3742002E-15  0.1111111E+00  0.1262379E-14  0.2469136E-01
    1      -11.029636   1.000000
    2      -10.468456   1.000000
    3       -9.685477   1.000000
    4       -8.672930   1.000000
    5       -8.233011   1.000000
    6       -8.202087   1.000000
    7       -7.934773   1.000000
    8       -7.897267   1.000000
    9       -7.792007   1.000000
   10       -7.684000   1.000000
   11       -7.583742   1.000000
   12       -7.531579   1.000000
   13       -7.405995   1.000000
   14       -7.373723   1.000000
   15       -6.933233   1.000000
   16       -6.736607   1.000000
   17       -6.708528   1.000000
   18       -6.549176   1.000000
   19       -6.458321   1.000000
   20       -6.363926   1.000000
   21       -6.171085   1.000000
   22       -5.968075   1.000000
   23       -5.773929   1.000000
   24       -5.703901   1.000000
   25       -5.563221   1.000000
   26       -5.441957   1.000000
   27       -5.393756   1.000000
   28       -5.270330   1.000000
   29       -5.158342   1.000000
   30       -4.830236   1.000000
   31       -4.501560   1.000000
   32       -4.144595   1.000000
   33       -4.089747   1.000000
   34       -3.968416   1.000000
   35       -3.914950   1.000000
   36       -3.762546   1.000000
   37       -3.606236   1.000000
   38       -3.135411   1.000000
   39       -2.961921   1.000000
   40       -2.792995   1.000000
   41       -2.717141   1.000000
   42       -2.668039   1.000000
   43       -2.530668   1.000000
   44       -2.291959   1.000000
   45       -2.271012   1.000000
   46       -2.186269   1.000000
   47       -2.120724   1.000000
   48       -2.038982   1.000000
   49       -1.967228   1.000000
   50       -1.842054   1.000000
   51       -1.780291   1.000000
   52       -1.615674   1.000000
   53       -1.520078   1.000000
   54       -1.487472   1.000000
   55       -1.476655   1.000000
   56       -1.347601   1.000000
   57       -1.313849   1.000000
   58       -1.258487   1.000000
   59       -1.189301   1.000000
   60       -1.143367   1.000000
   61       -1.093141   1.000000
   62       -1.079110   1.000000
   63       -1.001047   1.000000
   64       -0.926884   1.000000
   65       -0.780956   1.000000
   66       -0.765151   1.000000
   67       -0.711643   1.000000
   68       -0.658205   1.000000
   69       -0.568300   1.000000
   70       -0.516395   1.000000
   71       -0.410989   1.000000
   72       -0.366647   1.000000
   73       -0.240447   1.000000
   74       -0.175758   1.000000
   75       -0.051218   1.000000
   76        0.064240   1.000000
   77        0.146545   1.000000
   78        0.241289   1.000000
   79        0.382083   1.000000
   80        0.469285   1.000000
   81        0.548398   1.000000
   82        0.727850   1.000000
   83        0.853426   1.000000
   84        0.981486   1.000000
   85        1.296839   1.000000
   86        1.347041   1.000000
   87        1.455420   1.000000
   88        1.581185   1.000000
   89        1.719566   1.000000
   90        1.773210   1.000000
   91        1.872558   1.000000
   92        1.897527   1.000000
   93        1.926172   1.000000
   94        1.977292   1.000000
   95        2.088307   1.000000
   96        2.181077   1.000000
   97        2.663232   1.000688
   98        2.817108   1.012804
   99        2.982141   1.026957
  100        3.052392   0.947976
  101        3.167157   0.578813
  102        3.223965   0.342018
  103        3.256432   0.221042
  104        3.348492   0.006678
  105        3.548550  -0.013922
  106        3.780395  -0.000109
  107        3.857973  -0.000011
  108        3.961789  -0.000000
  109        3.972712  -0.000000
  110        4.009000  -0.000000
  111        4.056502  -0.000000
  112        4.117965  -0.000000
  113        4.194071  -0.000000
  114        4.268613  -0.000000
  115        4.292333  -0.000000
  116        4.316058  -0.000000
  117        4.373223  -0.000000
  118        4.395366  -0.000000
  119        4.432560  -0.000000
  120        4.463240  -0.000000
  121        4.580145  -0.000000
  122        4.606342  -0.000000
  123        4.622944  -0.000000
  124        4.703706  -0.000000
  125        4.748161  -0.000000
  126        4.779018  -0.000000
  127        5.169710  -0.000000
  128        5.215001  -0.000000
  129        5.593895  -0.000000
  130        6.023896  -0.000000
  131        6.491662  -0.000000
  132        6.556565  -0.000000

  0.1111111E+00  0.1111111E+00  0.1262379E-14  0.2469136E-01
    1      -10.915210   1.000000
    2      -10.365491   1.000000
    3       -9.608145   1.000000
    4       -8.619533   1.000000
    5       -8.296380   1.000000
    6       -8.281850   1.000000
    7       -8.164099   1.000000
    8       -8.154558   1.000000
    9       -7.991390   1.000000
   10       -7.915005   1.000000
   11       -7.854870   1.000000
   12       -7.691733   1.000000
   13       -7.407248   1.000000
   14       -7.054515   1.000000
   15       -6.975133   1.000000
   16       -6.873632   1.000000
   17       -6.507143   1.000000
   18       -6.468867   1.000000
   19       -6.348148   1.000000
   20       -6.320055   1.000000
   21       -5.894906   1.000000
   22       -5.790897   1.000000
   23       -5.682525   1.000000
   24       -5.578256   1.000000
   25       -5.448020   1.000000
   26       -5.324728   1.000000
   27       -5.231428   1.000000
   28       -5.110311   1.000000
   29       -5.025557   1.000000
   30       -4.727070   1.000000
   31       -4.620120   1.000000
   32       -4.238905   1.000000
   33       -3.836486   1.000000
   34       -3.700275   1.000000
   35       -3.666336   1.000000
   36       -3.536017   1.000000
   37       -3.375765   1.000000
   38       -3.139592   1.000000
   39       -2.992299   1.000000
   40       -2.863152   1.000000
   41       -2.765890   1.000000
   42       -2.689862   1.000000
   43       -2.644768   1.000000
   44       -2.499842   1.000000
   45       -2.307294   1.000000
   46       -2.206527   1.000000
   47       -2.149634   1.000000
   48       -2.065680   1.000000
   49       -1.945241   1.000000
   50       -1.898111   1.000000
   51       -1.805493   1.000000
   52       -1.723903   1.000000
   53       -1.637656   1.000000
   54       -1.538861   1.000000
   55       -1.504435   1.000000
   56       -1.397613   1.000000
   57       -1.281829   1.000000
   58       -1.273476   1.000000
   59       -1.219140   1.000000
   60       -1.181227   1.000000
   61       -1.113178   1.000000
   62       -1.054085   1.000000
   63       -0.990386   1.000000
   64       -0.935638   1.000000
   65       -0.917907   1.000000
   66       -0.898433   1.000000
   67       -0.808272   1.000000
   68       -0.743111   1.000000
   69       -0.672724   1.000000
   70       -0.595958   1.000000
   71       -0.494980   1.000000
   72       -0.384679   1.000000
   73       -0.312138   1.000000
   74       -0.236529   1.000000
   75       -0.177679   1.000000
   76       -0.098443   1.000000
   77        0.008061   1.000000
   78        0.228193   1.000000
   79        0.399948   1.000000
   80        0.428813   1.000000
   81        0.532412   1.000000
   82        0.682084   1.000000
   83        0.742833   1.000000
   84        0.866003   1.000000
   85        0.927880   1.000000
   86        1.271263   1.000000
   87        1.332353   1.000000
   88        1.533153   1.000000
   89        1.697433   1.000000
   90        1.741898   1.000000
   91        1.803810   1.000000
   92        1.811628   1.000000
   93        1.864560   1.000000
   94        1.931781   1.000000
   95        2.011203   1.000000
   96        2.350044   1.000000
   97        2.603414   1.000151
   98        2.806106   1.010932