 running on   54 total cores
 distrk:  each k-point on   54 cores,    1 groups
 distr:  one band on    9 cores,    6 groups
 using from now: INCAR     
 vasp.5.4.4.18Apr17-6-g9f103f2a35 (build Dec  7 2020 12:43:57) complex           
 POSCAR found type information on POSCAR  Mo V  B  H 
 POSCAR found :  4 types and      56 ions
 scaLAPACK will be used
 LDA part: xc-table for Pade appr. of Perdew
 POSCAR, INCAR and KPOINTS ok, starting setup
 resort distribution
 resort distribution
 resort distribution
 resort distribution
 resort distribution
 resort distribution
 resort distribution
 resort distribution
 resort distribution
 resort distribution
 resort distribution
 resort distribution
 resort distribution
 resort distribution
 resort distribution
 resort distribution
 resort distribution
 resort distribution
 resort distribution
 resort distribution
 resort distribution
 resort distribution
 resort distribution
 resort distribution
 resort distribution
 resort distribution
 resort distribution
 resort distribution
 resort distribution
 resort distribution
 resort distribution
 resort distribution
 resort distribution
 resort distribution
 resort distribution
 resort distribution
 resort distribution
 resort distribution
 resort distribution
 resort distribution
 resort distribution
 resort distribution
 resort distribution
 resort distribution
 resort distribution
 resort distribution
 resort distribution
 resort distribution
 resort distribution
 resort distribution
 resort distribution
 resort distribution
 resort distribution
 resort distribution
 FFT: planning ...
 WAVECAR not read
 augmentation electrons   204.01095265108327     
 soft         electrons   0.0000000000000000     
 augmentation electrons   204.01095265108327     
 soft         electrons   0.0000000000000000     
 augmentation electrons   204.01095265108327     
 soft         electrons   0.0000000000000000     
 augmentation electrons   204.01095265108327     
 soft         electrons   0.0000000000000000     
 augmentation electrons   204.01095265108327     
 soft         electrons   0.0000000000000000     
 augmentation electrons   204.01095265108327     
 soft         electrons   0.0000000000000000     
 augmentation electrons   204.01095265108327     
 soft         electrons   0.0000000000000000     
 augmentation electrons   204.01095265108327     
 soft         electrons   0.0000000000000000     
 augmentation electrons   204.01095265108327     
 soft         electrons   0.0000000000000000     
 augmentation electrons   204.01095265108327     
 soft         electrons   0.0000000000000000     
 augmentation electrons   204.01095265108327     
 soft         electrons   0.0000000000000000     
 augmentation electrons   204.01095265108327     
 soft         electrons   0.0000000000000000     
 augmentation electrons   204.01095265108327     
 soft         electrons   0.0000000000000000     
 augmentation electrons   204.01095265108327     
 soft         electrons   0.0000000000000000     
 augmentation electrons   204.01095265108327     
 soft         electrons   0.0000000000000000     
 augmentation electrons   204.01095265108327     
 soft         electrons   0.0000000000000000     
 augmentation electrons   204.01095265108327     
 soft         electrons   0.0000000000000000     
 augmentation electrons   204.01095265108327     
 soft         electrons   0.0000000000000000     
 augmentation electrons   204.01095265108327     
 soft         electrons   0.0000000000000000     
 augmentation electrons   204.01095265108327     
 soft         electrons   0.0000000000000000     
 augmentation electrons   204.01095265108327     
 soft         electrons   0.0000000000000000     
 augmentation electrons   204.01095265108327     
 soft         electrons   0.0000000000000000     
 augmentation electrons   204.01095265108327     
 soft         electrons   0.0000000000000000     
 augmentation electrons   204.01095265108327     
 soft         electrons   0.0000000000000000     
 augmentation electrons   204.01095265108327     
 soft         electrons   0.0000000000000000     
 augmentation electrons   204.01095265108327     
 soft         electrons   0.0000000000000000     
 augmentation electrons   204.01095265108327     
 soft         electrons   0.0000000000000000     
 augmentation electrons   204.01095265108327     
 soft         electrons   0.0000000000000000     
 augmentation electrons   204.01095265108327     
 soft         electrons   0.0000000000000000     
 augmentation electrons   204.01095265108327     
 soft         electrons   0.0000000000000000     
 augmentation electrons   204.01095265108327     
 soft         electrons   0.0000000000000000     
 augmentation electrons   204.01095265108327     
 soft         electrons   0.0000000000000000     
 augmentation electrons   204.01095265108327     
 soft         electrons   0.0000000000000000     
 augmentation electrons   204.01095265108327     
 soft         electrons   0.0000000000000000     
 augmentation electrons   204.01095265108327     
 soft         electrons   0.0000000000000000     
 augmentation electrons   204.01095265108327     
 soft         electrons   0.0000000000000000     
 augmentation electrons   204.01095265108327     
 soft         electrons   0.0000000000000000     
 augmentation electrons   204.01095265108327     
 soft         electrons   0.0000000000000000     
 augmentation electrons   204.01095265108327     
 soft         electrons   0.0000000000000000     
 augmentation electrons   204.01095265108327     
 soft         electrons   0.0000000000000000     
 augmentation electrons   204.01095265108327     
 soft         electrons   0.0000000000000000     
 augmentation electrons   204.01095265108327     
 soft         electrons   0.0000000000000000     
 augmentation electrons   204.01095265108327     
 soft         electrons   0.0000000000000000     
 augmentation electrons   204.01095265108327     
 soft         electrons   0.0000000000000000     
 augmentation electrons   204.01095265108327     
 soft         electrons   0.0000000000000000     
 augmentation electrons   204.01095265108327     
 augmentation electrons   204.01095265108327     
 soft         electrons   0.0000000000000000     
 augmentation electrons   204.01095265108327     
 soft         electrons   0.0000000000000000     
 augmentation electrons   204.01095265108327     
 soft         electrons   0.0000000000000000     
 augmentation electrons   204.01095265108327     
 soft         electrons   0.0000000000000000     
 augmentation electrons   204.01095265108327     
 soft         electrons   0.0000000000000000     
 augmentation electrons   204.01095265108327     
 soft         electrons   0.0000000000000000     
 augmentation electrons   204.01095265108327     
 soft         electrons   0.0000000000000000     
 augmentation electrons   204.01095265108327     
 soft         electrons   0.0000000000000000     
 soft         electrons   0.0000000000000000     
 total        electrons   204.01095265108327     
 total        electrons   204.01095265108327     
 total        electrons   204.01095265108327     
 total        electrons   204.01095265108327     
 total        electrons   204.01095265108327     
 total        electrons   204.01095265108327     
 total        electrons   204.01095265108327     
 total        electrons   204.01095265108327     
 total        electrons   204.01095265108327     
 total        electrons   204.01095265108327     
 total        electrons   204.01095265108327     
 total        electrons   204.01095265108327     
 total        electrons   204.01095265108327     
 total        electrons   204.01095265108327     
 total        electrons   204.01095265108327     
 total        electrons   204.01095265108327     
 total        electrons   204.01095265108327     
 total        electrons   204.01095265108327     
 total        electrons   204.01095265108327     
 total        electrons   204.01095265108327     
 total        electrons   204.01095265108327     
 total        electrons   204.01095265108327     
 total        electrons   204.01095265108327     
 total        electrons   204.01095265108327     
 total        electrons   204.01095265108327     
 total        electrons   204.01095265108327     
 total        electrons   204.01095265108327     
 total        electrons   204.01095265108327     
 total        electrons   204.01095265108327     
 total        electrons   204.01095265108327     
 total        electrons   204.01095265108327     
 total        electrons   204.01095265108327     
 total        electrons   204.01095265108327     
 total        electrons   204.01095265108327     
 total        electrons   204.01095265108327     
 total        electrons   204.01095265108327     
 total        electrons   204.01095265108327     
 total        electrons   204.01095265108327     
 total        electrons   204.01095265108327     
 total        electrons   204.01095265108327     
 total        electrons   204.01095265108327     
 total        electrons   204.01095265108327     
 total        electrons   204.01095265108327     
 total        electrons   204.01095265108327     
 total        electrons   204.01095265108327     
 total        electrons   204.01095265108327     
 total        electrons   204.01095265108327     
 total        electrons   204.01095265108327     
 total        electrons   204.01095265108327     
 total        electrons   204.01095265108327     
 total        electrons   204.01095265108327     
 total        electrons   204.01095265108327     
 total        electrons   204.01095265108327     
 total        electrons   204.01095265108327     
 augmentation electrons   553.81437639256546     
 soft         electrons   0.0000000000000000     
 augmentation electrons   553.81437639256546     
 soft         electrons   0.0000000000000000     
 augmentation electrons   553.81437639256546     
 soft         electrons   0.0000000000000000     
 augmentation electrons   553.81437639256546     
 soft         electrons   0.0000000000000000     
 augmentation electrons   553.81437639256546     
 soft         electrons   0.0000000000000000     
 augmentation electrons   553.81437639256546     
 soft         electrons   0.0000000000000000     
 augmentation electrons   553.81437639256546     
 soft         electrons   0.0000000000000000     
 augmentation electrons   553.81437639256546     
 soft         electrons   0.0000000000000000     
 augmentation electrons   553.81437639256546     
 soft         electrons   0.0000000000000000     
 augmentation electrons   553.81437639256546     
 soft         electrons   0.0000000000000000     
 augmentation electrons   553.81437639256546     
 soft         electrons   0.0000000000000000     
 augmentation electrons   553.81437639256546     
 soft         electrons   0.0000000000000000     
 augmentation electrons   553.81437639256546     
 soft         electrons   0.0000000000000000     
 augmentation electrons   553.81437639256546     
 soft         electrons   0.0000000000000000     
 augmentation electrons   553.81437639256546     
 soft         electrons   0.0000000000000000     
 augmentation electrons   553.81437639256546     
 soft         electrons   0.0000000000000000     
 augmentation electrons   553.81437639256546     
 soft         electrons   0.0000000000000000     
 augmentation electrons   553.81437639256546     
 soft         electrons   0.0000000000000000     
 augmentation electrons   553.81437639256546     
 soft         electrons   0.0000000000000000     
 augmentation electrons   553.81437639256546     
 soft         electrons   0.0000000000000000     
 augmentation electrons   553.81437639256546     
 soft         electrons   0.0000000000000000     
 augmentation electrons   553.81437639256546     
 soft         electrons   0.0000000000000000     
 augmentation electrons   553.81437639256546     
 soft         electrons   0.0000000000000000     
 augmentation electrons   553.81437639256546     
 soft         electrons   0.0000000000000000     
 augmentation electrons   553.81437639256546     
 soft         electrons   0.0000000000000000     
 augmentation electrons   553.81437639256546     
 soft         electrons   0.0000000000000000     
 augmentation electrons   553.81437639256546     
 soft         electrons   0.0000000000000000     
 augmentation electrons   553.81437639256546     
 soft         electrons   0.0000000000000000     
 augmentation electrons   553.81437639256546     
 soft         electrons   0.0000000000000000     
 augmentation electrons   553.81437639256546     
 soft         electrons   0.0000000000000000     
 augmentation electrons   553.81437639256546     
 soft         electrons   0.0000000000000000     
 augmentation electrons   553.81437639256546     
 soft         electrons   0.0000000000000000     
 augmentation electrons   553.81437639256546     
 soft         electrons   0.0000000000000000     
 augmentation electrons   553.81437639256546     
 soft         electrons   0.0000000000000000     
 augmentation electrons   553.81437639256546     
 soft         electrons   0.0000000000000000     
 augmentation electrons   553.81437639256546     
 soft         electrons   0.0000000000000000     
 augmentation electrons   553.81437639256546     
 soft         electrons   0.0000000000000000     
 augmentation electrons   553.81437639256546     
 soft         electrons   0.0000000000000000     
 augmentation electrons   553.81437639256546     
 soft         electrons   0.0000000000000000     
 augmentation electrons   553.81437639256546     
 soft         electrons   0.0000000000000000     
 augmentation electrons   553.81437639256546     
 soft         electrons   0.0000000000000000     
 augmentation electrons   553.81437639256546     
 soft         electrons   0.0000000000000000     
 augmentation electrons   553.81437639256546     
 soft         electrons   0.0000000000000000     
 augmentation electrons   553.81437639256546     
 soft         electrons   0.0000000000000000     
 augmentation electrons   553.81437639256546     
 soft         electrons   0.0000000000000000     
 augmentation electrons   553.81437639256546     
 soft         electrons   0.0000000000000000     
 augmentation electrons   553.81437639256546     
 soft         electrons   0.0000000000000000     
 augmentation electrons   553.81437639256546     
 soft         electrons   0.0000000000000000     
 augmentation electrons   553.81437639256546     
 soft         electrons   0.0000000000000000     
 augmentation electrons   553.81437639256546     
 soft         electrons   0.0000000000000000     
 augmentation electrons   553.81437639256546     
 soft         electrons   0.0000000000000000     
 augmentation electrons   553.81437639256546     
 soft         electrons   0.0000000000000000     
 augmentation electrons   553.81437639256546     
 soft         electrons   0.0000000000000000     
 augmentation electrons   553.81437639256546     
 soft         electrons   0.0000000000000000     
 total        electrons   553.81437639256546     
 total        electrons   553.81437639256546     
 total        electrons   553.81437639256546     
 total        electrons   553.81437639256546     
 total        electrons   553.81437639256546     
 total        electrons   553.81437639256546     
 total        electrons   553.81437639256546     
 total        electrons   553.81437639256546     
 total        electrons   553.81437639256546     
 total        electrons   553.81437639256546     
 total        electrons   553.81437639256546     
 total        electrons   553.81437639256546     
 total        electrons   553.81437639256546     
 total        electrons   553.81437639256546     
 total        electrons   553.81437639256546     
 total        electrons   553.81437639256546     
 total        electrons   553.81437639256546     
 total        electrons   553.81437639256546     
 total        electrons   553.81437639256546     
 total        electrons   553.81437639256546     
 total        electrons   553.81437639256546     
 total        electrons   553.81437639256546     
 total        electrons   553.81437639256546     
 total        electrons   553.81437639256546     
 total        electrons   553.81437639256546     
 total        electrons   553.81437639256546     
 total        electrons   553.81437639256546     
 total        electrons   553.81437639256546     
 total        electrons   553.81437639256546     
 total        electrons   553.81437639256546     
 total        electrons   553.81437639256546     
 total        electrons   553.81437639256546     
 total        electrons   553.81437639256546     
 total        electrons   553.81437639256546     
 total        electrons   553.81437639256546     
 total        electrons   553.81437639256546     
 total        electrons   553.81437639256546     
 total        electrons   553.81437639256546     
 total        electrons   553.81437639256546     
 total        electrons   553.81437639256546     
 total        electrons   553.81437639256546     
 total        electrons   553.81437639256546     
 total        electrons   553.81437639256546     
 total        electrons   553.81437639256546     
 total        electrons   553.81437639256546     
 total        electrons   553.81437639256546     
 total        electrons   553.81437639256546     
 total        electrons   553.81437639256546     
 total        electrons   553.81437639256546     
 total        electrons   553.81437639256546     
 total        electrons   553.81437639256546     
 total        electrons   553.81437639256546     
 total        electrons   553.81437639256546     
 total        electrons   553.81437639256546     
 entering main loop
       N       E                     dE             d eps       ncg     rms          rms(c)
DAV:   1     0.139208632364E+04    0.13921E+04   -0.81443E+04 10824   0.134E+03
DAV:   2    -0.287949229574E+03   -0.16800E+04   -0.15897E+04 12204   0.332E+02
DAV:   3    -0.493284620154E+03   -0.20534E+03   -0.19610E+03 15288   0.116E+02
DAV:   4    -0.506054035622E+03   -0.12769E+02   -0.12441E+02 17148   0.301E+01
DAV:   5    -0.506539995640E+03   -0.48596E+00   -0.47698E+00 15900   0.481E+00    0.118E+02
RMM:   6    -0.482432868712E+03    0.24107E+02   -0.66829E+02 17519   0.736E+01    0.628E+01
RMM:   7    -0.570109120868E+03   -0.87676E+02   -0.37226E+02 16646   0.445E+01    0.461E+01
RMM:   8    -0.469477712162E+03    0.10063E+03   -0.10915E+02 16664   0.219E+01    0.329E+01
RMM:   9    -0.450230157244E+03    0.19248E+02   -0.30839E+01 14440   0.183E+01    0.248E+01
RMM:  10    -0.440538243899E+03    0.96919E+01   -0.22008E+01 16930   0.968E+00    0.188E+01
RMM:  11    -0.435788831685E+03    0.47494E+01   -0.53307E+00 16051   0.475E+00    0.142E+01
RMM:  12    -0.435562207962E+03    0.22662E+00   -0.66430E-01 12841   0.321E+00    0.133E+01
RMM:  13    -0.435545508907E+03    0.16699E-01   -0.34086E-01 16772   0.112E+00    0.125E+01
RMM:  14    -0.435288802307E+03    0.25671E+00   -0.43433E-01 14192   0.232E+00    0.842E+00
RMM:  15    -0.434613856447E+03    0.67495E+00   -0.33813E+00 12309   0.716E+00    0.508E+00
RMM:  16    -0.434688968013E+03   -0.75112E-01   -0.16182E+00 16194   0.150E+00    0.521E+00
RMM:  17    -0.434505071777E+03    0.18390E+00   -0.10463E-01 12642   0.128E+00    0.361E+00
RMM:  18    -0.434496473186E+03    0.85986E-02   -0.13070E-01 16441   0.656E-01    0.355E+00
RMM:  19    -0.434461303662E+03    0.35170E-01   -0.39689E-01 12188   0.230E+00    0.215E+00
RMM:  20    -0.434422829498E+03    0.38474E-01   -0.15294E-01 16063   0.565E-01    0.168E+00
RMM:  21    -0.434435754329E+03   -0.12925E-01   -0.25659E-02 14874   0.390E-01    0.197E+00
RMM:  22    -0.434420587829E+03    0.15166E-01   -0.61012E-03 15697   0.186E-01    0.171E+00
RMM:  23    -0.434411411716E+03    0.91761E-02   -0.12341E-02 16127   0.199E-01    0.161E+00
RMM:  24    -0.434385670513E+03    0.25741E-01   -0.16142E-02 13373   0.430E-01    0.958E-01
RMM:  25    -0.434385568653E+03    0.10186E-03   -0.28564E-02 16672   0.276E-01    0.825E-01
RMM:  26    -0.434380415310E+03    0.51533E-02   -0.10098E-02 15907   0.249E-01    0.442E-01
RMM:  27    -0.434379532762E+03    0.88255E-03   -0.98232E-03 14215   0.265E-01    0.144E-01
RMM:  28    -0.434380336739E+03   -0.80398E-03   -0.43702E-03 17097   0.102E-01    0.225E-01
RMM:  29    -0.434380067609E+03    0.26913E-03   -0.21462E-04 16201   0.281E-02    0.180E-01
RMM:  30    -0.434379867286E+03    0.20032E-03   -0.65656E-04 15900   0.678E-02    0.102E-01
RMM:  31    -0.434379933440E+03   -0.66154E-04   -0.10740E-04 16013   0.185E-02    0.108E-01
RMM:  32    -0.434379930684E+03    0.27567E-05   -0.13605E-05 11529   0.728E-03    0.983E-02
RMM:  33    -0.434379928909E+03    0.17750E-05   -0.22466E-05 14075   0.992E-03    0.849E-02
RMM:  34    -0.434379879513E+03    0.49396E-04   -0.46177E-05 14439   0.191E-02    0.540E-02
RMM:  35    -0.434379853955E+03    0.25557E-04   -0.63716E-05 15759   0.180E-02    0.235E-02
RMM:  36    -0.434379850554E+03    0.34009E-05   -0.15372E-05 11548   0.753E-03    0.134E-02
RMM:  37    -0.434379850583E+03   -0.28956E-07   -0.24567E-06  9068   0.426E-03
   1 F= -.43437985E+03 E0= -.43438248E+03  d E =0.789225E-02
 augmentation electrons   16.964263858251648     
 soft         electrons   187.08994365962971     
 augmentation electrons   16.964263858251648     
 soft         electrons   187.08994365962971     
 augmentation electrons   16.964263858251648     
 soft         electrons   187.08994365962971     
 augmentation electrons   16.964263858251648     
 soft         electrons   187.08994365962971     
 augmentation electrons   16.964263858251648     
 soft         electrons   187.08994365962971     
 augmentation electrons   16.964263858251648     
 soft         electrons   187.08994365962971     
 augmentation electrons   16.964263858251648     
 soft         electrons   187.08994365962971     
 augmentation electrons   16.964263858251648     
 soft         electrons   187.08994365962971     
 augmentation electrons   16.964263858251648     
 soft         electrons   187.08994365962971     
 augmentation electrons   16.964263858251648     
 soft         electrons   187.08994365962971     
 augmentation electrons   16.964263858251648     
 soft         electrons   187.08994365962971     
 augmentation electrons   16.964263858251648     
 soft         electrons   187.08994365962971     
 augmentation electrons   16.964263858251648     
 soft         electrons   187.08994365962971     
 augmentation electrons   16.964263858251648     
 soft         electrons   187.08994365962971     
 augmentation electrons   16.964263858251648     
 soft         electrons   187.08994365962971     
 augmentation electrons   16.964263858251648     
 soft         electrons   187.08994365962971     
 augmentation electrons   16.964263858251648     
 soft         electrons   187.08994365962971     
 augmentation electrons   16.964263858251648     
 soft         electrons   187.08994365962971     
 augmentation electrons   16.964263858251648     
 soft         electrons   187.08994365962971     
 augmentation electrons   16.964263858251648     
 soft         electrons   187.08994365962971     
 augmentation electrons   16.964263858251648     
 soft         electrons   187.08994365962971     
 augmentation electrons   16.964263858251648     
 soft         electrons   187.08994365962971     
 augmentation electrons   16.964263858251648     
 soft         electrons   187.08994365962971     
 augmentation electrons   16.964263858251648     
 soft         electrons   187.08994365962971     
 augmentation electrons   16.964263858251648     
 soft         electrons   187.08994365962971     
 augmentation electrons   16.964263858251648     
 soft         electrons   187.08994365962971     
 augmentation electrons   16.964263858251648     
 soft         electrons   187.08994365962971     
 augmentation electrons   16.964263858251648     
 soft         electrons   187.08994365962971     
 augmentation electrons   16.964263858251648     
 soft         electrons   187.08994365962971     
 augmentation electrons   16.964263858251648     
 soft         electrons   187.08994365962971     
 augmentation electrons   16.964263858251648     
 soft         electrons   187.08994365962971     
 augmentation electrons   16.964263858251648     
 soft         electrons   187.08994365962971     
 augmentation electrons   16.964263858251648     
 soft         electrons   187.08994365962971     
 augmentation electrons   16.964263858251648     
 soft         electrons   187.08994365962971     
 augmentation electrons   16.964263858251648     
 soft         electrons   187.08994365962971     
 augmentation electrons   16.964263858251648     
 soft         electrons   187.08994365962971     
 augmentation electrons   16.964263858251648     
 soft         electrons   187.08994365962971     
 augmentation electrons   16.964263858251648     
 soft         electrons   187.08994365962971     
 augmentation electrons   16.964263858251648     
 soft         electrons   187.08994365962971     
 augmentation electrons   16.964263858251648     
 soft         electrons   187.08994365962971     
 augmentation electrons   16.964263858251648     
 soft         electrons   187.08994365962971     
 augmentation electrons   16.964263858251648     
 soft         electrons   187.08994365962971     
 augmentation electrons   16.964263858251648     
 soft         electrons   187.08994365962971     
 augmentation electrons   16.964263858251648     
 soft         electrons   187.08994365962971     
 augmentation electrons   16.964263858251648     
 soft         electrons   187.08994365962971     
 augmentation electrons   16.964263858251648     
 soft         electrons   187.08994365962971     
 augmentation electrons   16.964263858251648     
 soft         electrons   187.08994365962971     
 augmentation electrons   16.964263858251648     
 soft         electrons   187.08994365962971     
 augmentation electrons   16.964263858251648     
 soft         electrons   187.08994365962971     
 augmentation electrons   16.964263858251648     
 soft         electrons   187.08994365962971     
 augmentation electrons   16.964263858251648     
 soft         electrons   187.08994365962971     
 augmentation electrons   16.964263858251648     
 soft         electrons   187.08994365962971     
 augmentation electrons   16.964263858251648     
 soft         electrons   187.08994365962971     
 augmentation electrons   16.964263858251648     
 soft         electrons   187.08994365962971     
 total        electrons   204.05420751788137     
 total        electrons   204.05420751788137     
 total        electrons   204.05420751788137     
 total        electrons   204.05420751788137     
 total        electrons   204.05420751788137     
 total        electrons   204.05420751788137     
 total        electrons   204.05420751788137     
 total        electrons   204.05420751788137     
 total        electrons   204.05420751788137     
 total        electrons   204.05420751788137     
 total        electrons   204.05420751788137     
 total        electrons   204.05420751788137     
 total        electrons   204.05420751788137     
 total        electrons   204.05420751788137     
 total        electrons   204.05420751788137     
 total        electrons   204.05420751788137     
 total        electrons   204.05420751788137     
 total        electrons   204.05420751788137     
 total        electrons   204.05420751788137     
 total        electrons   204.05420751788137     
 total        electrons   204.05420751788137     
 total        electrons   204.05420751788137     
 total        electrons   204.05420751788137     
 total        electrons   204.05420751788137     
 total        electrons   204.05420751788137     
 total        electrons   204.05420751788137     
 total        electrons   204.05420751788137     
 total        electrons   204.05420751788137     
 total        electrons   204.05420751788137     
 total        electrons   204.05420751788137     
 total        electrons   204.05420751788137     
 total        electrons   204.05420751788137     
 total        electrons   204.05420751788137     
 total        electrons   204.05420751788137     
 total        electrons   204.05420751788137     
 total        electrons   204.05420751788137     
 total        electrons   204.05420751788137     
 total        electrons   204.05420751788137     
 total        electrons   204.05420751788137     
 total        electrons   204.05420751788137     
 total        electrons   204.05420751788137     
 total        electrons   204.05420751788137     
 total        electrons   204.05420751788137     
 total        electrons   204.05420751788137     
 total        electrons   204.05420751788137     
 total        electrons   204.05420751788137     
 total        electrons   204.05420751788137     
 total        electrons   204.05420751788137     
 total        electrons   204.05420751788137     
 total        electrons   204.05420751788137     
 total        electrons   204.05420751788137     
 total        electrons   204.05420751788137     
 total        electrons   204.05420751788137     
 total        electrons   204.05420751788137     
Note: The following floating-point exceptions are signalling: IEEE_OVERFLOW_FLAG
Note: The following floating-point exceptions are signalling: IEEE_OVERFLOW_FLAG
Note: The following floating-point exceptions are signalling: IEEE_OVERFLOW_FLAG
Note: The following floating-point exceptions are signalling: IEEE_OVERFLOW_FLAG
Note: The following floating-point exceptions are signalling: IEEE_OVERFLOW_FLAG
Note: The following floating-point exceptions are signalling: IEEE_OVERFLOW_FLAG
Note: The following floating-point exceptions are signalling: IEEE_OVERFLOW_FLAG
Note: The following floating-point exceptions are signalling: IEEE_OVERFLOW_FLAG
Note: The following floating-point exceptions are signalling: IEEE_OVERFLOW_FLAG
Note: The following floating-point exceptions are signalling: IEEE_OVERFLOW_FLAG
Note: The following floating-point exceptions are signalling: IEEE_OVERFLOW_FLAG
Note: The following floating-point exceptions are signalling: IEEE_OVERFLOW_FLAG
Note: The following floating-point exceptions are signalling: IEEE_OVERFLOW_FLAG
Note: The following floating-point exceptions are signalling: IEEE_OVERFLOW_FLAG
Note: The following floating-point exceptions are signalling: IEEE_OVERFLOW_FLAG
Note: The following floating-point exceptions are signalling: IEEE_OVERFLOW_FLAG
Note: The following floating-point exceptions are signalling: IEEE_OVERFLOW_FLAG
Note: The following floating-point exceptions are signalling: IEEE_OVERFLOW_FLAG
Note: The following floating-point exceptions are signalling: IEEE_OVERFLOW_FLAG
Note: The following floating-point exceptions are signalling: IEEE_OVERFLOW_FLAG
Note: The following floating-point exceptions are signalling: IEEE_OVERFLOW_FLAG
Note: The following floating-point exceptions are signalling: IEEE_OVERFLOW_FLAG
Note: The following floating-point exceptions are signalling: IEEE_OVERFLOW_FLAG
Note: The following floating-point exceptions are signalling: IEEE_OVERFLOW_FLAG
Note: The following floating-point exceptions are signalling: IEEE_OVERFLOW_FLAG
Note: The following floating-point exceptions are signalling: IEEE_OVERFLOW_FLAG
Note: The following floating-point exceptions are signalling: IEEE_OVERFLOW_FLAG
Note: The following floating-point exceptions are signalling: IEEE_OVERFLOW_FLAG
Note: The following floating-point exceptions are signalling: IEEE_OVERFLOW_FLAG
Note: The following floating-point exceptions are signalling: IEEE_OVERFLOW_FLAG
Note: The following floating-point exceptions are signalling: IEEE_OVERFLOW_FLAG
Note: The following floating-point exceptions are signalling: IEEE_OVERFLOW_FLAG
Note: The following floating-point exceptions are signalling: IEEE_OVERFLOW_FLAG
Note: The following floating-point exceptions are signalling: IEEE_OVERFLOW_FLAG
Note: The following floating-point exceptions are signalling: IEEE_OVERFLOW_FLAG
Note: The following floating-point exceptions are signalling: IEEE_OVERFLOW_FLAG
Note: The following floating-point exceptions are signalling: IEEE_OVERFLOW_FLAG
Note: The following floating-point exceptions are signalling: IEEE_OVERFLOW_FLAG
Note: The following floating-point exceptions are signalling: IEEE_OVERFLOW_FLAG
Note: The following floating-point exceptions are signalling: IEEE_OVERFLOW_FLAG
Note: The following floating-point exceptions are signalling: IEEE_OVERFLOW_FLAG
Note: The following floating-point exceptions are signalling: IEEE_OVERFLOW_FLAG
Note: The following floating-point exceptions are signalling: IEEE_OVERFLOW_FLAG
Note: The following floating-point exceptions are signalling: IEEE_OVERFLOW_FLAG
Note: The following floating-point exceptions are signalling: IEEE_OVERFLOW_FLAG
Note: The following floating-point exceptions are signalling: IEEE_OVERFLOW_FLAG
Note: The following floating-point exceptions are signalling: IEEE_OVERFLOW_FLAG
Note: The following floating-point exceptions are signalling: IEEE_OVERFLOW_FLAG
Note: The following floating-point exceptions are signalling: IEEE_OVERFLOW_FLAG
Note: The following floating-point exceptions are signalling: IEEE_OVERFLOW_FLAG
Note: The following floating-point exceptions are signalling: IEEE_OVERFLOW_FLAG
Note: The following floating-point exceptions are signalling: IEEE_OVERFLOW_FLAG
Note: The following floating-point exceptions are signalling: IEEE_OVERFLOW_FLAG
Note: The following floating-point exceptions are signalling: IEEE_OVERFLOW_FLAG
