    3    3   60    1
  0.8144830E+01  0.3039000E-09  0.3039000E-09  0.3055000E-09  0.5000000E-15
   1.0000000000000000E-004
  CAR 
 Name                                    
     12    216     10

  0.3742002E-15  0.3742002E-15  0.3742002E-15  0.2962963E-03
    1       -5.903557   1.000000
    2        2.007625   1.000000
    3        4.137223   1.000000
    4        4.829098   1.000000
    5        4.829100   1.000000
    6        9.648478  -0.000000
    7        9.648479  -0.000000
    8       10.143306  -0.000000
    9       10.143309  -0.000000
   10       13.991623   0.000000

  0.6666667E-01  0.3766815E-15  0.3742002E-15  0.1777778E-02
    1       -5.817423   1.000000
    2        2.104433   1.000000
    3        4.070064   1.000000
    4        4.602526   1.000000
    5        4.862852   1.000000
    6        9.603527  -0.000000
    7        9.785251  -0.000000
    8        9.832423  -0.000000
    9        9.926915  -0.000000
   10       13.886155   0.000000

  0.1333333E+00  0.3754153E-15  0.3742002E-15  0.1777778E-02
    1       -5.562199   1.000000
    2        2.366523   1.000000
    3        3.898657   1.000000
    4        3.996021   1.000000
    5        4.939439   1.000000
    6        9.158290  -0.000000
    7        9.479476  -0.000000
    8        9.529905  -0.000000
    9       10.132343  -0.000000
   10       13.765898   0.000000

  0.2000000E+00  0.3870416E-15  0.3742002E-15  0.1777778E-02
    1       -5.146754   1.000000
    2        2.662870   1.000000
    3        3.194642   1.000000
    4        3.685408   1.000000
    5        4.994937   1.000000
    6        8.529577  -0.000000
    7        9.275779  -0.000000
    8        9.304170  -0.000000
    9       10.509644  -0.000000
   10       13.678525   0.000000

  0.2666667E+00  0.4120044E-15  0.3742002E-15  0.1777778E-02
    1       -4.583763   1.000000
    2        2.066829   1.000000
    3        3.092705   1.000000
    4        3.484225   1.000000
    5        4.971742   1.000000
    6        8.248709  -0.000150
    7        9.112873  -0.000000
    8        9.298069  -0.000000
    9       10.663989  -0.000000
   10       13.611030   0.000000

  0.3333333E+00  0.4025434E-15  0.3742002E-15  0.1777778E-02
    1       -3.888400   1.000000
    2        1.020823   1.000000
    3        3.198069   1.000000
    4        3.325744   1.000000
    5        4.875327   1.000000
    6        8.456794  -0.000000
    7        8.938600  -0.000000
    8        9.559806  -0.000000
    9       10.500717  -0.000000
   10       13.563465   0.000000

  0.4000000E+00  0.3732510E-15  0.3742002E-15  0.1777778E-02
    1       -3.079199   1.000000
    2       -0.051494   1.000000
    3        3.170655   1.000000
    4        3.221179   1.000000
    5        4.763920   1.000000
    6        8.807798  -0.000000
    7        9.010254  -0.000000
    8        9.905850  -0.000000
    9       10.220912  -0.000000
   10       13.543638   0.000000

  0.4666667E+00  0.3915456E-15  0.3742002E-15  0.1777778E-02
    1       -2.200398   1.000000
    2       -1.069138   1.000000
    3        3.118710   1.000000
    4        3.170435   1.000000
    5        4.693748   1.000000
    6        8.738105  -0.000000
    7        9.505067  -0.000000
    8       10.034494  -0.000000
    9       10.146413  -0.000000
   10       13.552007   0.000000

  0.6666667E-01  0.6666667E-01  0.3742002E-15  0.1777778E-02
    1       -5.646727   1.000000
    2        2.284527   1.000000
    3        3.952031   1.000000
    4        4.200900   1.000000
    5        4.900744   1.000000
    6        9.384140  -0.000000
    7        9.490730  -0.000000
    8        9.593976  -0.000000
    9       10.056805  -0.000000
   10       13.861553   0.000000

  0.1333333E+00  0.6666667E-01  0.3742002E-15  0.3555556E-02
    1       -5.311316   1.000000
    2        2.580192   1.000000
    3        3.515192   1.000000
    4        3.766743   1.000000
    5        4.923229   1.000000
    6        8.750658  -0.000000
    7        9.262865  -0.000000
    8        9.306043  -0.000000
    9       10.511641  -0.000000
   10       13.834783   0.000000

  0.2000000E+00  0.6666667E-01  0.3742002E-15  0.3555556E-02
    1       -4.821875   1.000000
    2        2.529423   1.000000
    3        2.979750   1.000000
    4        3.574103   1.000000
    5        4.919348   1.000000
    6        8.240345  -0.000234
    7        8.960072  -0.000000
    8        9.299346  -0.000000
    9       10.935468   0.000000
   10       13.781608   0.000000

  0.2666667E+00  0.6666667E-01  0.3742002E-15  0.3555556E-02
    1       -4.192097   1.000000
    2        1.570915   1.000000
    3        3.070298   1.000000
    4        3.414563   1.000000
    5        4.924685   1.000000
    6        8.105146  -0.028611
    7        8.627680  -0.000000
    8        9.554004  -0.000000
    9       11.096722   0.000000
   10       13.735489   0.000000

  0.3333333E+00  0.6666667E-01  0.3742002E-15  0.3555556E-02
    1       -3.438137   1.000000
    2        0.518431   1.000000
    3        3.017744   1.000000
    4        3.304719   1.000000
    5        4.914633   1.000000
    6        8.321261  -0.000002
    7        8.438197  -0.000000
    8        9.884641  -0.000000
    9       11.004727   0.000000
   10       13.741417   0.000000

  0.4000000E+00  0.6666667E-01  0.3742002E-15  0.3555556E-02
    1       -2.583217   1.000000
    2       -0.532592   1.000000
    3        2.918637   1.000000
    4        3.244199   1.000000
    5        4.873182   1.000000
    6        8.102759  -0.029630
    7        9.059307  -0.000000
    8       10.023485  -0.000000
    9       10.865635   0.000000
   10       13.844771   0.000000

  0.4666667E+00  0.6666667E-01  0.3742002E-15  0.1777778E-02
    1       -1.837402   1.000000
    2       -1.346511   1.000000
    3        2.875044   1.000000
    4        3.225459   1.000000
    5        4.850513   1.000000
    6        8.023256   0.055140
    7        9.510903  -0.000000
    8        9.898173  -0.000000
    9       10.808126   0.000000
   10       13.941520   0.000000

  0.1333333E+00  0.1333333E+00  0.3742002E-15  0.1777778E-02
    1       -4.901739   1.000000
    2        2.800295   1.000000
    3        2.865487   1.000000
    4        3.615201   1.000000
    5        4.836063   1.000000
    6        8.245747  -0.000176
    7        8.825663  -0.000000
    8        9.315102  -0.000000
    9       11.133120   0.000000
   10       13.963570   0.000000

  0.2000000E+00  0.1333333E+00  0.3742002E-15  0.3555556E-02
    1       -4.344871   1.000000
    2        2.059910   1.000000
    3        2.820765   1.000000
    4        3.493643   1.000000
    5        4.908159   1.000000
    6        7.829969   1.035114
    7        8.283127  -0.000021
    8        9.625421  -0.000000
    9       11.747614   0.000000
   10       14.529603   0.000000

  0.2666667E+00  0.1333333E+00  0.3742002E-15  0.3555556E-02
    1       -3.654815   1.000000
    2        1.119925   1.000000
    3        2.628909   1.000000
    4        3.425024   1.000000
    5        5.143518   1.000000
    6        7.741217   1.004592
    7        7.762566   1.009435
    8        9.973196  -0.000000
    9       12.076411   0.000000
   10       14.790493   0.000000

  0.3333333E+00  0.1333333E+00  0.3742002E-15  0.3555556E-02
    1       -2.849039   1.000000
    2        0.105236   1.000000
    3        2.416077   1.000000
    4        3.404745   1.000000
    5        5.276151   1.000000
    6        7.301718   1.000000
    7        8.183988  -0.003080
    8       10.027402  -0.000000
    9       12.117372   0.000000
   10       14.402404   0.000000

  0.4000000E+00  0.1333333E+00  0.3742002E-15  0.3555556E-02
    1       -1.962674   1.000000
    2       -0.899235   1.000000
    3        2.292161   1.000000
    4        3.407398   1.000000
    5        5.291394   1.000000
    6        7.053645   1.000000
    7        8.915448  -0.000000
    8        9.627275  -0.000000
    9       12.084370   0.000000
   10       14.777747   0.000000

  0.2000000E+00  0.2000000E+00  0.3742002E-15  0.1777778E-02
    1       -3.727210   1.000000
    2        1.496765   1.000000
    3        2.318457   1.000000
    4        3.483480   1.000000
    5        5.266104   1.000000
    6        7.465045   1.000000
    7        7.518099   1.000000
    8       10.012343  -0.000000
    9       12.661531   0.000000
   10       14.407498   0.000000

  0.2666667E+00  0.2000000E+00  0.3742002E-15  0.3555556E-02
    1       -2.983467   1.000000
    2        0.739027   1.000000
    3        1.824784   1.000000
    4        3.550267   1.000000
    5        5.732318   1.000000
    6        6.814981   1.000000
    7        7.417792   1.000000
    8       10.055367  -0.000000
    9       13.264847   0.000000
   10       14.731355   0.000000

  0.3333333E+00  0.2000000E+00  0.3742002E-15  0.3555556E-02
    1       -2.133564   1.000000
    2       -0.199299   1.000000
    3        1.552556   1.000000
    4        3.655771   1.000000
    5        5.928420   1.000000
    6        6.298361   1.000000
    7        7.932733   0.701298
    8        9.597156  -0.000000
    9       13.392874   0.000000
   10       15.471398   0.000000

  0.4000000E+00  0.2000000E+00  0.3742002E-15  0.1777778E-02
    1       -1.310687   1.000000
    2       -1.065432   1.000000
    3        1.467989   1.000000
    4        3.711381   1.000000
    5        5.947796   1.000000
    6        6.101243   1.000000
    7        8.656266  -0.000000
    8        8.921999  -0.000000
    9       13.398655   0.000000
   10       15.866748   0.000000

  0.2666667E+00  0.2666667E+00  0.3742002E-15  0.1777778E-02
    1       -2.194254   1.000000
    2        0.354967   1.000000
    3        0.980379   1.000000
    4        3.792580   1.000000
    5        5.988854   1.000000
    6        6.478509   1.000000
    7        7.247662   1.000000
    8        9.590580  -0.000000
    9       14.424290   0.000000
   10       14.739961   0.000000

  0.3333333E+00  0.2666667E+00  0.3742002E-15  0.3555556E-02
    1       -1.311851   1.000000
    2       -0.385666   1.000000
    3        0.596191   1.000000
    4        4.072060   1.000000
    5        5.404749   1.000000
    6        6.779745   1.000000
    7        7.763261   1.009639
    8        8.766807  -0.000000
    9       14.602455   0.000000
   10       15.467169   0.000000

  0.3333333E+00  0.3333333E+00  0.3742002E-15  0.5925926E-03
    1       -0.500117   1.000000
    2       -0.500115   1.000000
    3       -0.215232   1.000000
    4        4.656949   1.000000
    5        4.656951   1.000000
    6        7.661057   1.000115
    7        7.661058   1.000115
    8        7.915952   0.819109
    9       15.326397   0.000000
   10       15.326398   0.000000

  0.3742002E-15  0.3742002E-15  0.6666667E-01  0.5925926E-03
    1       -5.852699   1.000000
    2        1.897731   1.000000
    3        4.170179   1.000000
    4        4.868156   1.000000
    5        4.868158   1.000000
    6        9.529215  -0.000000
    7        9.529216  -0.000000
    8       10.050756  -0.000000
    9       10.050759  -0.000000
   10       14.198010   0.000000

  0.6666667E-01  0.3766815E-15  0.6666667E-01  0.3555556E-02
    1       -5.767260   1.000000
    2        1.993759   1.000000
    3        4.104705   1.000000
    4        4.641090   1.000000
    5        4.899115   1.000000
    6        9.359585  -0.000000
    7        9.441054  -0.000000
    8       10.000130  -0.000000
    9       10.010635  -0.000000
   10       14.040239   0.000000

  0.1333333E+00  0.3754153E-15  0.6666667E-01  0.3555556E-02
    1       -5.514165   1.000000
    2        2.256372   1.000000
    3        3.862125   1.000000
    4        4.108691   1.000000
    5        4.964880   1.000000
    6        8.937325  -0.000000
    7        9.034080  -0.000000
    8        9.901164  -0.000000
    9       10.227929  -0.000000
   10       13.873364   0.000000

  0.2000000E+00  0.3870416E-15  0.6666667E-01  0.3555556E-02
    1       -5.102251   1.000000
    2        2.592425   1.000000
    3        3.102708   1.000000
    4        3.822513   1.000000
    5        4.997457   1.000000
    6        8.378454  -0.000000
    7        8.821637  -0.000000
    8        9.759536  -0.000000
    9       10.556381  -0.000000
   10       13.798112   0.000000

  0.2666667E+00  0.4120044E-15  0.6666667E-01  0.3555556E-02
    1       -4.544186   1.000000
    2        2.066947   1.000000
    3        2.938357   1.000000
    4        3.629965   1.000000
    5        4.941366   1.000000
    6        8.120220  -0.021732
    7        8.822594  -0.000000
    8        9.654275  -0.000000
    9       10.685569  -0.000000
   10       13.822871   0.000000

  0.3333333E+00  0.4025434E-15  0.6666667E-01  0.3555556E-02
    1       -3.854677   1.000000
    2        1.008956   1.000000
    3        3.093006   1.000000
    4        3.461410   1.000000
    5        4.814092   1.000000
    6        8.295248  -0.000010
    7        8.909432  -0.000000
    8        9.705187  -0.000000
    9       10.559622  -0.000000
   10       13.763600   0.000000

  0.4000000E+00  0.3732510E-15  0.6666667E-01  0.3555556E-02
    1       -3.050917   1.000000
    2       -0.064185   1.000000
    3        3.132002   1.000000
    4        3.320473   1.000000
    5        4.682131   1.000000
    6        8.719350  -0.000000
    7        8.918122  -0.000000
    8        9.943819  -0.000000
    9       10.433758  -0.000000
   10       13.604452   0.000000

  0.4666667E+00  0.3915456E-15  0.6666667E-01  0.3555556E-02
    1       -2.167672   1.000000
    2       -1.088536   1.000000
    3        3.122983   1.000000
    4        3.243918   1.000000
    5        4.602283   1.000000
    6        8.894218  -0.000000
    7        8.994862  -0.000000
    8       10.153829  -0.000000
    9       10.504448  -0.000000
   10       13.455135   0.000000

  0.6666667E-01  0.6666667E-01  0.6666667E-01  0.3555556E-02
    1       -5.597980   1.000000
    2        2.173589   1.000000
    3        3.983526   1.000000
    4        4.233417   1.000000
    5        4.943306   1.000000
    6        8.948396  -0.000000
    7        9.327591  -0.000000
    8        9.810511  -0.000000
    9       10.203895  -0.000000
   10       13.988473   0.000000

  0.1333333E+00  0.6666667E-01  0.6666667E-01  0.7111111E-02
    1       -5.265413   1.000000
    2        2.478759   1.000000
    3        3.500480   1.000000
    4        3.820164   1.000000
    5        4.978686   1.000000
    6        8.396446  -0.000000
    7        9.076448  -0.000000
    8        9.651324  -0.000000
    9       10.559482  -0.000000
   10       13.964121   0.000000

  0.2000000E+00  0.6666667E-01  0.6666667E-01  0.7111111E-02
    1       -4.780240   1.000000
    2        2.551349   1.000000
    3        2.847644   1.000000
    4        3.619739   1.000000
    5        4.971047   1.000000
    6        7.937626   0.663167
    7        8.976860  -0.000000
    8        9.502801  -0.000000
    9       10.918740   0.000000
   10       13.970446   0.000000

  0.2666667E+00  0.6666667E-01  0.6666667E-01  0.7111111E-02
    1       -4.155970   1.000000
    2        1.565450   1.000000
    3        3.014892   1.000000
    4        3.440838   1.000000
    5        4.931910   1.000000
    6        7.798504   1.023611
    7        8.909875  -0.000000
    8        9.559300  -0.000000
    9       11.067073   0.000000
   10       13.976274   0.000000

  0.3333333E+00  0.6666667E-01  0.6666667E-01  0.7111111E-02
    1       -3.408080   1.000000
    2        0.507504   1.000000
    3        3.020008   1.000000
    4        3.329487   1.000000
    5        4.854629   1.000000
    6        7.991667   0.227497
    7        8.835031  -0.000000
    8        9.804764  -0.000000
    9       11.051644   0.000000
   10       13.862703   0.000000

  0.4000000E+00  0.6666667E-01  0.6666667E-01  0.7111111E-02
    1       -2.556821   1.000000
    2       -0.544542   1.000000
    3        2.932733   1.000000
    4        3.297455   1.000000
    5        4.765297   1.000000
    6        8.112362  -0.025361
    7        9.090265  -0.000000
    8        9.931282  -0.000000
    9       11.037669   0.000000
   10       13.792550   0.000000

  0.4666667E+00  0.6666667E-01  0.6666667E-01  0.3555556E-02
    1       -1.780330   1.000000
    2       -1.390385   1.000000
    3        2.889835   1.000000
    4        3.292311   1.000000
    5        4.726530   1.000000
    6        8.103049  -0.029509
    7        9.354281  -0.000000
    8        9.911066  -0.000000
    9       11.031602   0.000000
   10       13.784983   0.000000

  0.1333333E+00  0.1333333E+00  0.6666667E-01  0.3555556E-02
    1       -4.859439   1.000000
    2        2.743691   1.000000
    3        2.887127   1.000000
    4        3.525413   1.000000
    5        4.971838   1.000000
    6        7.806458   1.027263
    7        9.235540  -0.000000
    8        9.249991  -0.000000
    9       11.083065   0.000000
   10       14.712895   0.000000

  0.2000000E+00  0.1333333E+00  0.6666667E-01  0.7111111E-02
    1       -4.307547   1.000000
    2        2.070825   1.000000
    3        2.837875   1.000000
    4        3.342661   1.000000
    5        5.056232   1.000000
    6        7.336794   1.000000
    7        8.801438  -0.000000
    8        9.565742  -0.000000
    9       11.613768   0.000000
   10       14.307141   0.000000

  0.2666667E+00  0.1333333E+00  0.6666667E-01  0.7111111E-02
    1       -3.623594   1.000000
    2        1.117158   1.000000
    3        2.648750   1.000000
    4        3.357728   1.000000
    5        5.182562   1.000000
    6        7.179487   1.000000
    7        8.432322  -0.000000
    8        9.897387  -0.000000
    9       11.953209   0.000000
   10       14.250859   0.000000

  0.3333333E+00  0.1333333E+00  0.6666667E-01  0.7111111E-02
    1       -2.823929   1.000000
    2        0.097793   1.000000
    3        2.433360   1.000000
    4        3.414257   1.000000
    5        5.161238   1.000000
    6        7.263839   1.000000
    7        8.430714  -0.000000
    8        9.947190  -0.000000
    9       12.096165   0.000000
   10       14.332309   0.000000

  0.4000000E+00  0.1333333E+00  0.6666667E-01  0.7111111E-02
    1       -1.936363   1.000000
    2       -0.911871   1.000000
    3        2.310566   1.000000
    4        3.456440   1.000000
    5        5.081125   1.000000
    6        7.248435   1.000000
    7        8.959589  -0.000000
    8        9.590758  -0.000000
    9       12.122057   0.000000
   10       14.534422   0.000000

  0.2000000E+00  0.2000000E+00  0.6666667E-01  0.3555556E-02
    1       -3.695567   1.000000
    2        1.506628   1.000000
    3        2.325258   1.000000
    4        3.379317   1.000000
    5        5.416591   1.000000
    6        6.766302   1.000000
    7        8.263876  -0.000064
    8        9.944347  -0.000000
    9       12.414393   0.000000
   10       14.353791   0.000000

  0.2666667E+00  0.2000000E+00  0.6666667E-01  0.7111111E-02
    1       -2.958580   1.000000
    2        0.738885   1.000000
    3        1.831868   1.000000
    4        3.517293   1.000000
    5        5.723028   1.000000
    6        6.501484   1.000000
    7        7.907255   0.870478
    8        9.992248  -0.000000
    9       13.059701   0.000000
   10       14.514248   0.000000

  0.3333333E+00  0.2000000E+00  0.6666667E-01  0.7111111E-02
    1       -2.114857   1.000000
    2       -0.203343   1.000000
    3        1.567806   1.000000
    4        3.667827   1.000000
    5        5.521471   1.000000
    6        6.663353   1.000000
    7        8.096058  -0.032225
    8        9.566195  -0.000000
    9       13.320636   0.000000
   10       14.977546   0.000000

  0.4000000E+00  0.2000000E+00  0.6666667E-01  0.3555556E-02
    1       -1.263221   1.000000
    2       -1.100636   1.000000
    3        1.485918   1.000000
    4        3.742927   1.000000
    5        5.381310   1.000000
    6        6.691390   1.000000
    7        8.716143  -0.000000
    8        8.923072  -0.000000
    9       13.359135   0.000000
   10       15.277899   0.000000

  0.2666667E+00  0.2666667E+00  0.6666667E-01  0.3555556E-02
    1       -2.176857   1.000000
    2        0.350442   1.000000
    3        0.995677   1.000000
    4        3.777563   1.000000
    5        5.709360   1.000000
    6        6.565197   1.000000
    7        7.603412   1.000003
    8        9.562706  -0.000000
    9       14.161768   0.000000
   10       14.677718   0.000000

  0.3333333E+00  0.2666667E+00  0.6666667E-01  0.7111111E-02
    1       -1.302620   1.000000
    2       -0.387980   1.000000
    3        0.617513   1.000000
    4        4.065452   1.000000
    5        5.210533   1.000000
    6        6.986471   1.000000
    7        7.890367   0.948797
    8        8.780928  -0.000000
    9       14.509818   0.000000
   10       15.254209   0.000000

  0.3333333E+00  0.3333333E+00  0.6666667E-01  0.1185185E-02
    1       -0.520771   1.000000
    2       -0.520768   1.000000
    3       -0.146107   1.000000
    4        4.598892   1.000000
    5        4.598893   1.000000
    6        7.809172   1.028467
    7        7.809173   1.028467
    8        7.897030   0.921329
    9       15.209359   0.000000
   10       15.209360   0.000000

  0.3742002E-15  0.3742002E-15  0.1333333E+00  0.5925926E-03
    1       -5.703515   1.000000
    2        1.590069   1.000000
    3        4.262779   1.000000
    4        4.984798   1.000000
    5        4.984800   1.000000
    6        9.234010  -0.000000
    7        9.234011  -0.000000
    8        9.787023  -0.000000
    9        9.787026  -0.000000
   10       14.924397   0.000000

  0.6666667E-01  0.3766815E-15  0.1333333E+00  0.3555556E-02
    1       -5.620248   1.000000
    2        1.685437   1.000000
    3        4.203312   1.000000
    4        4.754414   1.000000
    5        5.007008   1.000000
    6        8.933785  -0.000000
    7        8.976893  -0.000000
    8        9.970306  -0.000000
    9        9.988107  -0.000000
   10       14.488930   0.000000

  0.1333333E+00  0.3754153E-15  0.1333333E+00  0.3555556E-02
    1       -5.373687   1.000000
    2        1.950122   1.000000
    3        3.891978   1.000000
    4        4.300377   1.000000
    5        5.039397   1.000000
    6        8.462230  -0.000000
    7        8.551595  -0.000000
    8       10.156388  -0.000000
    9       10.323345  -0.000000
   10       14.180620   0.000000

  0.2000000E+00  0.3870416E-15  0.1333333E+00  0.3555556E-02
    1       -4.972765   1.000000
    2        2.315408   1.000000
    3        3.074238   1.000000
    4        4.068463   1.000000
    5        5.002318   1.000000
    6        7.979129   0.320248
    7        8.401014  -0.000000
    8       10.173482  -0.000000
    9       10.657902  -0.000000
   10       13.988709   0.000000

  0.2666667E+00  0.4120044E-15  0.1333333E+00  0.3555556E-02
    1       -4.429969   1.000000
    2        2.047874   1.000000
    3        2.697049   1.000000
    4        3.874833   1.000000
    5        4.855308   1.000000
    6        7.759474   1.008564
    7        8.548246  -0.000000
    8       10.111149  -0.000000
    9       10.792666   0.000000
   10       14.034212   0.000000

  0.3333333E+00  0.4025434E-15  0.1333333E+00  0.3555556E-02
    1       -3.759122   1.000000
    2        0.983514   1.000000
    3        2.964357   1.000000
    4        3.671650   1.000000
    5        4.651607   1.000000
    6        7.880346   0.981909
    7        8.879255  -0.000000
    8       10.055286  -0.000000
    9       10.745616   0.000000
   10       14.019861   0.000000

  0.4000000E+00  0.3732510E-15  0.1333333E+00  0.3555556E-02
    1       -2.974292   1.000000
    2       -0.084591   1.000000
    3        3.105606   1.000000
    4        3.506068   1.000000
    5        4.472374   1.000000
    6        8.150506  -0.009903
    7        9.180507  -0.000000
    8       10.085133  -0.000000
    9       10.811023   0.000000
   10       13.604671   0.000000

  0.4666667E+00  0.3915456E-15  0.1333333E+00  0.3555556E-02
    1       -2.091826   1.000000
    2       -1.114206   1.000000
    3        3.137571   1.000000
    4        3.436567   1.000000
    5        4.371170   1.000000
    6        8.304742  -0.000005
    7        9.311461  -0.000000
    8       10.179296  -0.000000
    9       11.083634   0.000000
   10       13.200606   0.000000

  0.6666667E-01  0.6666667E-01  0.1333333E+00  0.3555556E-02
    1       -5.455333   1.000000
    2        1.865972   1.000000
    3        4.078951   1.000000
    4        4.330136   1.000000
    5        5.060612   1.000000
    6        8.419108  -0.000000
    7        8.858543  -0.000000
    8        9.991488  -0.000000
    9       10.319186  -0.000000
   10       14.362393   0.000000

  0.1333333E+00  0.6666667E-01  0.1333333E+00  0.7111111E-02
    1       -5.131568   1.000000
    2        2.185114   1.000000
    3        3.527427   1.000000
    4        3.940444   1.000000
    5        5.114532   1.000000
    6        7.844805   1.033716
    7        8.723064  -0.000000
    8       10.020937  -0.000000
    9       10.653893  -0.000000
   10       14.269414   0.000000

  0.2000000E+00  0.6666667E-01  0.1333333E+00  0.7111111E-02
    1       -4.659616   1.000000
    2        2.520125   1.000000
    3        2.626971   1.000000
    4        3.723730   1.000000
    5        5.081752   1.000000
    6        7.436731   1.000000
    7        8.767746  -0.000000
    8        9.958696  -0.000000
    9       10.937035   0.000000
   10       14.184959   0.000000

  0.2666667E+00  0.6666667E-01  0.1333333E+00  0.7111111E-02
    1       -4.052600   1.000000
    2        1.550220   1.000000
    3        2.878415   1.000000
    4        3.510388   1.000000
    5        4.929899   1.000000
    6        7.375700   1.000000
    7        9.006438  -0.000000
    8        9.832524  -0.000000
    9       11.079426   0.000000
   10       14.164347   0.000000

  0.3333333E+00  0.6666667E-01  0.1333333E+00  0.7111111E-02
    1       -3.324379   1.000000
    2        0.487883   1.000000
    3        3.021223   1.000000
    4        3.389501   1.000000
    5        4.702800   1.000000
    6        7.646968   1.000052
    7        9.228968  -0.000000
    8        9.777652  -0.000000
    9       11.179162   0.000000
   10       13.909219   0.000000

  0.4000000E+00  0.6666667E-01  0.1333333E+00  0.7111111E-02
    1       -2.489515   1.000000
    2       -0.559498   1.000000
    3        2.969646   1.000000
    4        3.435776   1.000000
    5        4.502445   1.000000
    6        7.954878   0.520697
    7        9.318175  -0.000000
    8        9.873108  -0.000000
    9       11.349138   0.000000
   10       13.588177   0.000000

  0.4666667E+00  0.6666667E-01  0.1333333E+00  0.3555556E-02
    1       -1.613214   1.000000
    2       -1.508607   1.000000
    3        2.928629   1.000000
    4        3.476096   1.000000
    5        4.421263   1.000000
    6        8.061219  -0.028711
    7        9.356330  -0.000000
    8        9.949291  -0.000000
    9       11.449134   0.000000
   10       13.426852   0.000000

  0.1333333E+00  0.1333333E+00  0.1333333E+00  0.3555556E-02
    1       -4.736713   1.000000
    2        2.515287   1.000000
    3        2.951015   1.000000
    4        3.446648   1.000000
    5        5.248543   1.000000
    6        7.192006   1.000000
    7        8.988870  -0.000000
    8        9.796584  -0.000000
    9       11.033818   0.000000
   10       14.609014   0.000000

  0.2000000E+00  0.1333333E+00  0.1333333E+00  0.7111111E-02
    1       -4.200300   1.000000
    2        2.098774   1.000000
    3        2.832210   1.000000
    4        3.086948   1.000000
    5        5.343597   1.000000
    6        6.742928   1.000000
    7        9.280905  -0.000000
    8        9.559067  -0.000000
    9       11.423626   0.000000
   10       14.284256   0.000000

  0.2666667E+00  0.1333333E+00  0.1333333E+00  0.7111111E-02
    1       -3.535492   1.000000
    2        1.114022   1.000000
    3        2.705701   1.000000
    4        3.197348   1.000000
    5        5.205381   1.000000
    6        6.800262   1.000000
    7        9.146976  -0.000000
    8        9.697175  -0.000000
    9       11.771696   0.000000
   10       14.155277   0.000000

  0.3333333E+00  0.1333333E+00  0.1333333E+00  0.7111111E-02
    1       -2.756473   1.000000
    2        0.088511   1.000000
    3        2.484094   1.000000
    4        3.426549   1.000000
    5        4.891062   1.000000
    6        7.229762   1.000000
    7        8.993457  -0.000000
    8        9.760301  -0.000000
    9       12.067764   0.000000
   10       14.075936   0.000000

  0.4000000E+00  0.1333333E+00  0.1333333E+00  0.7111111E-02
    1       -1.879071   1.000000
    2       -0.921483   1.000000
    3        2.363678   1.000000
    4        3.585910   1.000000
    5        4.650317   1.000000
    6        7.545032   1.000000
    7        9.148811  -0.000000
    8        9.547741  -0.000000
    9       12.218145   0.000000
   10       14.063777   0.000000

  0.2000000E+00  0.2000000E+00  0.1333333E+00  0.3555556E-02
    1       -3.606010   1.000000
    2        1.535166   1.000000
    3        2.339006   1.000000
    4        3.166293   1.000000
    5        5.760070   1.000000
    6        6.109837   1.000000
    7        9.049645  -0.000000
    8        9.740516  -0.000000
    9       12.051027   0.000000
   10       14.226883   0.000000

  0.2666667E+00  0.2000000E+00  0.1333333E+00  0.7111111E-02
    1       -2.890218   1.000000
    2        0.741823   1.000000
    3        1.858333   1.000000
    4        3.440104   1.000000
    5        5.465594   1.000000
    6        6.442305   1.000000
    7        8.669160  -0.000000
    8        9.819521  -0.000000
    9       12.705286   0.000000
   10       14.301003   0.000000
