   74   74    1    1
  0.2110353E+02  0.1053953E-08  0.6141200E-09  0.2412750E-08  0.5000000E-15
   1.0000000000000000E-004
  CAR 
 Name                                    
    284     23    184

  0.3742002E-15  0.3742002E-15  0.1262379E-14  0.2222222E-01
    1      -13.910885   1.000000
    2      -12.778038   1.000000
    3      -12.725858   1.000000
    4      -12.677649   1.000000
    5      -11.749428   1.000000
    6      -11.616237   1.000000
    7      -11.571569   1.000000
    8      -11.527622   1.000000
    9      -11.354442   1.000000
   10      -11.199568   1.000000
   11      -11.121720   1.000000
   12      -11.019983   1.000000
   13      -10.980355   1.000000
   14      -10.661081   1.000000
   15      -10.442719   1.000000
   16      -10.233235   1.000000
   17      -10.090841   1.000000
   18      -10.065713   1.000000
   19       -9.798890   1.000000
   20       -9.625081   1.000000
   21       -9.598381   1.000000
   22       -9.515300   1.000000
   23       -9.370849   1.000000
   24       -9.341106   1.000000
   25       -8.834643   1.000000
   26       -8.805181   1.000000
   27       -8.605669   1.000000
   28       -8.421617   1.000000
   29       -8.374861   1.000000
   30       -8.203349   1.000000
   31       -8.090911   1.000000
   32       -7.850613   1.000000
   33       -7.670509   1.000000
   34       -7.391607   1.000000
   35       -7.232760   1.000000
   36       -7.179695   1.000000
   37       -7.005991   1.000000
   38       -6.938096   1.000000
   39       -6.886929   1.000000
   40       -6.880658   1.000000
   41       -6.686693   1.000000
   42       -6.667695   1.000000
   43       -6.550338   1.000000
   44       -6.520266   1.000000
   45       -6.422036   1.000000
   46       -6.370844   1.000000
   47       -6.299849   1.000000
   48       -6.187767   1.000000
   49       -6.123472   1.000000
   50       -6.019423   1.000000
   51       -5.793742   1.000000
   52       -5.748634   1.000000
   53       -5.708547   1.000000
   54       -5.670300   1.000000
   55       -5.548060   1.000000
   56       -5.489070   1.000000
   57       -5.468704   1.000000
   58       -5.296511   1.000000
   59       -5.290291   1.000000
   60       -5.276224   1.000000
   61       -5.149517   1.000000
   62       -5.137418   1.000000
   63       -4.902843   1.000000
   64       -4.788806   1.000000
   65       -4.658376   1.000000
   66       -4.616404   1.000000
   67       -4.612994   1.000000
   68       -4.564750   1.000000
   69       -4.447789   1.000000
   70       -4.390214   1.000000
   71       -4.317207   1.000000
   72       -4.280103   1.000000
   73       -4.161408   1.000000
   74       -4.139586   1.000000
   75       -4.104885   1.000000
   76       -4.090399   1.000000
   77       -4.054406   1.000000
   78       -3.983375   1.000000
   79       -3.883349   1.000000
   80       -3.881686   1.000000
   81       -3.856543   1.000000
   82       -3.826443   1.000000
   83       -3.794535   1.000000
   84       -3.782461   1.000000
   85       -3.717869   1.000000
   86       -3.698223   1.000000
   87       -3.599420   1.000000
   88       -3.551433   1.000000
   89       -3.523330   1.000000
   90       -3.463953   1.000000
   91       -3.435570   1.000000
   92       -3.427822   1.000000
   93       -3.260554   1.000000
   94       -3.164200   1.000000
   95       -3.063973   1.000000
   96       -3.027790   1.000000
   97       -2.883776   1.000000
   98       -2.814312   1.000000
   99       -2.739718   1.000000
  100       -2.682493   1.000000
  101       -2.591420   1.000000
  102       -2.489984   1.000000
  103       -2.469626   1.000000
  104       -2.316108   1.000000
  105       -2.301463   1.000000
  106       -2.286358   1.000000
  107       -2.230863   1.000000
  108       -2.125026   1.000000
  109       -2.048731   1.000000
  110       -2.017254   1.000000
  111       -1.918135   1.000000
  112       -1.841147   1.000000
  113       -1.838868   1.000000
  114       -1.782830   1.000000
  115       -1.752692   1.000000
  116       -1.724350   1.000000
  117       -1.694990   1.000000
  118       -1.636134   1.000000
  119       -1.592761   1.000000
  120       -1.564093   1.000000
  121       -1.285523   1.000000
  122       -0.943860   1.000000
  123       -0.937803   1.000000
  124       -0.928734   1.000000
  125       -0.715253   1.000000
  126       -0.700968   1.000000
  127       -0.627678   1.000000
  128       -0.451595   1.000000
  129       -0.348085   1.000000
  130       -0.267273   1.000000
  131       -0.143166   1.000000
  132       -0.109696   1.000000
  133       -0.034425   1.000000
  134        0.052044   1.000000
  135        0.264786   1.000292
  136        0.275003   1.000487
  137        0.345662   1.008560
  138        0.381739   1.022241
  139        0.388746   1.025479
  140        0.416741   1.035188
  141        0.494646   0.863891
  142        0.516879   0.716881
  143        0.592948   0.133098
  144        0.621789   0.014533
  145        0.665975  -0.035458
  146        0.698364  -0.025453
  147        0.718980  -0.016239
  148        0.791453  -0.001270
  149        0.860747  -0.000035
  150        0.893814  -0.000004
  151        1.084010  -0.000000
  152        1.182021  -0.000000
  153        1.192812  -0.000000
  154        1.240562  -0.000000
  155        1.289841  -0.000000
  156        1.344251  -0.000000
  157        1.392363  -0.000000
  158        1.402084  -0.000000
  159        1.449328  -0.000000
  160        1.493045  -0.000000
  161        1.502860  -0.000000
  162        1.523494  -0.000000
  163        1.589725  -0.000000
  164        1.663120  -0.000000
  165        1.669153  -0.000000
  166        1.732366  -0.000000
  167        1.770453  -0.000000
  168        1.803788  -0.000000
  169        1.814361  -0.000000
  170        1.833433  -0.000000
  171        1.848680  -0.000000
  172        1.857755  -0.000000
  173        1.866727  -0.000000
  174        1.931824  -0.000000
  175        1.974976  -0.000000
  176        1.999921  -0.000000
  177        2.328039  -0.000000
  178        2.429470  -0.000000
  179        2.447518  -0.000000
  180        2.617805  -0.000000
  181        2.655451  -0.000000
  182        2.819431  -0.000000
  183        3.027111  -0.000000
  184        3.722533   0.000000

  0.2000000E+00  0.3742002E-15  0.1262379E-14  0.4444444E-01
    1      -13.862318   1.000000
    2      -13.155022   1.000000
    3      -12.642726   1.000000
    4      -12.266763   1.000000
    5      -11.977108   1.000000
    6      -11.738962   1.000000
    7      -11.580287   1.000000
    8      -11.281671   1.000000
    9      -11.197068   1.000000
   10      -11.158967   1.000000
   11      -11.064572   1.000000
   12      -11.059891   1.000000
   13      -10.900662   1.000000
   14      -10.728601   1.000000
   15      -10.530056   1.000000
   16      -10.494884   1.000000
   17      -10.489267   1.000000
   18       -9.812850   1.000000
   19       -9.769102   1.000000
   20       -9.606115   1.000000
   21       -9.488310   1.000000
   22       -9.449968   1.000000
   23       -9.375299   1.000000
   24       -9.346176   1.000000
   25       -9.051454   1.000000
   26       -8.803864   1.000000
   27       -8.351334   1.000000
   28       -8.307419   1.000000
   29       -8.211598   1.000000
   30       -8.121380   1.000000
   31       -8.076133   1.000000
   32       -8.022322   1.000000
   33       -7.573254   1.000000
   34       -7.443819   1.000000
   35       -7.421901   1.000000
   36       -7.260479   1.000000
   37       -7.120260   1.000000
   38       -7.058872   1.000000
   39       -6.979235   1.000000
   40       -6.900737   1.000000
   41       -6.771424   1.000000
   42       -6.621445   1.000000
   43       -6.605417   1.000000
   44       -6.482144   1.000000
   45       -6.474943   1.000000
   46       -6.291028   1.000000
   47       -6.128321   1.000000
   48       -6.124210   1.000000
   49       -6.007781   1.000000
   50       -5.955630   1.000000
   51       -5.876313   1.000000
   52       -5.836699   1.000000
   53       -5.617821   1.000000
   54       -5.582964   1.000000
   55       -5.530927   1.000000
   56       -5.459025   1.000000
   57       -5.379733   1.000000
   58       -5.348057   1.000000
   59       -5.291523   1.000000
   60       -5.189031   1.000000
   61       -5.155603   1.000000
   62       -5.129309   1.000000
   63       -5.028414   1.000000
   64       -4.803322   1.000000
   65       -4.709039   1.000000
   66       -4.672509   1.000000
   67       -4.632390   1.000000
   68       -4.533326   1.000000
   69       -4.463145   1.000000
   70       -4.431892   1.000000
   71       -4.268689   1.000000
   72       -4.241343   1.000000
   73       -4.134568   1.000000
   74       -4.131613   1.000000
   75       -4.117925   1.000000
   76       -4.091460   1.000000
   77       -4.005850   1.000000
   78       -3.972000   1.000000
   79       -3.883354   1.000000
   80       -3.872239   1.000000
   81       -3.857850   1.000000
   82       -3.843503   1.000000
   83       -3.838009   1.000000
   84       -3.820791   1.000000
   85       -3.665804   1.000000
   86       -3.627064   1.000000
   87       -3.573240   1.000000
   88       -3.517146   1.000000
   89       -3.510581   1.000000
   90       -3.471925   1.000000
   91       -3.456027   1.000000
   92       -3.444819   1.000000
   93       -3.427111   1.000000
   94       -3.137406   1.000000
   95       -3.108471   1.000000
   96       -3.093411   1.000000
   97       -2.891095   1.000000
   98       -2.866615   1.000000
   99       -2.796987   1.000000
  100       -2.693578   1.000000
  101       -2.672304   1.000000
  102       -2.637047   1.000000
  103       -2.300953   1.000000
  104       -2.250158   1.000000
  105       -2.230519   1.000000
  106       -2.187253   1.000000
  107       -2.154667   1.000000
  108       -2.119601   1.000000
  109       -2.075405   1.000000
  110       -1.964417   1.000000
  111       -1.907629   1.000000
  112       -1.906859   1.000000
  113       -1.848415   1.000000
  114       -1.720750   1.000000
  115       -1.684070   1.000000
  116       -1.658712   1.000000
  117       -1.652143   1.000000
  118       -1.608291   1.000000
  119       -1.537846   1.000000
  120       -1.453671   1.000000
  121       -1.244406   1.000000
  122       -1.037973   1.000000
  123       -0.970686   1.000000
  124       -0.949737   1.000000
  125       -0.832031   1.000000
  126       -0.711435   1.000000
  127       -0.703724   1.000000
  128       -0.485867   1.000000
  129       -0.467640   1.000000
  130       -0.356829   1.000000
  131       -0.296039   1.000000
  132       -0.218990   1.000000
  133       -0.113805   1.000000
  134       -0.022285   1.000000
  135        0.119837   1.000000
  136        0.194624   1.000005
  137        0.359568   1.012957
  138        0.371378   1.017621
  139        0.441185   1.027390
  140        0.491811   0.879377
  141        0.572361   0.266868
  142        0.615614   0.033050
  143        0.642787  -0.024342
  144        0.676371  -0.034025
  145        0.699964  -0.024715
  146        0.725855  -0.013553
  147        0.760982  -0.004370
  148        0.787842  -0.001487
  149        0.816069  -0.000399
  150        0.921868  -0.000001
  151        1.138243  -0.000000
  152        1.208487  -0.000000
  153        1.243919  -0.000000
  154        1.333232  -0.000000
  155        1.345699  -0.000000
  156        1.362193  -0.000000
  157        1.371531  -0.000000
  158        1.413580  -0.000000
  159        1.493738  -0.000000
  160        1.543104  -0.000000
  161        1.555891  -0.000000
  162        1.586744  -0.000000
  163        1.614063  -0.000000
  164        1.644838  -0.000000
  165        1.676507  -0.000000
  166        1.704994  -0.000000
  167        1.747562  -0.000000
  168        1.771409  -0.000000
  169        1.820410  -0.000000
  170        1.850496  -0.000000
  171        1.889745  -0.000000
  172        1.895807  -0.000000
  173        1.937786  -0.000000
  174        1.955173  -0.000000
  175        2.005126  -0.000000
  176        2.124203  -0.000000
  177        2.151668  -0.000000
  178        2.205933  -0.000000
  179        2.256973  -0.000000
  180        2.328965  -0.000000
  181        2.662790  -0.000000
  182        2.797448  -0.000000
  183        3.025383  -0.000000
  184        3.594327   0.000000

  0.4000000E+00  0.3742002E-15  0.1262379E-14  0.4444444E-01
    1      -13.717839   1.000000
    2      -13.479715   1.000000
    3      -12.510893   1.000000
    4      -12.279899   1.000000
    5      -11.726209   1.000000
    6      -11.707349   1.000000
    7      -11.652533   1.000000
    8      -11.199139   1.000000
    9      -11.187579   1.000000
   10      -11.138018   1.000000
   11      -11.030374   1.000000
   12      -10.992368   1.000000
   13      -10.882680   1.000000
   14      -10.772322   1.000000
   15      -10.755040   1.000000
   16      -10.620999   1.000000
   17      -10.599900   1.000000
   18      -10.036336   1.000000
   19       -9.823827   1.000000
   20       -9.586668   1.000000
   21       -9.445008   1.000000
   22       -9.424555   1.000000
   23       -9.344698   1.000000
   24       -9.200479   1.000000
   25       -9.009305   1.000000
   26       -8.755831   1.000000
   27       -8.313287   1.000000
   28       -8.191973   1.000000
   29       -7.979087   1.000000
   30       -7.928804   1.000000
   31       -7.836771   1.000000
   32       -7.816056   1.000000
   33       -7.784713   1.000000
   34       -7.673613   1.000000
   35       -7.565754   1.000000
   36       -7.523143   1.000000
   37       -7.446891   1.000000
   38       -7.265782   1.000000
   39       -7.144517   1.000000
   40       -6.943808   1.000000
   41       -6.692738   1.000000
   42       -6.656788   1.000000
   43       -6.468027   1.000000
   44       -6.417816   1.000000
   45       -6.309261   1.000000
   46       -6.265781   1.000000
   47       -6.118261   1.000000
   48       -6.042355   1.000000
   49       -5.981587   1.000000
   50       -5.909511   1.000000
   51       -5.885170   1.000000
   52       -5.801025   1.000000
   53       -5.682023   1.000000
   54       -5.611971   1.000000
   55       -5.532094   1.000000
   56       -5.455448   1.000000
   57       -5.334256   1.000000
   58       -5.315955   1.000000
   59       -5.264899   1.000000
   60       -5.164754   1.000000
   61       -5.076642   1.000000
   62       -4.988266   1.000000
   63       -4.943417   1.000000
   64       -4.834657   1.000000
   65       -4.735983   1.000000
   66       -4.680137   1.000000
   67       -4.618392   1.000000
   68       -4.576935   1.000000
   69       -4.536219   1.000000
   70       -4.475657   1.000000
   71       -4.356548   1.000000
   72       -4.287759   1.000000
   73       -4.177457   1.000000
   74       -4.112671   1.000000
   75       -4.106745   1.000000
   76       -4.084275   1.000000
   77       -4.049401   1.000000
   78       -4.034082   1.000000
   79       -3.868049   1.000000
   80       -3.842221   1.000000
   81       -3.787664   1.000000
   82       -3.780941   1.000000
   83       -3.767156   1.000000
   84       -3.741133   1.000000
   85       -3.697085   1.000000
   86       -3.665547   1.000000
   87       -3.592338   1.000000
   88       -3.552381   1.000000
   89       -3.531900   1.000000
   90       -3.479706   1.000000
   91       -3.372949   1.000000
   92       -3.370324   1.000000
   93       -3.328785   1.000000
   94       -3.248904   1.000000
   95       -3.199100   1.000000
   96       -3.126742   1.000000
   97       -3.116494   1.000000
   98       -3.019217   1.000000
   99       -2.920406   1.000000
  100       -2.813978   1.000000
  101       -2.687844   1.000000
  102       -2.432232   1.000000
  103       -2.303163   1.000000
  104       -2.292287   1.000000
  105       -2.286518   1.000000
  106       -2.158775   1.000000
  107       -1.987798   1.000000
  108       -1.976311   1.000000
  109       -1.960510   1.000000
  110       -1.945986   1.000000
  111       -1.850536   1.000000
  112       -1.830170   1.000000
  113       -1.763323   1.000000
  114       -1.695939   1.000000
  115       -1.642666   1.000000
  116       -1.578440   1.000000
  117       -1.544867   1.000000
  118       -1.394859   1.000000
  119       -1.382389   1.000000
  120       -1.314653   1.000000
  121       -1.166826   1.000000
  122       -1.120065   1.000000
  123       -1.090621   1.000000
  124       -1.079716   1.000000
  125       -1.048545   1.000000
  126       -0.842746   1.000000
  127       -0.801602   1.000000
  128       -0.774245   1.000000
  129       -0.604316   1.000000
  130       -0.569620   1.000000
  131       -0.467423   1.000000
  132       -0.341855   1.000000
  133       -0.125831   1.000000
  134       -0.085932   1.000000
  135        0.054239   1.000000
  136        0.276348   1.000520
  137        0.338019   1.006664
  138        0.354657   1.011262
  139        0.383842   1.023212
  140        0.472737   0.962601
  141        0.512587   0.748456
  142        0.569336   0.289446
  143        0.639989  -0.021056
  144        0.708442  -0.020812
  145        0.746003  -0.007374
  146        0.793840  -0.001142
  147        0.803733  -0.000725
  148        0.960127  -0.000000
  149        0.999308  -0.000000
  150        1.034850  -0.000000
  151        1.080288  -0.000000
  152        1.252279  -0.000000
  153        1.289974  -0.000000
  154        1.347261  -0.000000
  155        1.402414  -0.000000
  156        1.450602  -0.000000
  157        1.480379  -0.000000
  158        1.516057  -0.000000
  159        1.546140  -0.000000
  160        1.573482  -0.000000
  161        1.609374  -0.000000
  162        1.639239  -0.000000
  163        1.668151  -0.000000
  164        1.706408  -0.000000
  165        1.733731  -0.000000
  166        1.738312  -0.000000
  167        1.773775  -0.000000
  168        1.786691  -0.000000
  169        1.835926  -0.000000
  170        1.858878  -0.000000
  171        1.910464  -0.000000
  172        1.917017  -0.000000
  173        1.931048  -0.000000
  174        1.971372  -0.000000
  175        2.056514  -0.000000
  176        2.123022  -0.000000
  177        2.136842  -0.000000
  178        2.190611  -0.000000
  179        2.244707  -0.000000
  180        2.270825  -0.000000
  181        2.906261  -0.000000
  182        3.014859  -0.000000
  183        3.195027  -0.000000
  184        3.405336   0.000000

  0.3742002E-15  0.1111111E+00  0.1262379E-14  0.4444444E-01
    1      -13.864040   1.000000
    2      -12.738548   1.000000
    3      -12.691649   1.000000
    4      -12.639069   1.000000
    5      -11.853239   1.000000
    6      -11.588552   1.000000
    7      -11.565245   1.000000
    8      -11.543014   1.000000
    9      -11.393202   1.000000
   10      -11.245783   1.000000
   11      -11.097839   1.000000
   12      -11.022882   1.000000
   13      -10.990087   1.000000
   14      -10.632560   1.000000
   15      -10.463955   1.000000
   16      -10.209458   1.000000
   17      -10.072648   1.000000
   18      -10.027664   1.000000
   19       -9.797276   1.000000
   20       -9.638744   1.000000
   21       -9.615400   1.000000
   22       -9.536910   1.000000
   23       -9.386006   1.000000
   24       -9.321980   1.000000
   25       -8.855274   1.000000
   26       -8.783561   1.000000
   27       -8.603585   1.000000
   28       -8.421677   1.000000
   29       -8.368218   1.000000
   30       -8.225428   1.000000
   31       -7.924381   1.000000
   32       -7.862429   1.000000
   33       -7.775314   1.000000
   34       -7.377087   1.000000
   35       -7.350286   1.000000
   36       -7.289292   1.000000
   37       -6.980004   1.000000
   38       -6.921193   1.000000
   39       -6.895971   1.000000
   40       -6.866305   1.000000
   41       -6.627707   1.000000
   42       -6.598731   1.000000
   43       -6.550061   1.000000
   44       -6.522760   1.000000
   45       -6.422290   1.000000
   46       -6.354610   1.000000
   47       -6.313315   1.000000
   48       -6.190008   1.000000
   49       -6.088375   1.000000
   50       -6.046300   1.000000
   51       -5.860278   1.000000
   52       -5.724011   1.000000
   53       -5.642764   1.000000
   54       -5.576605   1.000000
   55       -5.552310   1.000000
   56       -5.527726   1.000000
   57       -5.398385   1.000000
   58       -5.331662   1.000000
   59       -5.246940   1.000000
   60       -5.207067   1.000000
   61       -5.128512   1.000000
   62       -5.112270   1.000000
   63       -4.899864   1.000000
   64       -4.724140   1.000000
   65       -4.700611   1.000000
   66       -4.603773   1.000000
   67       -4.593245   1.000000
   68       -4.510067   1.000000
   69       -4.459743   1.000000
   70       -4.441999   1.000000
   71       -4.313627   1.000000
   72       -4.246574   1.000000
   73       -4.192952   1.000000
   74       -4.180222   1.000000
   75       -4.118097   1.000000
   76       -4.098025   1.000000
   77       -4.085984   1.000000
   78       -3.989814   1.000000
   79       -3.983760   1.000000
   80       -3.977519   1.000000
   81       -3.967563   1.000000
   82       -3.865805   1.000000
   83       -3.862053   1.000000
   84       -3.747100   1.000000
   85       -3.684735   1.000000
   86       -3.663148   1.000000
   87       -3.635908   1.000000
   88       -3.614783   1.000000
   89       -3.543577   1.000000
   90       -3.446961   1.000000
   91       -3.441468   1.000000
   92       -3.409701   1.000000
   93       -3.385344   1.000000
   94       -3.202739   1.000000
   95       -2.982377   1.000000
   96       -2.848242   1.000000
   97       -2.819139   1.000000
   98       -2.817192   1.000000
   99       -2.725254   1.000000
  100       -2.698310   1.000000
  101       -2.566835   1.000000
  102       -2.496440   1.000000
  103       -2.479850   1.000000
  104       -2.420288   1.000000
  105       -2.365750   1.000000
  106       -2.245243   1.000000
  107       -2.179635   1.000000
  108       -2.143819   1.000000
  109       -2.138606   1.000000
  110       -2.040639   1.000000
  111       -1.992959   1.000000
  112       -1.914719   1.000000
  113       -1.884364   1.000000
  114       -1.807420   1.000000
  115       -1.754067   1.000000
  116       -1.656651   1.000000
  117       -1.639296   1.000000
  118       -1.612117   1.000000
  119       -1.592567   1.000000
  120       -1.465552   1.000000
  121       -1.247097   1.000000
  122       -1.027639   1.000000
  123       -0.974414   1.000000
  124       -0.805876   1.000000
  125       -0.754586   1.000000
  126       -0.674026   1.000000
  127       -0.639437   1.000000
  128       -0.520158   1.000000
  129       -0.500224   1.000000
  130       -0.246391   1.000000
  131       -0.210417   1.000000
  132       -0.127654   1.000000
  133        0.061587   1.000000
  134        0.105928   1.000000
  135        0.185101   1.000002
  136        0.232568   1.000050
  137        0.278571   1.000579
  138        0.328031   1.004695
  139        0.357443   1.012205
  140        0.381743   1.022243
  141        0.394408   1.028042
  142        0.461240   0.995670
  143        0.607822   0.061643
  144        0.623746   0.009393
  145        0.649128  -0.030006
  146        0.781002  -0.001989
  147        0.829655  -0.000199
  148        0.835226  -0.000147
  149        1.002462  -0.000000
  150        1.058434  -0.000000
  151        1.113218  -0.000000
  152        1.165157  -0.000000
  153        1.181070  -0.000000
  154        1.247216  -0.000000
  155        1.316240  -0.000000
  156        1.351688  -0.000000
  157        1.398644  -0.000000
  158        1.414647  -0.000000
  159        1.477430  -0.000000
  160        1.498702  -0.000000
  161        1.522169  -0.000000
  162        1.564121  -0.000000
  163        1.571591  -0.000000
  164        1.579422  -0.000000
  165        1.646960  -0.000000
  166        1.716946  -0.000000
  167        1.748999  -0.000000
  168        1.786656  -0.000000
  169        1.809227  -0.000000
  170        1.849467  -0.000000
  171        1.856921  -0.000000
  172        1.888086  -0.000000
  173        1.918456  -0.000000
  174        1.937153  -0.000000
  175        1.974080  -0.000000
  176        2.010294  -0.000000
  177        2.023893  -0.000000
  178        2.107158  -0.000000
  179        2.127434  -0.000000
  180        2.311173  -0.000000
  181        2.557528  -0.000000
  182        2.592888  -0.000000
  183        2.651839  -0.000000
  184        2.809720  -0.000000

  0.2000000E+00  0.1111111E+00  0.1262379E-14  0.4444444E-01
    1      -13.815879   1.000000
    2      -13.114664   1.000000
    3      -12.603533   1.000000
    4      -12.235322   1.000000
    5      -11.944395   1.000000
    6      -11.839033   1.000000
    7      -11.634722   1.000000
    8      -11.303511   1.000000
    9      -11.242648   1.000000
   10      -11.134045   1.000000
   11      -11.082197   1.000000
   12      -11.036869   1.000000
   13      -10.899687   1.000000
   14      -10.707548   1.000000
   15      -10.514492   1.000000
   16      -10.502925   1.000000
   17      -10.463983   1.000000
   18       -9.820570   1.000000
   19       -9.746967   1.000000
   20       -9.615528   1.000000
   21       -9.507886   1.000000
   22       -9.441336   1.000000
   23       -9.370722   1.000000
   24       -9.353964   1.000000
   25       -9.051792   1.000000
   26       -8.800869   1.000000
   27       -8.357354   1.000000
   28       -8.305652   1.000000
   29       -8.216329   1.000000
   30       -8.148167   1.000000
   31       -8.071694   1.000000
   32       -7.864870   1.000000
   33       -7.659315   1.000000
   34       -7.528580   1.000000
   35       -7.410934   1.000000
   36       -7.340568   1.000000
   37       -7.052308   1.000000
   38       -7.031000   1.000000
   39       -6.961575   1.000000
   40       -6.916383   1.000000
   41       -6.756499   1.000000
   42       -6.606764   1.000000
   43       -6.568487   1.000000
   44       -6.542687   1.000000
   45       -6.476535   1.000000
   46       -6.431993   1.000000
   47       -6.188629   1.000000
   48       -6.052889   1.000000
   49       -5.966133   1.000000
   50       -5.891613   1.000000
   51       -5.844554   1.000000
   52       -5.766371   1.000000
   53       -5.609196   1.000000
   54       -5.589379   1.000000
   55       -5.560627   1.000000
   56       -5.437816   1.000000
   57       -5.380665   1.000000
   58       -5.268777   1.000000
   59       -5.221328   1.000000
   60       -5.196725   1.000000
   61       -5.147541   1.000000
   62       -5.087031   1.000000
   63       -5.011460   1.000000
   64       -4.821388   1.000000
   65       -4.668346   1.000000
   66       -4.645973   1.000000
   67       -4.573907   1.000000
   68       -4.517729   1.000000
   69       -4.462055   1.000000
   70       -4.426561   1.000000
   71       -4.291214   1.000000
   72       -4.261077   1.000000
   73       -4.163214   1.000000
   74       -4.135105   1.000000
   75       -4.109363   1.000000
   76       -4.087436   1.000000
   77       -4.062792   1.000000
   78       -4.042955   1.000000
   79       -3.999067   1.000000
   80       -3.960936   1.000000
   81       -3.942367   1.000000
   82       -3.897548   1.000000
   83       -3.830402   1.000000
   84       -3.772973   1.000000
   85       -3.702755   1.000000
   86       -3.650314   1.000000
   87       -3.628567   1.000000
   88       -3.595300   1.000000
   89       -3.552027   1.000000
   90       -3.468169   1.000000
   91       -3.425775   1.000000
   92       -3.392454   1.000000
   93       -3.368865   1.000000
   94       -3.179623   1.000000
   95       -3.050510   1.000000
   96       -2.950966   1.000000
   97       -2.922349   1.000000
   98       -2.881564   1.000000
   99       -2.775308   1.000000
  100       -2.709242   1.000000
  101       -2.682689   1.000000
  102       -2.618029   1.000000
  103       -2.344195   1.000000
  104       -2.320413   1.000000
  105       -2.273227   1.000000
  106       -2.200678   1.000000
  107       -2.172572   1.000000
  108       -2.148021   1.000000
  109       -2.025261   1.000000
  110       -1.991336   1.000000
  111       -1.915321   1.000000
  112       -1.896675   1.000000
  113       -1.845911   1.000000
  114       -1.819162   1.000000
  115       -1.737019   1.000000
  116       -1.710781   1.000000
  117       -1.635763   1.000000
  118       -1.569665   1.000000
  119       -1.502406   1.000000
  120       -1.417697   1.000000
  121       -1.218639   1.000000
  122       -1.079584   1.000000
  123       -0.975912   1.000000
  124       -0.898886   1.000000
  125       -0.858545   1.000000
  126       -0.758824   1.000000
  127       -0.712390   1.000000
  128       -0.652312   1.000000
  129       -0.418006   1.000000
  130       -0.350520   1.000000
  131       -0.181041   1.000000
  132       -0.110385   1.000000
  133        0.015670   1.000000
  134        0.049268   1.000000
  135        0.096373   1.000000
  136        0.113811   1.000000
  137        0.229393   1.000041
  138        0.279432   1.000603
  139        0.347022   1.008936
  140        0.439934   1.028465
  141        0.505496   0.797492
  142        0.530850   0.606334
  143        0.583428   0.190290
  144        0.663041  -0.035317
  145        0.679677  -0.033082
  146        0.769992  -0.003104
  147        0.899665  -0.000003
  148        0.920990  -0.000001
  149        0.941949  -0.000000
  150        1.042182  -0.000000
  151        1.085060  -0.000000
  152        1.202711  -0.000000
  153        1.277264  -0.000000
  154        1.312052  -0.000000
  155        1.381769  -0.000000
  156        1.411457  -0.000000
  157        1.433347  -0.000000