 running on   72 total cores
 distrk:  each k-point on   72 cores,    1 groups
 distr:  one band on    9 cores,    8 groups
 using from now: INCAR     
 vasp.5.4.4.18Apr17-6-g9f103f2a35 (build Dec  7 2020 12:43:57) complex           
 POSCAR found type information on POSCAR  Mo V  B  H 
 POSCAR found :  4 types and      74 ions
 scaLAPACK will be used

 ----------------------------------------------------------------------------- 
|                                                                             |
|  ADVICE TO THIS USER RUNNING 'VASP/VAMP'   (HEAR YOUR MASTER'S VOICE ...):  |
|                                                                             |
|      You enforced a specific xc-type in the INCAR file,                     |
|      a different type was found on the POTCAR file                          |
|          I HOPE YOU KNOW, WHAT YOU ARE  DOING                               |
|                                                                             |
 ----------------------------------------------------------------------------- 

 LDA part: xc-table for Pade appr. of Perdew
 POSCAR, INCAR and KPOINTS ok, starting setup
 resort distribution
 resort distribution
 resort distribution
 resort distribution
 resort distribution
 resort distribution
 resort distribution
 resort distribution
 resort distribution
 resort distribution
 resort distribution
 resort distribution
 resort distribution
 resort distribution
 resort distribution
 resort distribution
 resort distribution
 resort distribution
 resort distribution
 resort distribution
 resort distribution
 resort distribution
 resort distribution
 resort distribution
 resort distribution
 resort distribution
 resort distribution
 resort distribution
 resort distribution
 resort distribution
 resort distribution
 resort distribution
 resort distribution
 resort distribution
 resort distribution
 resort distribution
 resort distribution
 resort distribution
 resort distribution
 resort distribution
 resort distribution
 resort distribution
 resort distribution
 resort distribution
 resort distribution
 resort distribution
 resort distribution
 resort distribution
 resort distribution
 resort distribution
 resort distribution
 resort distribution
 resort distribution
 resort distribution
 resort distribution
 resort distribution
 resort distribution
 resort distribution
 resort distribution
 resort distribution
 resort distribution
 resort distribution
 resort distribution
 resort distribution
 resort distribution
 resort distribution
 resort distribution
 resort distribution
 resort distribution
 resort distribution
 resort distribution
 resort distribution
 FFT: planning ...
 WAVECAR not read
 augmentation electrons   284.06513546366921     
 soft         electrons   0.0000000000000000     
 augmentation electrons   284.06513546366921     
 soft         electrons   0.0000000000000000     
 augmentation electrons   284.06513546366921     
 soft         electrons   0.0000000000000000     
 augmentation electrons   284.06513546366921     
 soft         electrons   0.0000000000000000     
 augmentation electrons   284.06513546366921     
 soft         electrons   0.0000000000000000     
 augmentation electrons   284.06513546366921     
 soft         electrons   0.0000000000000000     
 augmentation electrons   284.06513546366921     
 soft         electrons   0.0000000000000000     
 augmentation electrons   284.06513546366921     
 soft         electrons   0.0000000000000000     
 augmentation electrons   284.06513546366921     
 soft         electrons   0.0000000000000000     
 augmentation electrons   284.06513546366921     
 soft         electrons   0.0000000000000000     
 augmentation electrons   284.06513546366921     
 soft         electrons   0.0000000000000000     
 augmentation electrons   284.06513546366921     
 soft         electrons   0.0000000000000000     
 augmentation electrons   284.06513546366921     
 soft         electrons   0.0000000000000000     
 augmentation electrons   284.06513546366921     
 soft         electrons   0.0000000000000000     
 augmentation electrons   284.06513546366921     
 soft         electrons   0.0000000000000000     
 augmentation electrons   284.06513546366921     
 soft         electrons   0.0000000000000000     
 augmentation electrons   284.06513546366921     
 soft         electrons   0.0000000000000000     
 augmentation electrons   284.06513546366921     
 soft         electrons   0.0000000000000000     
 augmentation electrons   284.06513546366921     
 soft         electrons   0.0000000000000000     
 augmentation electrons   284.06513546366921     
 soft         electrons   0.0000000000000000     
 augmentation electrons   284.06513546366921     
 soft         electrons   0.0000000000000000     
 augmentation electrons   284.06513546366921     
 soft         electrons   0.0000000000000000     
 augmentation electrons   284.06513546366921     
 soft         electrons   0.0000000000000000     
 augmentation electrons   284.06513546366921     
 soft         electrons   0.0000000000000000     
 augmentation electrons   284.06513546366921     
 soft         electrons   0.0000000000000000     
 augmentation electrons   284.06513546366921     
 soft         electrons   0.0000000000000000     
 augmentation electrons   284.06513546366921     
 soft         electrons   0.0000000000000000     
 augmentation electrons   284.06513546366921     
 soft         electrons   0.0000000000000000     
 augmentation electrons   284.06513546366921     
 soft         electrons   0.0000000000000000     
 augmentation electrons   284.06513546366921     
 soft         electrons   0.0000000000000000     
 augmentation electrons   284.06513546366921     
 soft         electrons   0.0000000000000000     
 augmentation electrons   284.06513546366921     
 soft         electrons   0.0000000000000000     
 augmentation electrons   284.06513546366921     
 soft         electrons   0.0000000000000000     
 augmentation electrons   284.06513546366921     
 soft         electrons   0.0000000000000000     
 augmentation electrons   284.06513546366921     
 soft         electrons   0.0000000000000000     
 augmentation electrons   284.06513546366921     
 soft         electrons   0.0000000000000000     
 augmentation electrons   284.06513546366921     
 soft         electrons   0.0000000000000000     
 augmentation electrons   284.06513546366921     
 soft         electrons   0.0000000000000000     
 augmentation electrons   284.06513546366921     
 soft         electrons   0.0000000000000000     
 augmentation electrons   284.06513546366921     
 soft         electrons   0.0000000000000000     
 augmentation electrons   284.06513546366921     
 soft         electrons   0.0000000000000000     
 augmentation electrons   284.06513546366921     
 soft         electrons   0.0000000000000000     
 augmentation electrons   284.06513546366921     
 soft         electrons   0.0000000000000000     
 augmentation electrons   284.06513546366921     
 soft         electrons   0.0000000000000000     
 augmentation electrons   284.06513546366921     
 soft         electrons   0.0000000000000000     
 augmentation electrons   284.06513546366921     
 soft         electrons   0.0000000000000000     
 augmentation electrons   284.06513546366921     
 soft         electrons   0.0000000000000000     
 augmentation electrons   284.06513546366921     
 soft         electrons   0.0000000000000000     
 augmentation electrons   284.06513546366921     
 soft         electrons   0.0000000000000000     
 augmentation electrons   284.06513546366921     
 soft         electrons   0.0000000000000000     
 augmentation electrons   284.06513546366921     
 soft         electrons   0.0000000000000000     
 augmentation electrons   284.06513546366921     
 soft         electrons   0.0000000000000000     
 augmentation electrons   284.06513546366921     
 soft         electrons   0.0000000000000000     
 augmentation electrons   284.06513546366921     
 soft         electrons   0.0000000000000000     
 augmentation electrons   284.06513546366921     
 soft         electrons   0.0000000000000000     
 augmentation electrons   284.06513546366921     
 soft         electrons   0.0000000000000000     
 augmentation electrons   284.06513546366921     
 soft         electrons   0.0000000000000000     
 augmentation electrons   284.06513546366921     
 soft         electrons   0.0000000000000000     
 augmentation electrons   284.06513546366921     
 soft         electrons   0.0000000000000000     
 augmentation electrons   284.06513546366921     
 soft         electrons   0.0000000000000000     
 augmentation electrons   284.06513546366921     
 soft         electrons   0.0000000000000000     
 augmentation electrons   284.06513546366921     
 soft         electrons   0.0000000000000000     
 augmentation electrons   284.06513546366921     
 soft         electrons   0.0000000000000000     
 augmentation electrons   284.06513546366921     
 soft         electrons   0.0000000000000000     
 augmentation electrons   284.06513546366921     
 soft         electrons   0.0000000000000000     
 augmentation electrons   284.06513546366921     
 soft         electrons   0.0000000000000000     
 augmentation electrons   284.06513546366921     
 soft         electrons   0.0000000000000000     
 augmentation electrons   284.06513546366921     
 soft         electrons   0.0000000000000000     
 augmentation electrons   284.06513546366921     
 soft         electrons   0.0000000000000000     
 augmentation electrons   284.06513546366921     
 soft         electrons   0.0000000000000000     
 augmentation electrons   284.06513546366921     
 soft         electrons   0.0000000000000000     
 augmentation electrons   284.06513546366921     
 soft         electrons   0.0000000000000000     
 total        electrons   284.06513546366921     
 total        electrons   284.06513546366921     
 total        electrons   284.06513546366921     
 total        electrons   284.06513546366921     
 total        electrons   284.06513546366921     
 total        electrons   284.06513546366921     
 total        electrons   284.06513546366921     
 total        electrons   284.06513546366921     
 total        electrons   284.06513546366921     
 total        electrons   284.06513546366921     
 total        electrons   284.06513546366921     
 total        electrons   284.06513546366921     
 total        electrons   284.06513546366921     
 total        electrons   284.06513546366921     
 total        electrons   284.06513546366921     
 total        electrons   284.06513546366921     
 total        electrons   284.06513546366921     
 total        electrons   284.06513546366921     
 total        electrons   284.06513546366921     
 total        electrons   284.06513546366921     
 total        electrons   284.06513546366921     
 total        electrons   284.06513546366921     
 total        electrons   284.06513546366921     
 total        electrons   284.06513546366921     
 total        electrons   284.06513546366921     
 total        electrons   284.06513546366921     
 total        electrons   284.06513546366921     
 total        electrons   284.06513546366921     
 total        electrons   284.06513546366921     
 total        electrons   284.06513546366921     
 total        electrons   284.06513546366921     
 total        electrons   284.06513546366921     
 total        electrons   284.06513546366921     
 total        electrons   284.06513546366921     
 total        electrons   284.06513546366921     
 total        electrons   284.06513546366921     
 total        electrons   284.06513546366921     
 total        electrons   284.06513546366921     
 total        electrons   284.06513546366921     
 total        electrons   284.06513546366921     
 total        electrons   284.06513546366921     
 total        electrons   284.06513546366921     
 total        electrons   284.06513546366921     
 total        electrons   284.06513546366921     
 total        electrons   284.06513546366921     
 total        electrons   284.06513546366921     
 total        electrons   284.06513546366921     
 total        electrons   284.06513546366921     
 total        electrons   284.06513546366921     
 total        electrons   284.06513546366921     
 total        electrons   284.06513546366921     
 total        electrons   284.06513546366921     
 total        electrons   284.06513546366921     
 total        electrons   284.06513546366921     
 total        electrons   284.06513546366921     
 total        electrons   284.06513546366921     
 total        electrons   284.06513546366921     
 total        electrons   284.06513546366921     
 total        electrons   284.06513546366921     
 total        electrons   284.06513546366921     
 total        electrons   284.06513546366921     
 total        electrons   284.06513546366921     
 total        electrons   284.06513546366921     
 total        electrons   284.06513546366921     
 total        electrons   284.06513546366921     
 total        electrons   284.06513546366921     
 total        electrons   284.06513546366921     
 total        electrons   284.06513546366921     
 total        electrons   284.06513546366921     
 total        electrons   284.06513546366921     
 total        electrons   284.06513546366921     
 total        electrons   284.06513546366921     
 augmentation electrons   1284.9953543078657     
 soft         electrons   0.0000000000000000     
 augmentation electrons   1284.9953543078657     
 soft         electrons   0.0000000000000000     
 augmentation electrons   1284.9953543078657     
 soft         electrons   0.0000000000000000     
 augmentation electrons   1284.9953543078657     
 soft         electrons   0.0000000000000000     
 augmentation electrons   1284.9953543078657     
 soft         electrons   0.0000000000000000     
 augmentation electrons   1284.9953543078657     
 soft         electrons   0.0000000000000000     
 augmentation electrons   1284.9953543078657     
 soft         electrons   0.0000000000000000     
 augmentation electrons   1284.9953543078657     
 soft         electrons   0.0000000000000000     
 augmentation electrons   1284.9953543078657     
 soft         electrons   0.0000000000000000     
 augmentation electrons   1284.9953543078657     
 soft         electrons   0.0000000000000000     
 augmentation electrons   1284.9953543078657     
 soft         electrons   0.0000000000000000     
 augmentation electrons   1284.9953543078657     
 soft         electrons   0.0000000000000000     
 augmentation electrons   1284.9953543078657     
 soft         electrons   0.0000000000000000     
 augmentation electrons   1284.9953543078657     
 soft         electrons   0.0000000000000000     
 augmentation electrons   1284.9953543078657     
 soft         electrons   0.0000000000000000     
 augmentation electrons   1284.9953543078657     
 soft         electrons   0.0000000000000000     
 augmentation electrons   1284.9953543078657     
 soft         electrons   0.0000000000000000     
 augmentation electrons   1284.9953543078657     
 soft         electrons   0.0000000000000000     
 augmentation electrons   1284.9953543078657     
 soft         electrons   0.0000000000000000     
 augmentation electrons   1284.9953543078657     
 soft         electrons   0.0000000000000000     
 augmentation electrons   1284.9953543078657     
 soft         electrons   0.0000000000000000     
 augmentation electrons   1284.9953543078657     
 soft         electrons   0.0000000000000000     
 augmentation electrons   1284.9953543078657     
 soft         electrons   0.0000000000000000     
 augmentation electrons   1284.9953543078657     
 soft         electrons   0.0000000000000000     
 augmentation electrons   1284.9953543078657     
 soft         electrons   0.0000000000000000     
 augmentation electrons   1284.9953543078657     
 soft         electrons   0.0000000000000000     
 augmentation electrons   1284.9953543078657     
 soft         electrons   0.0000000000000000     
 augmentation electrons   1284.9953543078657     
 soft         electrons   0.0000000000000000     
 augmentation electrons   1284.9953543078657     
 soft         electrons   0.0000000000000000     
 augmentation electrons   1284.9953543078657     
 soft         electrons   0.0000000000000000     
 augmentation electrons   1284.9953543078657     
 soft         electrons   0.0000000000000000     
 augmentation electrons   1284.9953543078657     
 soft         electrons   0.0000000000000000     
 augmentation electrons   1284.9953543078657     
 soft         electrons   0.0000000000000000     
 augmentation electrons   1284.9953543078657     
 soft         electrons   0.0000000000000000     
 augmentation electrons   1284.9953543078657     
 soft         electrons   0.0000000000000000     
 augmentation electrons   1284.9953543078657     
 soft         electrons   0.0000000000000000     
 augmentation electrons   1284.9953543078657     
 soft         electrons   0.0000000000000000     
 augmentation electrons   1284.9953543078657     
 soft         electrons   0.0000000000000000     
 augmentation electrons   1284.9953543078657     
 soft         electrons   0.0000000000000000     
 augmentation electrons   1284.9953543078657     
 soft         electrons   0.0000000000000000     
 augmentation electrons   1284.9953543078657     
 soft         electrons   0.0000000000000000     
 augmentation electrons   1284.9953543078657     
 soft         electrons   0.0000000000000000     
 augmentation electrons   1284.9953543078657     
 soft         electrons   0.0000000000000000     
 augmentation electrons   1284.9953543078657     
 soft         electrons   0.0000000000000000     
 augmentation electrons   1284.9953543078657     
 soft         electrons   0.0000000000000000     
 augmentation electrons   1284.9953543078657     
 soft         electrons   0.0000000000000000     
 augmentation electrons   1284.9953543078657     
 soft         electrons   0.0000000000000000     
 augmentation electrons   1284.9953543078657     
 soft         electrons   0.0000000000000000     
 augmentation electrons   1284.9953543078657     
 soft         electrons   0.0000000000000000     
 augmentation electrons   1284.9953543078657     
 soft         electrons   0.0000000000000000     
 augmentation electrons   1284.9953543078657     
 soft         electrons   0.0000000000000000     
 augmentation electrons   1284.9953543078657     
 soft         electrons   0.0000000000000000     
 augmentation electrons   1284.9953543078657     
 soft         electrons   0.0000000000000000     
 augmentation electrons   1284.9953543078657     
 soft         electrons   0.0000000000000000     
 augmentation electrons   1284.9953543078657     
 soft         electrons   0.0000000000000000     
 augmentation electrons   1284.9953543078657     
 soft         electrons   0.0000000000000000     
 augmentation electrons   1284.9953543078657     
 soft         electrons   0.0000000000000000     
 augmentation electrons   1284.9953543078657     
 soft         electrons   0.0000000000000000     
 augmentation electrons   1284.9953543078657     
 soft         electrons   0.0000000000000000     
 augmentation electrons   1284.9953543078657     
 soft         electrons   0.0000000000000000     
 augmentation electrons   1284.9953543078657     
 soft         electrons   0.0000000000000000     
 augmentation electrons   1284.9953543078657     
 soft         electrons   0.0000000000000000     
 augmentation electrons   1284.9953543078657     
 soft         electrons   0.0000000000000000     
 augmentation electrons   1284.9953543078657     
 soft         electrons   0.0000000000000000     
 augmentation electrons   1284.9953543078657     
 soft         electrons   0.0000000000000000     
 augmentation electrons   1284.9953543078657     
 soft         electrons   0.0000000000000000     
 augmentation electrons   1284.9953543078657     
 soft         electrons   0.0000000000000000     
 augmentation electrons   1284.9953543078657     
 soft         electrons   0.0000000000000000     
 augmentation electrons   1284.9953543078657     
 soft         electrons   0.0000000000000000     
 augmentation electrons   1284.9953543078657     
 soft         electrons   0.0000000000000000     
 augmentation electrons   1284.9953543078657     
 soft         electrons   0.0000000000000000     
 total        electrons   1284.9953543078657     
 total        electrons   1284.9953543078657     
 total        electrons   1284.9953543078657     
 total        electrons   1284.9953543078657     
 total        electrons   1284.9953543078657     
 total        electrons   1284.9953543078657     
 total        electrons   1284.9953543078657     
 total        electrons   1284.9953543078657     
 total        electrons   1284.9953543078657     
 total        electrons   1284.9953543078657     
 total        electrons   1284.9953543078657     
 augmentation electrons   1284.9953543078657     
 soft         electrons   0.0000000000000000     
 total        electrons   1284.9953543078657     
 total        electrons   1284.9953543078657     
 total        electrons   1284.9953543078657     
 total        electrons   1284.9953543078657     
 total        electrons   1284.9953543078657     
 total        electrons   1284.9953543078657     
 total        electrons   1284.9953543078657     
 total        electrons   1284.9953543078657     
 total        electrons   1284.9953543078657     
 total        electrons   1284.9953543078657     
 total        electrons   1284.9953543078657     
 total        electrons   1284.9953543078657     
 total        electrons   1284.9953543078657     
 total        electrons   1284.9953543078657     
 total        electrons   1284.9953543078657     
 total        electrons   1284.9953543078657     
 total        electrons   1284.9953543078657     
 total        electrons   1284.9953543078657     
 total        electrons   1284.9953543078657     
 total        electrons   1284.9953543078657     
 total        electrons   1284.9953543078657     
 total        electrons   1284.9953543078657     
 total        electrons   1284.9953543078657     
 total        electrons   1284.9953543078657     
 total        electrons   1284.9953543078657     
 total        electrons   1284.9953543078657     
 total        electrons   1284.9953543078657     
 total        electrons   1284.9953543078657     
 total        electrons   1284.9953543078657     
 total        electrons   1284.9953543078657     
 total        electrons   1284.9953543078657     
 total        electrons   1284.9953543078657     
 total        electrons   1284.9953543078657     
 total        electrons   1284.9953543078657     
 total        electrons   1284.9953543078657     
 total        electrons   1284.9953543078657     
 total        electrons   1284.9953543078657     
 total        electrons   1284.9953543078657     
 total        electrons   1284.9953543078657     
 total        electrons   1284.9953543078657     
 total        electrons   1284.9953543078657     
 total        electrons   1284.9953543078657     
 total        electrons   1284.9953543078657     
 total        electrons   1284.9953543078657     
 total        electrons   1284.9953543078657     
 total        electrons   1284.9953543078657     
 total        electrons   1284.9953543078657     
 total        electrons   1284.9953543078657     
 total        electrons   1284.9953543078657     
 total        electrons   1284.9953543078657     
 total        electrons   1284.9953543078657     
 total        electrons   1284.9953543078657     
 total        electrons   1284.9953543078657     
 total        electrons   1284.9953543078657     
 total        electrons   1284.9953543078657     
 total        electrons   1284.9953543078657     
 total        electrons   1284.9953543078657     
 total        electrons   1284.9953543078657     
 total        electrons   1284.9953543078657     
 total        electrons   1284.9953543078657     
 total        electrons   1284.9953543078657     
 entering main loop
       N       E                     dE             d eps       ncg     rms          rms(c)
DAV:   1     0.248550425398E+04    0.24855E+04   -0.10338E+05  8464   0.127E+03
DAV:   2    -0.187642985240E+03   -0.26731E+04   -0.24784E+04  9680   0.314E+02
DAV:   3    -0.625457223993E+03   -0.43781E+03   -0.41568E+03 11920   0.146E+02
DAV:   4    -0.662646299665E+03   -0.37189E+02   -0.35507E+02 13664   0.466E+01
DAV:   5    -0.665071359264E+03   -0.24251E+01   -0.23368E+01 14408   0.112E+01    0.146E+02
RMM:   6    -0.614226577941E+03    0.50845E+02   -0.11078E+03 13359   0.874E+01    0.699E+01
RMM:   7    -0.707111167974E+03   -0.92885E+02   -0.36659E+02 11209   0.514E+01    0.561E+01
RMM:   8    -0.627403687527E+03    0.79707E+02   -0.19822E+02 12045   0.270E+01    0.435E+01
RMM:   9    -0.576164533096E+03    0.51239E+02   -0.40292E+01 11894   0.164E+01    0.266E+01
RMM:  10    -0.565222864862E+03    0.10942E+02   -0.36119E+01 10566   0.166E+01    0.190E+01
RMM:  11    -0.563866531624E+03    0.13563E+01   -0.84802E+00 11283   0.743E+00    0.154E+01
RMM:  12    -0.563987491904E+03   -0.12096E+00   -0.22600E+00 13363   0.192E+00    0.141E+01
RMM:  13    -0.563834957747E+03    0.15253E+00   -0.97990E-01 13027   0.183E+00    0.122E+01
RMM:  14    -0.564111192210E+03   -0.27623E+00   -0.47718E+00 10154   0.690E+00    0.875E+00
RMM:  15    -0.563132068632E+03    0.97912E+00   -0.13646E+00  9350   0.419E+00    0.436E+00
RMM:  16    -0.562911693065E+03    0.22038E+00   -0.76626E-01 12803   0.167E+00    0.280E+00
RMM:  17    -0.562873705874E+03    0.37987E-01   -0.32765E-01 12524   0.113E+00    0.235E+00
RMM:  18    -0.562841019401E+03    0.32686E-01   -0.16294E-01 12634   0.895E-01    0.152E+00
RMM:  19    -0.562821491372E+03    0.19528E-01   -0.14352E-01 12281   0.856E-01    0.103E+00
RMM:  20    -0.562814405244E+03    0.70861E-02   -0.58652E-02 11129   0.630E-01    0.747E-01
RMM:  21    -0.562807228996E+03    0.71762E-02   -0.24182E-02 12336   0.328E-01    0.283E-01
RMM:  22    -0.562806329804E+03    0.89919E-03   -0.13625E-02 13298   0.168E-01    0.256E-01
RMM:  23    -0.562805153179E+03    0.11766E-02   -0.47091E-03 12344   0.146E-01    0.220E-01
RMM:  24    -0.562804398376E+03    0.75480E-03   -0.18384E-03 10823   0.116E-01    0.976E-02
RMM:  25    -0.562804362908E+03    0.35468E-04   -0.16758E-03 12451   0.809E-02    0.118E-01
RMM:  26    -0.562804524946E+03   -0.16204E-03   -0.62000E-04 11353   0.583E-02    0.490E-02
RMM:  27    -0.562805099593E+03   -0.57465E-03   -0.54132E-04 11925   0.476E-02    0.438E-02
RMM:  28    -0.562805473504E+03   -0.37391E-03   -0.27550E-04 11941   0.281E-02    0.246E-02
RMM:  29    -0.562805851352E+03   -0.37785E-03   -0.29826E-04 11503   0.248E-02    0.225E-02
RMM:  30    -0.562805948722E+03   -0.97370E-04   -0.78935E-05 11259   0.169E-02    0.143E-02
RMM:  31    -0.562805975361E+03   -0.26639E-04   -0.70237E-05 10134   0.102E-02    0.147E-02
RMM:  32    -0.562806094774E+03   -0.11941E-03   -0.36188E-05  9626   0.162E-02    0.193E-02
RMM:  33    -0.562806274907E+03   -0.18013E-03   -0.31474E-05 10911   0.117E-02    0.704E-03
RMM:  34    -0.562806424924E+03   -0.15002E-03   -0.16298E-05  8758   0.715E-03    0.122E-02
RMM:  35    -0.562806585151E+03   -0.16023E-03   -0.19178E-05  8794   0.820E-03    0.512E-03
RMM:  36    -0.562806620546E+03   -0.35395E-04   -0.42318E-06  7771   0.364E-03    0.361E-03
RMM:  37    -0.562806651289E+03   -0.30743E-04   -0.28277E-06  7272   0.313E-03    0.238E-03
RMM:  38    -0.562806670893E+03   -0.19604E-04   -0.19589E-06  7008   0.273E-03    0.161E-03
RMM:  39    -0.562806682852E+03   -0.11959E-04   -0.18636E-06  6798   0.312E-03    0.238E-03
RMM:  40    -0.562806684068E+03   -0.12160E-05   -0.45727E-07  5824   0.225E-03    0.589E-04
RMM:  41    -0.562806685784E+03   -0.17160E-05   -0.28981E-07  5081   0.118E-03    0.112E-03
RMM:  42    -0.562806687077E+03   -0.12929E-05   -0.21325E-07  4920   0.151E-03    0.283E-04
RMM:  43    -0.562806688138E+03   -0.10606E-05   -0.16716E-07  3266   0.616E-04    0.254E-04
RMM:  44    -0.562806688620E+03   -0.48220E-06   -0.95510E-08  3254   0.720E-04
   1 F= -.56280669E+03 E0= -.56280522E+03  d E =-.439129E-02
 augmentation electrons   31.500377592399836     
 soft         electrons   252.62749907610106     
 augmentation electrons   31.500377592399836     
 soft         electrons   252.62749907610106     
 augmentation electrons   31.500377592399836     
 soft         electrons   252.62749907610106     
 augmentation electrons   31.500377592399836     
 soft         electrons   252.62749907610106     
 augmentation electrons   31.500377592399836     
 soft         electrons   252.62749907610106     
 augmentation electrons   31.500377592399836     
 soft         electrons   252.62749907610106     
 augmentation electrons   31.500377592399836     
 soft         electrons   252.62749907610106     
 augmentation electrons   31.500377592399836     
 soft         electrons   252.62749907610106     
 augmentation electrons   31.500377592399836     
 soft         electrons   252.62749907610106     
 augmentation electrons   31.500377592399836     
 soft         electrons   252.62749907610106     
 augmentation electrons   31.500377592399836     
 soft         electrons   252.62749907610106     
 augmentation electrons   31.500377592399836     
 soft         electrons   252.62749907610106     
 augmentation electrons   31.500377592399836     
 soft         electrons   252.62749907610106     
 augmentation electrons   31.500377592399836     
 soft         electrons   252.62749907610106     
 augmentation electrons   31.500377592399836     
 soft         electrons   252.62749907610106     
 augmentation electrons   31.500377592399836     
 soft         electrons   252.62749907610106     
 augmentation electrons   31.500377592399836     
 soft         electrons   252.62749907610106     
 augmentation electrons   31.500377592399836     
 soft         electrons   252.62749907610106     
 augmentation electrons   31.500377592399836     
 soft         electrons   252.62749907610106     
 augmentation electrons   31.500377592399836     
 soft         electrons   252.62749907610106     
 augmentation electrons   31.500377592399836     
 soft         electrons   252.62749907610106     
 augmentation electrons   31.500377592399836     
 soft         electrons   252.62749907610106     
 augmentation electrons   31.500377592399836     
 soft         electrons   252.62749907610106     
 augmentation electrons   31.500377592399836     
 soft         electrons   252.62749907610106     
 augmentation electrons   31.500377592399836     
 soft         electrons   252.62749907610106     
 augmentation electrons   31.500377592399836     
 soft         electrons   252.62749907610106     
 augmentation electrons   31.500377592399836     
 soft         electrons   252.62749907610106     
 augmentation electrons   31.500377592399836     
 soft         electrons   252.62749907610106     
 augmentation electrons   31.500377592399836     
 soft         electrons   252.62749907610106     
 augmentation electrons   31.500377592399836     
 soft         electrons   252.62749907610106     
 augmentation electrons   31.500377592399836     
 soft         electrons   252.62749907610106     
 augmentation electrons   31.500377592399836     
 soft         electrons   252.62749907610106     
 augmentation electrons   31.500377592399836     
 soft         electrons   252.62749907610106     
 augmentation electrons   31.500377592399836     
 soft         electrons   252.62749907610106     
 augmentation electrons   31.500377592399836     
 soft         electrons   252.62749907610106     
 augmentation electrons   31.500377592399836     
 soft         electrons   252.62749907610106     
 augmentation electrons   31.500377592399836     
 soft         electrons   252.62749907610106     
 augmentation electrons   31.500377592399836     
 soft         electrons   252.62749907610106     
 augmentation electrons   31.500377592399836     
 soft         electrons   252.62749907610106     
 augmentation electrons   31.500377592399836     
 soft         electrons   252.62749907610106     
 augmentation electrons   31.500377592399836     
 soft         electrons   252.62749907610106     
 augmentation electrons   31.500377592399836     
 soft         electrons   252.62749907610106     
 augmentation electrons   31.500377592399836     
 soft         electrons   252.62749907610106     
 augmentation electrons   31.500377592399836     
 soft         electrons   252.62749907610106     
 augmentation electrons   31.500377592399836     
 soft         electrons   252.62749907610106     
 augmentation electrons   31.500377592399836     
 soft         electrons   252.62749907610106     
 augmentation electrons   31.500377592399836     
 soft         electrons   252.62749907610106     
 augmentation electrons   31.500377592399836     
 soft         electrons   252.62749907610106     
 augmentation electrons   31.500377592399836     
 soft         electrons   252.62749907610106     
 augmentation electrons   31.500377592399836     
 soft         electrons   252.62749907610106     
 augmentation electrons   31.500377592399836     
 soft         electrons   252.62749907610106     
 augmentation electrons   31.500377592399836     
 soft         electrons   252.62749907610106     
 augmentation electrons   31.500377592399836     
 soft         electrons   252.62749907610106     
 augmentation electrons   31.500377592399836     
 soft         electrons   252.62749907610106     
 augmentation electrons   31.500377592399836     
 soft         electrons   252.62749907610106     
 augmentation electrons   31.500377592399836     
 soft         electrons   252.62749907610106     
 augmentation electrons   31.500377592399836     
 soft         electrons   252.62749907610106     
 augmentation electrons   31.500377592399836     
 soft         electrons   252.62749907610106     
 augmentation electrons   31.500377592399836     
 soft         electrons   252.62749907610106     
 augmentation electrons   31.500377592399836     
 soft         electrons   252.62749907610106     
 augmentation electrons   31.500377592399836     
 soft         electrons   252.62749907610106     
 augmentation electrons   31.500377592399836     
 soft         electrons   252.62749907610106     
 augmentation electrons   31.500377592399836     
 soft         electrons   252.62749907610106     
 augmentation electrons   31.500377592399836     
 soft         electrons   252.62749907610106     
 augmentation electrons   31.500377592399836     
 soft         electrons   252.62749907610106     
 augmentation electrons   31.500377592399836     
 soft         electrons   252.62749907610106     
 augmentation electrons   31.500377592399836     
 soft         electrons   252.62749907610106     
 augmentation electrons   31.500377592399836     
 soft         electrons   252.62749907610106     
 augmentation electrons   31.500377592399836     
 soft         electrons   252.62749907610106     
 augmentation electrons   31.500377592399836     
 soft         electrons   252.62749907610106     
 augmentation electrons   31.500377592399836     
 soft         electrons   252.62749907610106     
 augmentation electrons   31.500377592399836     
 soft         electrons   252.62749907610106     
 total        electrons   284.12787666850090     
 total        electrons   284.12787666850090     
 total        electrons   284.12787666850090     
 total        electrons   284.12787666850090     
 total        electrons   284.12787666850090     
 total        electrons   284.12787666850090     
 total        electrons   284.12787666850090     
 total        electrons   284.12787666850090     
 total        electrons   284.12787666850090     
 total        electrons   284.12787666850090     
 total        electrons   284.12787666850090     
 total        electrons   284.12787666850090     
 total        electrons   284.12787666850090     
 total        electrons   284.12787666850090     
 total        electrons   284.12787666850090     
 total        electrons   284.12787666850090     
 total        electrons   284.12787666850090     
 total        electrons   284.12787666850090     
 total        electrons   284.12787666850090     
 total        electrons   284.12787666850090     
 total        electrons   284.12787666850090     
 total        electrons   284.12787666850090     
 total        electrons   284.12787666850090     
 total        electrons   284.12787666850090     
 total        electrons   284.12787666850090     
 total        electrons   284.12787666850090     
 total        electrons   284.12787666850090     
 total        electrons   284.12787666850090     
 total        electrons   284.12787666850090     
 total        electrons   284.12787666850090     
 total        electrons   284.12787666850090     
 total        electrons   284.12787666850090     
 total        electrons   284.12787666850090     
 total        electrons   284.12787666850090     
 total        electrons   284.12787666850090     
 total        electrons   284.12787666850090     
 total        electrons   284.12787666850090     
 total        electrons   284.12787666850090     
 total        electrons   284.12787666850090     
 total        electrons   284.12787666850090     
 total        electrons   284.12787666850090     
 total        electrons   284.12787666850090     
 total        electrons   284.12787666850090     
 total        electrons   284.12787666850090     
 total        electrons   284.12787666850090     
 total        electrons   284.12787666850090     
 total        electrons   284.12787666850090     
 total        electrons   284.12787666850090     
 total        electrons   284.12787666850090     
 total        electrons   284.12787666850090     
 total        electrons   284.12787666850090     
 total        electrons   284.12787666850090     
 total        electrons   284.12787666850090     
 total        electrons   284.12787666850090     
 total        electrons   284.12787666850090     
 total        electrons   284.12787666850090     
 total        electrons   284.12787666850090     
 total        electrons   284.12787666850090     
 total        electrons   284.12787666850090     
 total        electrons   284.12787666850090     
 total        electrons   284.12787666850090     
 total        electrons   284.12787666850090     
 total        electrons   284.12787666850090     
 total        electrons   284.12787666850090     
 total        electrons   284.12787666850090     
 total        electrons   284.12787666850090     
 total        electrons   284.12787666850090     
 total        electrons   284.12787666850090     
 total        electrons   284.12787666850090     
 total        electrons   284.12787666850090     
 total        electrons   284.12787666850090     
 total        electrons   284.12787666850090     
Note: The following floating-point exceptions are signalling: IEEE_OVERFLOW_FLAG
Note: The following floating-point exceptions are signalling: IEEE_OVERFLOW_FLAG
Note: The following floating-point exceptions are signalling: IEEE_OVERFLOW_FLAG
Note: The following floating-point exceptions are signalling: IEEE_OVERFLOW_FLAG
Note: The following floating-point exceptions are signalling: IEEE_OVERFLOW_FLAG
Note: The following floating-point exceptions are signalling: IEEE_OVERFLOW_FLAG
Note: The following floating-point exceptions are signalling: IEEE_OVERFLOW_FLAG
Note: The following floating-point exceptions are signalling: IEEE_OVERFLOW_FLAG
Note: The following floating-point exceptions are signalling: IEEE_OVERFLOW_FLAG
Note: The following floating-point exceptions are signalling: IEEE_OVERFLOW_FLAG
Note: The following floating-point exceptions are signalling: IEEE_OVERFLOW_FLAG
Note: The following floating-point exceptions are signalling: IEEE_OVERFLOW_FLAG
Note: The following floating-point exceptions are signalling: IEEE_OVERFLOW_FLAG
Note: The following floating-point exceptions are signalling: IEEE_OVERFLOW_FLAG
Note: The following floating-point exceptions are signalling: IEEE_OVERFLOW_FLAG
Note: The following floating-point exceptions are signalling: IEEE_OVERFLOW_FLAG
Note: The following floating-point exceptions are signalling: IEEE_OVERFLOW_FLAG
Note: The following floating-point exceptions are signalling: IEEE_OVERFLOW_FLAG
Note: The following floating-point exceptions are signalling: IEEE_OVERFLOW_FLAG
Note: The following floating-point exceptions are signalling: IEEE_OVERFLOW_FLAG
Note: The following floating-point exceptions are signalling: IEEE_OVERFLOW_FLAG
Note: The following floating-point exceptions are signalling: IEEE_OVERFLOW_FLAG
Note: The following floating-point exceptions are signalling: IEEE_OVERFLOW_FLAG
Note: The following floating-point exceptions are signalling: IEEE_OVERFLOW_FLAG
Note: The following floating-point exceptions are signalling: IEEE_OVERFLOW_FLAG
Note: The following floating-point exceptions are signalling: IEEE_OVERFLOW_FLAG
Note: The following floating-point exceptions are signalling: IEEE_OVERFLOW_FLAG
Note: The following floating-point exceptions are signalling: IEEE_OVERFLOW_FLAG
Note: The following floating-point exceptions are signalling: IEEE_OVERFLOW_FLAG
Note: The following floating-point exceptions are signalling: IEEE_OVERFLOW_FLAG
Note: The following floating-point exceptions are signalling: IEEE_OVERFLOW_FLAG
Note: The following floating-point exceptions are signalling: IEEE_OVERFLOW_FLAG
Note: The following floating-point exceptions are signalling: IEEE_OVERFLOW_FLAG
Note: The following floating-point exceptions are signalling: IEEE_OVERFLOW_FLAG
Note: The following floating-point exceptions are signalling: IEEE_OVERFLOW_FLAG
Note: The following floating-point exceptions are signalling: IEEE_OVERFLOW_FLAG
Note: The following floating-point exceptions are signalling: IEEE_OVERFLOW_FLAG
Note: The following floating-point exceptions are signalling: IEEE_OVERFLOW_FLAG
Note: The following floating-point exceptions are signalling: IEEE_OVERFLOW_FLAG
Note: The following floating-point exceptions are signalling: IEEE_OVERFLOW_FLAG
Note: The following floating-point exceptions are signalling: IEEE_OVERFLOW_FLAG
Note: The following floating-point exceptions are signalling: IEEE_OVERFLOW_FLAG
Note: The following floating-point exceptions are signalling: IEEE_OVERFLOW_FLAG
Note: The following floating-point exceptions are signalling: IEEE_OVERFLOW_FLAG
Note: The following floating-point exceptions are signalling: IEEE_OVERFLOW_FLAG
Note: The following floating-point exceptions are signalling: IEEE_OVERFLOW_FLAG
Note: The following floating-point exceptions are signalling: IEEE_OVERFLOW_FLAG
Note: The following floating-point exceptions are signalling: IEEE_OVERFLOW_FLAG
Note: The following floating-point exceptions are signalling: IEEE_OVERFLOW_FLAG
Note: The following floating-point exceptions are signalling: IEEE_OVERFLOW_FLAG
Note: The following floating-point exceptions are signalling: IEEE_OVERFLOW_FLAG
Note: The following floating-point exceptions are signalling: IEEE_OVERFLOW_FLAG
Note: The following floating-point exceptions are signalling: IEEE_OVERFLOW_FLAG
Note: The following floating-point exceptions are signalling: IEEE_OVERFLOW_FLAG
Note: The following floating-point exceptions are signalling: IEEE_OVERFLOW_FLAG
Note: The following floating-point exceptions are signalling: IEEE_OVERFLOW_FLAG
Note: The following floating-point exceptions are signalling: IEEE_OVERFLOW_FLAG
Note: The following floating-point exceptions are signalling: IEEE_OVERFLOW_FLAG
Note: The following floating-point exceptions are signalling: IEEE_OVERFLOW_FLAG
Note: The following floating-point exceptions are signalling: IEEE_OVERFLOW_FLAG
Note: The following floating-point exceptions are signalling: IEEE_OVERFLOW_FLAG
Note: The following floating-point exceptions are signalling: IEEE_OVERFLOW_FLAG
Note: The following floating-point exceptions are signalling: IEEE_OVERFLOW_FLAG
Note: The following floating-point exceptions are signalling: IEEE_OVERFLOW_FLAG
Note: The following floating-point exceptions are signalling: IEEE_OVERFLOW_FLAG
Note: The following floating-point exceptions are signalling: IEEE_OVERFLOW_FLAG
Note: The following floating-point exceptions are signalling: IEEE_OVERFLOW_FLAG
Note: The following floating-point exceptions are signalling: IEEE_OVERFLOW_FLAG
Note: The following floating-point exceptions are signalling: IEEE_OVERFLOW_FLAG
Note: The following floating-point exceptions are signalling: IEEE_OVERFLOW_FLAG
Note: The following floating-point exceptions are signalling: IEEE_OVERFLOW_FLAG
Note: The following floating-point exceptions are signalling: IEEE_OVERFLOW_FLAG
