   76   76    1    1
  0.2054817E+02  0.1053953E-08  0.6141200E-09  0.2412750E-08  0.5000000E-15
   1.0000000000000000E-004
  CAR 
 Name                                    
    286     23    184

  0.3742002E-15  0.3742002E-15  0.1262379E-14  0.2222222E-01
    1      -13.841163   1.000000
    2      -12.709051   1.000000
    3      -12.644463   1.000000
    4      -12.632657   1.000000
    5      -11.671577   1.000000
    6      -11.571030   1.000000
    7      -11.504817   1.000000
    8      -11.456120   1.000000
    9      -11.269654   1.000000
   10      -11.154098   1.000000
   11      -11.131890   1.000000
   12      -10.974617   1.000000
   13      -10.901673   1.000000
   14      -10.595571   1.000000
   15      -10.336804   1.000000
   16      -10.228930   1.000000
   17      -10.044332   1.000000
   18       -9.991505   1.000000
   19       -9.843109   1.000000
   20       -9.678396   1.000000
   21       -9.528779   1.000000
   22       -9.369224   1.000000
   23       -9.367655   1.000000
   24       -9.356990   1.000000
   25       -8.787128   1.000000
   26       -8.758233   1.000000
   27       -8.747985   1.000000
   28       -8.549149   1.000000
   29       -8.350720   1.000000
   30       -8.200854   1.000000
   31       -8.029312   1.000000
   32       -7.772303   1.000000
   33       -7.611818   1.000000
   34       -7.297598   1.000000
   35       -7.285683   1.000000
   36       -7.190847   1.000000
   37       -7.106295   1.000000
   38       -6.977014   1.000000
   39       -6.819608   1.000000
   40       -6.799123   1.000000
   41       -6.703929   1.000000
   42       -6.582495   1.000000
   43       -6.570915   1.000000
   44       -6.555008   1.000000
   45       -6.460194   1.000000
   46       -6.448248   1.000000
   47       -6.289682   1.000000
   48       -6.037409   1.000000
   49       -5.973606   1.000000
   50       -5.968406   1.000000
   51       -5.853828   1.000000
   52       -5.781810   1.000000
   53       -5.723595   1.000000
   54       -5.592073   1.000000
   55       -5.512247   1.000000
   56       -5.495779   1.000000
   57       -5.449378   1.000000
   58       -5.445041   1.000000
   59       -5.311399   1.000000
   60       -5.227302   1.000000
   61       -5.212248   1.000000
   62       -5.060861   1.000000
   63       -5.021330   1.000000
   64       -4.859106   1.000000
   65       -4.841069   1.000000
   66       -4.616122   1.000000
   67       -4.576788   1.000000
   68       -4.550575   1.000000
   69       -4.465977   1.000000
   70       -4.427724   1.000000
   71       -4.401829   1.000000
   72       -4.316055   1.000000
   73       -4.266769   1.000000
   74       -4.245945   1.000000
   75       -4.198455   1.000000
   76       -4.117824   1.000000
   77       -4.012187   1.000000
   78       -3.958321   1.000000
   79       -3.941686   1.000000
   80       -3.898493   1.000000
   81       -3.846856   1.000000
   82       -3.795217   1.000000
   83       -3.787506   1.000000
   84       -3.767765   1.000000
   85       -3.733410   1.000000
   86       -3.681720   1.000000
   87       -3.590209   1.000000
   88       -3.542960   1.000000
   89       -3.497036   1.000000
   90       -3.442371   1.000000
   91       -3.412547   1.000000
   92       -3.396700   1.000000
   93       -3.243552   1.000000
   94       -3.204802   1.000000
   95       -3.111041   1.000000
   96       -3.057122   1.000000
   97       -2.906577   1.000000
   98       -2.885136   1.000000
   99       -2.862405   1.000000
  100       -2.702869   1.000000
  101       -2.687352   1.000000
  102       -2.634639   1.000000
  103       -2.594456   1.000000
  104       -2.514507   1.000000
  105       -2.327803   1.000000
  106       -2.276686   1.000000
  107       -2.262602   1.000000
  108       -2.233338   1.000000
  109       -2.107262   1.000000
  110       -2.021993   1.000000
  111       -1.992272   1.000000
  112       -1.978388   1.000000
  113       -1.885868   1.000000
  114       -1.880129   1.000000
  115       -1.794669   1.000000
  116       -1.681254   1.000000
  117       -1.619268   1.000000
  118       -1.548075   1.000000
  119       -1.492698   1.000000
  120       -1.447874   1.000000
  121       -1.326383   1.000000
  122       -1.136900   1.000000
  123       -0.904496   1.000000
  124       -0.861607   1.000000
  125       -0.675467   1.000000
  126       -0.666999   1.000000
  127       -0.604896   1.000000
  128       -0.541959   1.000000
  129       -0.335143   1.000000
  130       -0.290337   1.000000
  131       -0.262589   1.000000
  132       -0.069758   1.000000
  133       -0.016757   1.000000
  134        0.005823   1.000000
  135        0.128780   1.000000
  136        0.243598   1.000000
  137        0.296653   1.000004
  138        0.350856   1.000109
  139        0.397749   1.001143
  140        0.462569   1.012422
  141        0.547614   1.025554
  142        0.584352   0.935841
  143        0.652437   0.462752
  144        0.733826  -0.003424
  145        0.743452  -0.019699
  146        0.748439  -0.025546
  147        0.810340  -0.022001
  148        0.850000  -0.007498
  149        0.874639  -0.003087
  150        0.953719  -0.000068
  151        0.972830  -0.000022
  152        1.176838  -0.000000
  153        1.208944  -0.000000
  154        1.237784  -0.000000
  155        1.307448  -0.000000
  156        1.328325  -0.000000
  157        1.407115  -0.000000
  158        1.470305  -0.000000
  159        1.475467  -0.000000
  160        1.498680  -0.000000
  161        1.556797  -0.000000
  162        1.577356  -0.000000
  163        1.653829  -0.000000
  164        1.710323  -0.000000
  165        1.727074  -0.000000
  166        1.736222  -0.000000
  167        1.793485  -0.000000
  168        1.851460  -0.000000
  169        1.884580  -0.000000
  170        1.888208  -0.000000
  171        1.896053  -0.000000
  172        1.911087  -0.000000
  173        1.932666  -0.000000
  174        1.960810  -0.000000
  175        2.004122  -0.000000
  176        2.086505  -0.000000
  177        2.159421  -0.000000
  178        2.265036  -0.000000
  179        2.477514  -0.000000
  180        2.551693  -0.000000
  181        2.620514  -0.000000
  182        2.697117  -0.000000
  183        2.948011  -0.000000
  184        3.927724   0.000000

  0.2000000E+00  0.3742002E-15  0.1262379E-14  0.4444444E-01
    1      -13.792518   1.000000
    2      -13.084480   1.000000
    3      -12.588252   1.000000
    4      -12.196264   1.000000
    5      -11.923598   1.000000
    6      -11.660860   1.000000
    7      -11.506088   1.000000
    8      -11.202700   1.000000
    9      -11.152057   1.000000
   10      -11.093911   1.000000
   11      -11.079705   1.000000
   12      -11.005058   1.000000
   13      -10.827451   1.000000
   14      -10.660215   1.000000
   15      -10.492872   1.000000
   16      -10.445898   1.000000
   17      -10.398893   1.000000
   18       -9.822640   1.000000
   19       -9.716451   1.000000
   20       -9.670290   1.000000
   21       -9.445471   1.000000
   22       -9.367394   1.000000
   23       -9.361915   1.000000
   24       -9.329835   1.000000
   25       -8.999744   1.000000
   26       -8.892948   1.000000
   27       -8.457726   1.000000
   28       -8.299025   1.000000
   29       -8.176618   1.000000
   30       -8.114650   1.000000
   31       -8.050176   1.000000
   32       -7.961921   1.000000
   33       -7.514396   1.000000
   34       -7.403899   1.000000
   35       -7.376170   1.000000
   36       -7.261682   1.000000
   37       -7.209360   1.000000
   38       -7.055887   1.000000
   39       -6.982245   1.000000
   40       -6.773365   1.000000
   41       -6.718723   1.000000
   42       -6.678787   1.000000
   43       -6.581997   1.000000
   44       -6.568087   1.000000
   45       -6.528026   1.000000
   46       -6.325595   1.000000
   47       -6.096850   1.000000
   48       -6.044104   1.000000
   49       -5.947046   1.000000
   50       -5.938735   1.000000
   51       -5.824648   1.000000
   52       -5.734367   1.000000
   53       -5.651959   1.000000
   54       -5.591045   1.000000
   55       -5.539043   1.000000
   56       -5.474410   1.000000
   57       -5.383650   1.000000
   58       -5.349643   1.000000
   59       -5.334873   1.000000
   60       -5.238819   1.000000
   61       -5.158658   1.000000
   62       -5.055389   1.000000
   63       -5.025703   1.000000
   64       -4.989623   1.000000
   65       -4.891003   1.000000
   66       -4.638527   1.000000
   67       -4.603363   1.000000
   68       -4.544162   1.000000
   69       -4.492827   1.000000
   70       -4.465802   1.000000
   71       -4.398052   1.000000
   72       -4.302574   1.000000
   73       -4.205072   1.000000
   74       -4.173423   1.000000
   75       -4.147745   1.000000
   76       -4.081756   1.000000
   77       -4.034790   1.000000
   78       -3.994284   1.000000
   79       -3.977718   1.000000
   80       -3.929039   1.000000
   81       -3.810123   1.000000
   82       -3.806546   1.000000
   83       -3.795236   1.000000
   84       -3.753318   1.000000
   85       -3.723478   1.000000
   86       -3.681586   1.000000
   87       -3.580963   1.000000
   88       -3.473811   1.000000
   89       -3.446346   1.000000
   90       -3.437073   1.000000
   91       -3.364986   1.000000
   92       -3.359209   1.000000
   93       -3.342132   1.000000
   94       -3.286862   1.000000
   95       -3.232527   1.000000
   96       -3.032438   1.000000
   97       -2.987722   1.000000
   98       -2.944417   1.000000
   99       -2.884112   1.000000
  100       -2.791746   1.000000
  101       -2.672793   1.000000
  102       -2.618435   1.000000
  103       -2.608412   1.000000
  104       -2.553499   1.000000
  105       -2.352369   1.000000
  106       -2.321526   1.000000
  107       -2.131131   1.000000
  108       -2.116517   1.000000
  109       -2.081008   1.000000
  110       -2.049171   1.000000
  111       -1.964265   1.000000
  112       -1.893270   1.000000
  113       -1.869464   1.000000
  114       -1.810122   1.000000
  115       -1.667397   1.000000
  116       -1.645348   1.000000
  117       -1.622943   1.000000
  118       -1.612934   1.000000
  119       -1.498659   1.000000
  120       -1.334671   1.000000
  121       -1.238673   1.000000
  122       -1.112052   1.000000
  123       -1.026281   1.000000
  124       -0.905800   1.000000
  125       -0.788397   1.000000
  126       -0.712501   1.000000
  127       -0.676245   1.000000
  128       -0.441708   1.000000
  129       -0.422726   1.000000
  130       -0.397946   1.000000
  131       -0.296052   1.000000
  132       -0.270101   1.000000
  133       -0.141514   1.000000
  134       -0.054047   1.000000
  135        0.058881   1.000000
  136        0.122736   1.000000
  137        0.270436   1.000001
  138        0.365380   1.000238
  139        0.476226   1.017768
  140        0.486564   1.022389
  141        0.634111   0.616544
  142        0.647665   0.503097
  143        0.678324   0.256215
  144        0.693639   0.154971
  145        0.791051  -0.030617
  146        0.799649  -0.026925
  147        0.816497  -0.019221
  148        0.838630  -0.010703
  149        0.916852  -0.000480
  150        0.934605  -0.000194
  151        1.033678  -0.000000
  152        1.246530  -0.000000
  153        1.279300  -0.000000
  154        1.342968  -0.000000
  155        1.360471  -0.000000
  156        1.395424  -0.000000
  157        1.411205  -0.000000
  158        1.436974  -0.000000
  159        1.496571  -0.000000
  160        1.557427  -0.000000
  161        1.605384  -0.000000
  162        1.628407  -0.000000
  163        1.656467  -0.000000
  164        1.681568  -0.000000
  165        1.724066  -0.000000
  166        1.746158  -0.000000
  167        1.804526  -0.000000
  168        1.846654  -0.000000
  169        1.871253  -0.000000
  170        1.893984  -0.000000
  171        1.935104  -0.000000
  172        1.961804  -0.000000
  173        1.991022  -0.000000
  174        2.012860  -0.000000
  175        2.119296  -0.000000
  176        2.144092  -0.000000
  177        2.213199  -0.000000
  178        2.331282  -0.000000
  179        2.365173  -0.000000
  180        2.485602  -0.000000
  181        2.693011  -0.000000
  182        2.907977  -0.000000
  183        3.226936  -0.000000
  184        3.937551   0.000000

  0.4000000E+00  0.3742002E-15  0.1262379E-14  0.4444444E-01
    1      -13.647702   1.000000
    2      -13.409776   1.000000
    3      -12.453400   1.000000
    4      -12.230746   1.000000
    5      -11.654420   1.000000
    6      -11.629220   1.000000
    7      -11.576221   1.000000
    8      -11.143658   1.000000
    9      -11.134317   1.000000
   10      -11.067090   1.000000
   11      -10.973313   1.000000
   12      -10.957012   1.000000
   13      -10.810916   1.000000
   14      -10.784677   1.000000
   15      -10.695165   1.000000
   16      -10.546049   1.000000
   17      -10.532709   1.000000
   18       -9.980968   1.000000
   19       -9.762879   1.000000
   20       -9.695502   1.000000
   21       -9.369697   1.000000
   22       -9.365616   1.000000
   23       -9.311880   1.000000
   24       -9.298137   1.000000
   25       -9.037215   1.000000
   26       -8.725178   1.000000
   27       -8.290606   1.000000
   28       -8.190007   1.000000
   29       -7.975704   1.000000
   30       -7.903277   1.000000
   31       -7.888291   1.000000
   32       -7.805448   1.000000
   33       -7.766828   1.000000
   34       -7.618070   1.000000
   35       -7.575809   1.000000
   36       -7.457965   1.000000
   37       -7.343325   1.000000
   38       -7.252646   1.000000
   39       -7.205083   1.000000
   40       -6.910810   1.000000
   41       -6.686991   1.000000
   42       -6.648208   1.000000
   43       -6.567160   1.000000
   44       -6.438985   1.000000
   45       -6.399781   1.000000
   46       -6.230968   1.000000
   47       -6.135219   1.000000
   48       -5.971838   1.000000
   49       -5.880515   1.000000
   50       -5.874987   1.000000
   51       -5.828517   1.000000
   52       -5.733252   1.000000
   53       -5.609063   1.000000
   54       -5.590036   1.000000
   55       -5.537899   1.000000
   56       -5.508896   1.000000
   57       -5.460257   1.000000
   58       -5.346830   1.000000
   59       -5.238550   1.000000
   60       -5.176303   1.000000
   61       -5.089356   1.000000
   62       -5.042984   1.000000
   63       -5.018130   1.000000
   64       -4.847538   1.000000
   65       -4.799447   1.000000
   66       -4.787839   1.000000
   67       -4.694381   1.000000
   68       -4.612730   1.000000
   69       -4.511925   1.000000
   70       -4.424068   1.000000
   71       -4.397562   1.000000
   72       -4.355147   1.000000
   73       -4.244627   1.000000
   74       -4.125769   1.000000
   75       -4.085561   1.000000
   76       -4.062683   1.000000
   77       -4.016952   1.000000
   78       -4.011119   1.000000
   79       -3.979700   1.000000
   80       -3.947360   1.000000
   81       -3.840101   1.000000
   82       -3.816506   1.000000
   83       -3.764602   1.000000
   84       -3.700234   1.000000
   85       -3.656297   1.000000
   86       -3.639139   1.000000
   87       -3.625337   1.000000
   88       -3.523836   1.000000
   89       -3.443956   1.000000
   90       -3.402131   1.000000
   91       -3.389584   1.000000
   92       -3.362711   1.000000
   93       -3.253699   1.000000
   94       -3.246092   1.000000
   95       -3.173011   1.000000
   96       -3.121675   1.000000
   97       -3.098374   1.000000
   98       -3.059514   1.000000
   99       -3.039794   1.000000
  100       -2.957811   1.000000
  101       -2.819163   1.000000
  102       -2.738011   1.000000
  103       -2.625308   1.000000
  104       -2.432022   1.000000
  105       -2.336577   1.000000
  106       -2.235361   1.000000
  107       -2.136718   1.000000
  108       -2.101865   1.000000
  109       -2.013927   1.000000
  110       -1.848049   1.000000
  111       -1.796140   1.000000
  112       -1.786151   1.000000
  113       -1.748596   1.000000
  114       -1.713911   1.000000
  115       -1.661739   1.000000
  116       -1.656047   1.000000
  117       -1.639069   1.000000
  118       -1.581984   1.000000
  119       -1.316227   1.000000
  120       -1.200617   1.000000
  121       -1.187415   1.000000
  122       -1.096215   1.000000
  123       -1.000142   1.000000
  124       -0.993995   1.000000
  125       -0.945597   1.000000
  126       -0.863411   1.000000
  127       -0.824404   1.000000
  128       -0.727251   1.000000
  129       -0.704143   1.000000
  130       -0.521406   1.000000
  131       -0.346034   1.000000
  132       -0.318828   1.000000
  133       -0.281841   1.000000
  134       -0.159154   1.000000
  135        0.128428   1.000000
  136        0.160737   1.000000
  137        0.308231   1.000008
  138        0.326770   1.000027
  139        0.353507   1.000126
  140        0.424800   1.003518
  141        0.555399   1.015694
  142        0.583558   0.939075
  143        0.713972   0.055105
  144        0.795539  -0.028747
  145        0.822424  -0.016676
  146        0.833547  -0.012403
  147        0.855211  -0.006296
  148        0.937786  -0.000164
  149        1.017681  -0.000001
  150        1.036750  -0.000000
  151        1.124561  -0.000000
  152        1.290630  -0.000000
  153        1.319507  -0.000000
  154        1.383772  -0.000000
  155        1.434405  -0.000000
  156        1.482529  -0.000000
  157        1.507262  -0.000000
  158        1.552145  -0.000000
  159        1.556976  -0.000000
  160        1.615090  -0.000000
  161        1.638070  -0.000000
  162        1.691553  -0.000000
  163        1.701349  -0.000000
  164        1.765835  -0.000000
  165        1.791083  -0.000000
  166        1.800740  -0.000000
  167        1.815228  -0.000000
  168        1.826642  -0.000000
  169        1.884565  -0.000000
  170        1.898403  -0.000000
  171        1.958922  -0.000000
  172        1.998654  -0.000000
  173        2.022525  -0.000000
  174        2.034164  -0.000000
  175        2.107314  -0.000000
  176        2.122700  -0.000000
  177        2.170930  -0.000000
  178        2.199360  -0.000000
  179        2.421955  -0.000000
  180        2.447910  -0.000000
  181        2.693312  -0.000000
  182        2.732496  -0.000000
  183        3.019975  -0.000000
  184        3.217925  -0.000000

  0.3742002E-15  0.1111111E+00  0.1262379E-14  0.4444444E-01
    1      -13.794317   1.000000
    2      -12.669496   1.000000
    3      -12.611386   1.000000
    4      -12.593176   1.000000
    5      -11.777065   1.000000
    6      -11.541575   1.000000
    7      -11.495306   1.000000
    8      -11.473464   1.000000
    9      -11.310286   1.000000
   10      -11.200337   1.000000
   11      -11.104196   1.000000
   12      -10.983121   1.000000
   13      -10.907150   1.000000
   14      -10.567821   1.000000
   15      -10.359842   1.000000
   16      -10.204585   1.000000
   17      -10.025736   1.000000
   18       -9.954408   1.000000
   19       -9.854782   1.000000
   20       -9.653966   1.000000
   21       -9.563021   1.000000
   22       -9.397039   1.000000
   23       -9.373629   1.000000
   24       -9.354632   1.000000
   25       -8.806057   1.000000
   26       -8.746604   1.000000
   27       -8.730791   1.000000
   28       -8.547565   1.000000
   29       -8.351350   1.000000
   30       -8.216820   1.000000
   31       -7.870784   1.000000
   32       -7.787689   1.000000
   33       -7.706694   1.000000
   34       -7.326005   1.000000
   35       -7.275816   1.000000
   36       -7.266248   1.000000
   37       -7.220610   1.000000
   38       -6.946562   1.000000
   39       -6.803819   1.000000
   40       -6.779485   1.000000
   41       -6.721967   1.000000
   42       -6.565903   1.000000
   43       -6.538603   1.000000
   44       -6.526122   1.000000
   45       -6.454781   1.000000
   46       -6.437462   1.000000
   47       -6.272388   1.000000
   48       -6.040791   1.000000
   49       -6.014912   1.000000
   50       -5.948880   1.000000
   51       -5.807907   1.000000
   52       -5.763325   1.000000
   53       -5.683739   1.000000
   54       -5.619716   1.000000
   55       -5.557933   1.000000
   56       -5.465469   1.000000
   57       -5.452564   1.000000
   58       -5.353046   1.000000
   59       -5.263443   1.000000
   60       -5.173019   1.000000
   61       -5.150267   1.000000
   62       -5.054241   1.000000
   63       -4.982010   1.000000
   64       -4.907453   1.000000
   65       -4.834789   1.000000
   66       -4.648584   1.000000
   67       -4.548441   1.000000
   68       -4.529287   1.000000
   69       -4.453630   1.000000
   70       -4.435683   1.000000
   71       -4.381286   1.000000
   72       -4.314351   1.000000
   73       -4.263176   1.000000
   74       -4.249887   1.000000
   75       -4.200398   1.000000
   76       -4.125552   1.000000
   77       -4.027932   1.000000
   78       -3.997994   1.000000
   79       -3.953757   1.000000
   80       -3.927639   1.000000
   81       -3.907164   1.000000
   82       -3.863251   1.000000
   83       -3.856774   1.000000
   84       -3.847437   1.000000
   85       -3.783391   1.000000
   86       -3.631746   1.000000
   87       -3.561496   1.000000
   88       -3.558941   1.000000
   89       -3.529557   1.000000
   90       -3.460607   1.000000
   91       -3.421838   1.000000
   92       -3.398156   1.000000
   93       -3.341076   1.000000
   94       -3.259741   1.000000
   95       -3.147932   1.000000
   96       -3.103843   1.000000
   97       -2.855207   1.000000
   98       -2.805473   1.000000
   99       -2.769532   1.000000
  100       -2.650041   1.000000
  101       -2.629096   1.000000
  102       -2.590798   1.000000
  103       -2.587990   1.000000
  104       -2.534249   1.000000
  105       -2.392936   1.000000
  106       -2.384445   1.000000
  107       -2.254786   1.000000
  108       -2.191890   1.000000
  109       -2.124889   1.000000
  110       -2.080557   1.000000
  111       -2.010663   1.000000
  112       -1.990036   1.000000
  113       -1.905762   1.000000
  114       -1.901420   1.000000
  115       -1.814083   1.000000
  116       -1.722410   1.000000
  117       -1.637452   1.000000
  118       -1.467853   1.000000
  119       -1.441903   1.000000
  120       -1.410324   1.000000
  121       -1.276520   1.000000
  122       -1.037860   1.000000
  123       -0.954362   1.000000
  124       -0.834954   1.000000
  125       -0.772267   1.000000
  126       -0.698444   1.000000
  127       -0.588637   1.000000
  128       -0.575309   1.000000
  129       -0.516004   1.000000
  130       -0.349662   1.000000
  131       -0.219854   1.000000
  132       -0.144637   1.000000
  133       -0.079057   1.000000
  134        0.074002   1.000000
  135        0.150869   1.000000
  136        0.206172   1.000000
  137        0.226809   1.000000
  138        0.312099   1.000011
  139        0.344031   1.000075
  140        0.417807   1.002676
  141        0.532344   1.034680
  142        0.558845   1.009963
  143        0.695334   0.145075
  144        0.727399   0.011587
  145        0.731421   0.001781
  146        0.821787  -0.016942
  147        0.834166  -0.012187
  148        0.885045  -0.002028
  149        0.921206  -0.000387
  150        1.011656  -0.000002
  151        1.114702  -0.000000
  152        1.185947  -0.000000
  153        1.248400  -0.000000
  154        1.264544  -0.000000
  155        1.349442  -0.000000
  156        1.366821  -0.000000
  157        1.393439  -0.000000
  158        1.419532  -0.000000
  159        1.553500  -0.000000
  160        1.578084  -0.000000
  161        1.589618  -0.000000
  162        1.596121  -0.000000
  163        1.605831  -0.000000
  164        1.637284  -0.000000
  165        1.643112  -0.000000
  166        1.754007  -0.000000
  167        1.791857  -0.000000
  168        1.815660  -0.000000
  169        1.851177  -0.000000
  170        1.898698  -0.000000
  171        1.923953  -0.000000
  172        1.942898  -0.000000
  173        1.950475  -0.000000
  174        2.002734  -0.000000
  175        2.033199  -0.000000
  176        2.043752  -0.000000
  177        2.061144  -0.000000
  178        2.124292  -0.000000
  179        2.215637  -0.000000
  180        2.277532  -0.000000
  181        2.485376  -0.000000
  182        2.586332  -0.000000
  183        2.675641  -0.000000
  184        3.943471   0.000000

  0.2000000E+00  0.1111111E+00  0.1262379E-14  0.4444444E-01
    1      -13.746006   1.000000
    2      -13.044402   1.000000
    3      -12.548638   1.000000
    4      -12.164724   1.000000
    5      -11.894038   1.000000
    6      -11.759862   1.000000
    7      -11.559735   1.000000
    8      -11.225098   1.000000
    9      -11.194479   1.000000
   10      -11.070702   1.000000
   11      -11.055337   1.000000
   12      -11.020092   1.000000
   13      -10.827047   1.000000
   14      -10.638831   1.000000
   15      -10.474960   1.000000
   16      -10.425146   1.000000
   17      -10.408250   1.000000
   18       -9.829608   1.000000
   19       -9.700348   1.000000
   20       -9.663078   1.000000
   21       -9.442228   1.000000
   22       -9.393205   1.000000
   23       -9.376571   1.000000
   24       -9.321333   1.000000
   25       -9.006793   1.000000
   26       -8.890553   1.000000
   27       -8.454793   1.000000
   28       -8.306841   1.000000
   29       -8.170148   1.000000
   30       -8.120396   1.000000
   31       -8.055370   1.000000
   32       -7.807643   1.000000
   33       -7.594450   1.000000
   34       -7.493748   1.000000
   35       -7.358314   1.000000
   36       -7.338927   1.000000
   37       -7.185928   1.000000
   38       -7.000125   1.000000
   39       -6.975054   1.000000
   40       -6.793060   1.000000
   41       -6.724805   1.000000
   42       -6.702077   1.000000
   43       -6.569972   1.000000
   44       -6.560970   1.000000
   45       -6.500891   1.000000
   46       -6.472900   1.000000
   47       -6.156203   1.000000
   48       -5.989431   1.000000
   49       -5.860358   1.000000
   50       -5.836377   1.000000
   51       -5.801623   1.000000
   52       -5.748477   1.000000
   53       -5.666794   1.000000
   54       -5.653915   1.000000
   55       -5.489400   1.000000
   56       -5.481085   1.000000
   57       -5.364799   1.000000
   58       -5.349242   1.000000
   59       -5.260948   1.000000
   60       -5.156038   1.000000
   61       -5.099406   1.000000
   62       -5.023017   1.000000
   63       -5.000423   1.000000
   64       -4.957718   1.000000
   65       -4.915394   1.000000
   66       -4.660936   1.000000
   67       -4.589176   1.000000
   68       -4.522863   1.000000
   69       -4.444807   1.000000
   70       -4.423622   1.000000
   71       -4.383917   1.000000
   72       -4.335714   1.000000
   73       -4.229901   1.000000
   74       -4.183898   1.000000
   75       -4.155175   1.000000
   76       -4.087339   1.000000
   77       -4.021000   1.000000
   78       -4.013394   1.000000
   79       -3.989102   1.000000
   80       -3.982210   1.000000
   81       -3.929059   1.000000
   82       -3.885321   1.000000
   83       -3.873322   1.000000
   84       -3.775276   1.000000
   85       -3.708397   1.000000
   86       -3.671543   1.000000
   87       -3.603885   1.000000
   88       -3.518834   1.000000
   89       -3.494991   1.000000
   90       -3.471212   1.000000
   91       -3.423486   1.000000
   92       -3.380800   1.000000
   93       -3.343533   1.000000
   94       -3.291783   1.000000
   95       -3.196840   1.000000
   96       -3.047575   1.000000
   97       -2.949118   1.000000
   98       -2.875773   1.000000
   99       -2.789094   1.000000
  100       -2.775292   1.000000
  101       -2.687240   1.000000
  102       -2.645000   1.000000
  103       -2.632821   1.000000
  104       -2.544656   1.000000
  105       -2.395114   1.000000
  106       -2.352493   1.000000
  107       -2.231602   1.000000
  108       -2.153934   1.000000
  109       -2.101408   1.000000
  110       -1.995598   1.000000
  111       -1.918500   1.000000
  112       -1.910745   1.000000
  113       -1.852755   1.000000
  114       -1.816099   1.000000
  115       -1.760579   1.000000
  116       -1.701995   1.000000
  117       -1.637742   1.000000
  118       -1.584354   1.000000
  119       -1.492164   1.000000
  120       -1.276183   1.000000
  121       -1.204746   1.000000
  122       -1.038072   1.000000
  123       -0.992349   1.000000
  124       -0.936681   1.000000
  125       -0.861787   1.000000
  126       -0.799524   1.000000
  127       -0.654567   1.000000
  128       -0.574668   1.000000
  129       -0.473844   1.000000
  130       -0.434004   1.000000
  131       -0.291901   1.000000
  132       -0.160471   1.000000
  133       -0.088056   1.000000
  134        0.069062   1.000000
  135        0.100833   1.000000
  136        0.151215   1.000000
  137        0.186822   1.000000
  138        0.220448   1.000000
  139        0.373853   1.000368
  140        0.472473   1.016196
  141        0.586918   0.924947
  142        0.599893   0.859697
  143        0.614738   0.765185
  144        0.741736  -0.017302
  145        0.757059  -0.032138
  146        0.834307  -0.012138
  147        0.912969  -0.000579
  148        0.956134  -0.000059
  149        0.972524  -0.000022
  150        0.989996  -0.000007
  151        1.071025  -0.000000
  152        1.240333  -0.000000
  153        1.294867  -0.000000
  154        1.320550  -0.000000
  155        1.378946  -0.000000
  156        1.417862  -0.000000
  157        1.475005  -0.000000