 running on   72 total cores
 distrk:  each k-point on   72 cores,    1 groups
 distr:  one band on    9 cores,    8 groups
 using from now: INCAR     
 vasp.5.4.4.18Apr17-6-g9f103f2a35 (build Dec  7 2020 12:43:57) complex           
 POSCAR found type information on POSCAR  Mo V  B  H 
 POSCAR found :  4 types and      76 ions
 scaLAPACK will be used

 ----------------------------------------------------------------------------- 
|                                                                             |
|  ADVICE TO THIS USER RUNNING 'VASP/VAMP'   (HEAR YOUR MASTER'S VOICE ...):  |
|                                                                             |
|      You enforced a specific xc-type in the INCAR file,                     |
|      a different type was found on the POTCAR file                          |
|          I HOPE YOU KNOW, WHAT YOU ARE  DOING                               |
|                                                                             |
 ----------------------------------------------------------------------------- 

 LDA part: xc-table for Pade appr. of Perdew
 POSCAR, INCAR and KPOINTS ok, starting setup
 resort distribution
 resort distribution
 resort distribution
 resort distribution
 resort distribution
 resort distribution
 resort distribution
 resort distribution
 resort distribution
 resort distribution
 resort distribution
 resort distribution
 resort distribution
 resort distribution
 resort distribution
 resort distribution
 resort distribution
 resort distribution
 resort distribution
 resort distribution
 resort distribution
 resort distribution
 resort distribution
 resort distribution
 resort distribution
 resort distribution
 resort distribution
 resort distribution
 resort distribution
 resort distribution
 resort distribution
 resort distribution
 resort distribution
 resort distribution
 resort distribution
 resort distribution
 resort distribution
 resort distribution
 resort distribution
 resort distribution
 resort distribution
 resort distribution
 resort distribution
 resort distribution
 resort distribution
 resort distribution
 resort distribution
 resort distribution
 resort distribution
 resort distribution
 resort distribution
 resort distribution
 resort distribution
 resort distribution
 resort distribution
 resort distribution
 resort distribution
 resort distribution
 resort distribution
 resort distribution
 resort distribution
 resort distribution
 resort distribution
 resort distribution
 resort distribution
 resort distribution
 resort distribution
 resort distribution
 resort distribution
 resort distribution
 resort distribution
 resort distribution
 FFT: planning ...
 WAVECAR not read
 augmentation electrons   286.03100027049800     
 soft         electrons   0.0000000000000000     
 augmentation electrons   286.03100027049800     
 soft         electrons   0.0000000000000000     
 augmentation electrons   286.03100027049800     
 soft         electrons   0.0000000000000000     
 augmentation electrons   286.03100027049800     
 soft         electrons   0.0000000000000000     
 augmentation electrons   286.03100027049800     
 soft         electrons   0.0000000000000000     
 augmentation electrons   286.03100027049800     
 soft         electrons   0.0000000000000000     
 augmentation electrons   286.03100027049800     
 soft         electrons   0.0000000000000000     
 augmentation electrons   286.03100027049800     
 soft         electrons   0.0000000000000000     
 augmentation electrons   286.03100027049800     
 soft         electrons   0.0000000000000000     
 augmentation electrons   286.03100027049800     
 soft         electrons   0.0000000000000000     
 augmentation electrons   286.03100027049800     
 soft         electrons   0.0000000000000000     
 augmentation electrons   286.03100027049800     
 soft         electrons   0.0000000000000000     
 augmentation electrons   286.03100027049800     
 soft         electrons   0.0000000000000000     
 augmentation electrons   286.03100027049800     
 soft         electrons   0.0000000000000000     
 augmentation electrons   286.03100027049800     
 soft         electrons   0.0000000000000000     
 augmentation electrons   286.03100027049800     
 soft         electrons   0.0000000000000000     
 augmentation electrons   286.03100027049800     
 soft         electrons   0.0000000000000000     
 augmentation electrons   286.03100027049800     
 soft         electrons   0.0000000000000000     
 augmentation electrons   286.03100027049800     
 soft         electrons   0.0000000000000000     
 augmentation electrons   286.03100027049800     
 soft         electrons   0.0000000000000000     
 augmentation electrons   286.03100027049800     
 soft         electrons   0.0000000000000000     
 augmentation electrons   286.03100027049800     
 soft         electrons   0.0000000000000000     
 augmentation electrons   286.03100027049800     
 soft         electrons   0.0000000000000000     
 augmentation electrons   286.03100027049800     
 soft         electrons   0.0000000000000000     
 augmentation electrons   286.03100027049800     
 soft         electrons   0.0000000000000000     
 augmentation electrons   286.03100027049800     
 soft         electrons   0.0000000000000000     
 augmentation electrons   286.03100027049800     
 soft         electrons   0.0000000000000000     
 augmentation electrons   286.03100027049800     
 soft         electrons   0.0000000000000000     
 augmentation electrons   286.03100027049800     
 soft         electrons   0.0000000000000000     
 augmentation electrons   286.03100027049800     
 soft         electrons   0.0000000000000000     
 augmentation electrons   286.03100027049800     
 soft         electrons   0.0000000000000000     
 augmentation electrons   286.03100027049800     
 soft         electrons   0.0000000000000000     
 augmentation electrons   286.03100027049800     
 soft         electrons   0.0000000000000000     
 augmentation electrons   286.03100027049800     
 soft         electrons   0.0000000000000000     
 augmentation electrons   286.03100027049800     
 soft         electrons   0.0000000000000000     
 augmentation electrons   286.03100027049800     
 soft         electrons   0.0000000000000000     
 augmentation electrons   286.03100027049800     
 soft         electrons   0.0000000000000000     
 augmentation electrons   286.03100027049800     
 soft         electrons   0.0000000000000000     
 augmentation electrons   286.03100027049800     
 soft         electrons   0.0000000000000000     
 augmentation electrons   286.03100027049800     
 soft         electrons   0.0000000000000000     
 augmentation electrons   286.03100027049800     
 soft         electrons   0.0000000000000000     
 augmentation electrons   286.03100027049800     
 soft         electrons   0.0000000000000000     
 augmentation electrons   286.03100027049800     
 soft         electrons   0.0000000000000000     
 augmentation electrons   286.03100027049800     
 soft         electrons   0.0000000000000000     
 augmentation electrons   286.03100027049800     
 soft         electrons   0.0000000000000000     
 augmentation electrons   286.03100027049800     
 soft         electrons   0.0000000000000000     
 augmentation electrons   286.03100027049800     
 soft         electrons   0.0000000000000000     
 augmentation electrons   286.03100027049800     
 soft         electrons   0.0000000000000000     
 augmentation electrons   286.03100027049800     
 soft         electrons   0.0000000000000000     
 augmentation electrons   286.03100027049800     
 soft         electrons   0.0000000000000000     
 augmentation electrons   286.03100027049800     
 soft         electrons   0.0000000000000000     
 augmentation electrons   286.03100027049800     
 soft         electrons   0.0000000000000000     
 augmentation electrons   286.03100027049800     
 soft         electrons   0.0000000000000000     
 augmentation electrons   286.03100027049800     
 soft         electrons   0.0000000000000000     
 augmentation electrons   286.03100027049800     
 soft         electrons   0.0000000000000000     
 augmentation electrons   286.03100027049800     
 soft         electrons   0.0000000000000000     
 augmentation electrons   286.03100027049800     
 soft         electrons   0.0000000000000000     
 augmentation electrons   286.03100027049800     
 soft         electrons   0.0000000000000000     
 augmentation electrons   286.03100027049800     
 soft         electrons   0.0000000000000000     
 augmentation electrons   286.03100027049800     
 soft         electrons   0.0000000000000000     
 augmentation electrons   286.03100027049800     
 soft         electrons   0.0000000000000000     
 augmentation electrons   286.03100027049800     
 soft         electrons   0.0000000000000000     
 augmentation electrons   286.03100027049800     
 soft         electrons   0.0000000000000000     
 augmentation electrons   286.03100027049800     
 soft         electrons   0.0000000000000000     
 augmentation electrons   286.03100027049800     
 soft         electrons   0.0000000000000000     
 augmentation electrons   286.03100027049800     
 soft         electrons   0.0000000000000000     
 augmentation electrons   286.03100027049800     
 soft         electrons   0.0000000000000000     
 augmentation electrons   286.03100027049800     
 soft         electrons   0.0000000000000000     
 augmentation electrons   286.03100027049800     
 soft         electrons   0.0000000000000000     
 augmentation electrons   286.03100027049800     
 soft         electrons   0.0000000000000000     
 augmentation electrons   286.03100027049800     
 soft         electrons   0.0000000000000000     
 augmentation electrons   286.03100027049800     
 soft         electrons   0.0000000000000000     
 total        electrons   286.03100027049800     
 total        electrons   286.03100027049800     
 total        electrons   286.03100027049800     
 total        electrons   286.03100027049800     
 total        electrons   286.03100027049800     
 total        electrons   286.03100027049800     
 total        electrons   286.03100027049800     
 total        electrons   286.03100027049800     
 total        electrons   286.03100027049800     
 total        electrons   286.03100027049800     
 total        electrons   286.03100027049800     
 total        electrons   286.03100027049800     
 total        electrons   286.03100027049800     
 total        electrons   286.03100027049800     
 total        electrons   286.03100027049800     
 total        electrons   286.03100027049800     
 total        electrons   286.03100027049800     
 total        electrons   286.03100027049800     
 total        electrons   286.03100027049800     
 total        electrons   286.03100027049800     
 total        electrons   286.03100027049800     
 total        electrons   286.03100027049800     
 total        electrons   286.03100027049800     
 total        electrons   286.03100027049800     
 total        electrons   286.03100027049800     
 total        electrons   286.03100027049800     
 total        electrons   286.03100027049800     
 total        electrons   286.03100027049800     
 total        electrons   286.03100027049800     
 total        electrons   286.03100027049800     
 total        electrons   286.03100027049800     
 total        electrons   286.03100027049800     
 total        electrons   286.03100027049800     
 total        electrons   286.03100027049800     
 total        electrons   286.03100027049800     
 total        electrons   286.03100027049800     
 total        electrons   286.03100027049800     
 total        electrons   286.03100027049800     
 total        electrons   286.03100027049800     
 total        electrons   286.03100027049800     
 total        electrons   286.03100027049800     
 total        electrons   286.03100027049800     
 total        electrons   286.03100027049800     
 total        electrons   286.03100027049800     
 total        electrons   286.03100027049800     
 total        electrons   286.03100027049800     
 total        electrons   286.03100027049800     
 total        electrons   286.03100027049800     
 total        electrons   286.03100027049800     
 total        electrons   286.03100027049800     
 total        electrons   286.03100027049800     
 total        electrons   286.03100027049800     
 total        electrons   286.03100027049800     
 total        electrons   286.03100027049800     
 total        electrons   286.03100027049800     
 total        electrons   286.03100027049800     
 total        electrons   286.03100027049800     
 total        electrons   286.03100027049800     
 total        electrons   286.03100027049800     
 total        electrons   286.03100027049800     
 total        electrons   286.03100027049800     
 total        electrons   286.03100027049800     
 total        electrons   286.03100027049800     
 total        electrons   286.03100027049800     
 total        electrons   286.03100027049800     
 total        electrons   286.03100027049800     
 total        electrons   286.03100027049800     
 total        electrons   286.03100027049800     
 total        electrons   286.03100027049800     
 total        electrons   286.03100027049800     
 total        electrons   286.03100027049800     
 total        electrons   286.03100027049800     
 augmentation electrons   997.07737191289675     
 soft         electrons   0.0000000000000000     
 augmentation electrons   997.07737191289675     
 soft         electrons   0.0000000000000000     
 augmentation electrons   997.07737191289675     
 soft         electrons   0.0000000000000000     
 augmentation electrons   997.07737191289675     
 soft         electrons   0.0000000000000000     
 augmentation electrons   997.07737191289675     
 soft         electrons   0.0000000000000000     
 augmentation electrons   997.07737191289675     
 soft         electrons   0.0000000000000000     
 augmentation electrons   997.07737191289675     
 soft         electrons   0.0000000000000000     
 augmentation electrons   997.07737191289675     
 soft         electrons   0.0000000000000000     
 augmentation electrons   997.07737191289675     
 soft         electrons   0.0000000000000000     
 augmentation electrons   997.07737191289675     
 soft         electrons   0.0000000000000000     
 augmentation electrons   997.07737191289675     
 soft         electrons   0.0000000000000000     
 augmentation electrons   997.07737191289675     
 soft         electrons   0.0000000000000000     
 augmentation electrons   997.07737191289675     
 soft         electrons   0.0000000000000000     
 augmentation electrons   997.07737191289675     
 soft         electrons   0.0000000000000000     
 augmentation electrons   997.07737191289675     
 soft         electrons   0.0000000000000000     
 augmentation electrons   997.07737191289675     
 soft         electrons   0.0000000000000000     
 augmentation electrons   997.07737191289675     
 soft         electrons   0.0000000000000000     
 augmentation electrons   997.07737191289675     
 soft         electrons   0.0000000000000000     
 augmentation electrons   997.07737191289675     
 soft         electrons   0.0000000000000000     
 augmentation electrons   997.07737191289675     
 soft         electrons   0.0000000000000000     
 augmentation electrons   997.07737191289675     
 soft         electrons   0.0000000000000000     
 augmentation electrons   997.07737191289675     
 soft         electrons   0.0000000000000000     
 augmentation electrons   997.07737191289675     
 soft         electrons   0.0000000000000000     
 augmentation electrons   997.07737191289675     
 soft         electrons   0.0000000000000000     
 augmentation electrons   997.07737191289675     
 soft         electrons   0.0000000000000000     
 augmentation electrons   997.07737191289675     
 soft         electrons   0.0000000000000000     
 augmentation electrons   997.07737191289675     
 soft         electrons   0.0000000000000000     
 augmentation electrons   997.07737191289675     
 soft         electrons   0.0000000000000000     
 augmentation electrons   997.07737191289675     
 augmentation electrons   997.07737191289675     
 soft         electrons   0.0000000000000000     
 augmentation electrons   997.07737191289675     
 soft         electrons   0.0000000000000000     
 augmentation electrons   997.07737191289675     
 soft         electrons   0.0000000000000000     
 augmentation electrons   997.07737191289675     
 soft         electrons   0.0000000000000000     
 augmentation electrons   997.07737191289675     
 soft         electrons   0.0000000000000000     
 augmentation electrons   997.07737191289675     
 soft         electrons   0.0000000000000000     
 augmentation electrons   997.07737191289675     
 soft         electrons   0.0000000000000000     
 augmentation electrons   997.07737191289675     
 soft         electrons   0.0000000000000000     
 augmentation electrons   997.07737191289675     
 soft         electrons   0.0000000000000000     
 augmentation electrons   997.07737191289675     
 soft         electrons   0.0000000000000000     
 augmentation electrons   997.07737191289675     
 soft         electrons   0.0000000000000000     
 augmentation electrons   997.07737191289675     
 soft         electrons   0.0000000000000000     
 augmentation electrons   997.07737191289675     
 soft         electrons   0.0000000000000000     
 augmentation electrons   997.07737191289675     
 soft         electrons   0.0000000000000000     
 augmentation electrons   997.07737191289675     
 soft         electrons   0.0000000000000000     
 augmentation electrons   997.07737191289675     
 soft         electrons   0.0000000000000000     
 augmentation electrons   997.07737191289675     
 soft         electrons   0.0000000000000000     
 augmentation electrons   997.07737191289675     
 soft         electrons   0.0000000000000000     
 augmentation electrons   997.07737191289675     
 soft         electrons   0.0000000000000000     
 augmentation electrons   997.07737191289675     
 soft         electrons   0.0000000000000000     
 augmentation electrons   997.07737191289675     
 soft         electrons   0.0000000000000000     
 augmentation electrons   997.07737191289675     
 soft         electrons   0.0000000000000000     
 augmentation electrons   997.07737191289675     
 soft         electrons   0.0000000000000000     
 augmentation electrons   997.07737191289675     
 soft         electrons   0.0000000000000000     
 augmentation electrons   997.07737191289675     
 soft         electrons   0.0000000000000000     
 augmentation electrons   997.07737191289675     
 soft         electrons   0.0000000000000000     
 augmentation electrons   997.07737191289675     
 soft         electrons   0.0000000000000000     
 augmentation electrons   997.07737191289675     
 soft         electrons   0.0000000000000000     
 augmentation electrons   997.07737191289675     
 soft         electrons   0.0000000000000000     
 augmentation electrons   997.07737191289675     
 soft         electrons   0.0000000000000000     
 augmentation electrons   997.07737191289675     
 soft         electrons   0.0000000000000000     
 augmentation electrons   997.07737191289675     
 soft         electrons   0.0000000000000000     
 augmentation electrons   997.07737191289675     
 soft         electrons   0.0000000000000000     
 augmentation electrons   997.07737191289675     
 soft         electrons   0.0000000000000000     
 augmentation electrons   997.07737191289675     
 soft         electrons   0.0000000000000000     
 augmentation electrons   997.07737191289675     
 soft         electrons   0.0000000000000000     
 augmentation electrons   997.07737191289675     
 soft         electrons   0.0000000000000000     
 augmentation electrons   997.07737191289675     
 soft         electrons   0.0000000000000000     
 augmentation electrons   997.07737191289675     
 soft         electrons   0.0000000000000000     
 augmentation electrons   997.07737191289675     
 soft         electrons   0.0000000000000000     
 augmentation electrons   997.07737191289675     
 soft         electrons   0.0000000000000000     
 augmentation electrons   997.07737191289675     
 soft         electrons   0.0000000000000000     
 augmentation electrons   997.07737191289675     
 soft         electrons   0.0000000000000000     
 soft         electrons   0.0000000000000000     
 total        electrons   997.07737191289675     
 total        electrons   997.07737191289675     
 total        electrons   997.07737191289675     
 total        electrons   997.07737191289675     
 total        electrons   997.07737191289675     
 total        electrons   997.07737191289675     
 total        electrons   997.07737191289675     
 total        electrons   997.07737191289675     
 total        electrons   997.07737191289675     
 total        electrons   997.07737191289675     
 total        electrons   997.07737191289675     
 total        electrons   997.07737191289675     
 total        electrons   997.07737191289675     
 total        electrons   997.07737191289675     
 total        electrons   997.07737191289675     
 total        electrons   997.07737191289675     
 total        electrons   997.07737191289675     
 total        electrons   997.07737191289675     
 total        electrons   997.07737191289675     
 total        electrons   997.07737191289675     
 total        electrons   997.07737191289675     
 total        electrons   997.07737191289675     
 total        electrons   997.07737191289675     
 total        electrons   997.07737191289675     
 total        electrons   997.07737191289675     
 total        electrons   997.07737191289675     
 total        electrons   997.07737191289675     
 total        electrons   997.07737191289675     
 total        electrons   997.07737191289675     
 total        electrons   997.07737191289675     
 total        electrons   997.07737191289675     
 total        electrons   997.07737191289675     
 total        electrons   997.07737191289675     
 total        electrons   997.07737191289675     
 total        electrons   997.07737191289675     
 total        electrons   997.07737191289675     
 total        electrons   997.07737191289675     
 total        electrons   997.07737191289675     
 total        electrons   997.07737191289675     
 total        electrons   997.07737191289675     
 total        electrons   997.07737191289675     
 total        electrons   997.07737191289675     
 total        electrons   997.07737191289675     
 total        electrons   997.07737191289675     
 total        electrons   997.07737191289675     
 total        electrons   997.07737191289675     
 total        electrons   997.07737191289675     
 total        electrons   997.07737191289675     
 total        electrons   997.07737191289675     
 total        electrons   997.07737191289675     
 total        electrons   997.07737191289675     
 total        electrons   997.07737191289675     
 total        electrons   997.07737191289675     
 total        electrons   997.07737191289675     
 total        electrons   997.07737191289675     
 total        electrons   997.07737191289675     
 total        electrons   997.07737191289675     
 total        electrons   997.07737191289675     
 total        electrons   997.07737191289675     
 total        electrons   997.07737191289675     
 total        electrons   997.07737191289675     
 total        electrons   997.07737191289675     
 total        electrons   997.07737191289675     
 total        electrons   997.07737191289675     
 total        electrons   997.07737191289675     
 total        electrons   997.07737191289675     
 total        electrons   997.07737191289675     
 total        electrons   997.07737191289675     
 total        electrons   997.07737191289675     
 total        electrons   997.07737191289675     
 total        electrons   997.07737191289675     
 total        electrons   997.07737191289675     
 entering main loop
       N       E                     dE             d eps       ncg     rms          rms(c)
DAV:   1     0.250825359074E+04    0.25083E+04   -0.10448E+05  8464   0.128E+03
DAV:   2    -0.194631631017E+03   -0.27029E+04   -0.25149E+04  9800   0.315E+02
DAV:   3    -0.632294572578E+03   -0.43766E+03   -0.41540E+03 11920   0.146E+02
DAV:   4    -0.669914657364E+03   -0.37620E+02   -0.35817E+02 13688   0.466E+01
DAV:   5    -0.672462871379E+03   -0.25482E+01   -0.24404E+01 14432   0.113E+01    0.147E+02
RMM:   6    -0.621827313886E+03    0.50636E+02   -0.11380E+03 13361   0.881E+01    0.688E+01
RMM:   7    -0.677475948862E+03   -0.55649E+02   -0.34902E+02 10797   0.535E+01    0.537E+01
RMM:   8    -0.597920120806E+03    0.79556E+02   -0.10245E+02 10332   0.299E+01    0.330E+01
RMM:   9    -0.586255163078E+03    0.11665E+02   -0.40724E+01 12629   0.140E+01    0.279E+01
RMM:  10    -0.570895017238E+03    0.15360E+02   -0.20869E+01 10096   0.145E+01    0.174E+01
RMM:  11    -0.571257548552E+03   -0.36253E+00   -0.68991E+00 12362   0.500E+00    0.150E+01
RMM:  12    -0.571319286235E+03   -0.61738E-01   -0.10831E+00 12840   0.176E+00    0.143E+01
RMM:  13    -0.571006699256E+03    0.31259E+00   -0.10074E+00 10677   0.302E+00    0.123E+01
RMM:  14    -0.571516280717E+03   -0.50958E+00   -0.66798E+00  9707   0.829E+00    0.998E+00
RMM:  15    -0.570454958359E+03    0.10613E+01   -0.10858E+00  9832   0.375E+00    0.463E+00
RMM:  16    -0.570254991467E+03    0.19997E+00   -0.13634E+00 12946   0.207E+00    0.336E+00
RMM:  17    -0.570192024942E+03    0.62967E-01   -0.47159E-01 12573   0.146E+00    0.241E+00
RMM:  18    -0.570159885642E+03    0.32139E-01   -0.21071E-01 12793   0.934E-01    0.120E+00
RMM:  19    -0.570157947145E+03    0.19385E-02   -0.89719E-02 11315   0.777E-01    0.112E+00
RMM:  20    -0.570154237116E+03    0.37100E-02   -0.42887E-02 12134   0.462E-01    0.102E+00
RMM:  21    -0.570140138148E+03    0.14099E-01   -0.16177E-02 10105   0.395E-01    0.525E-01
RMM:  22    -0.570138849389E+03    0.12888E-02   -0.18941E-02 13124   0.205E-01    0.266E-01
RMM:  23    -0.570138083156E+03    0.76623E-03   -0.58352E-03 12989   0.145E-01    0.177E-01
RMM:  24    -0.570137800031E+03    0.28312E-03   -0.21558E-03 11348   0.115E-01    0.168E-01
RMM:  25    -0.570137593733E+03    0.20630E-03   -0.18311E-03 12436   0.952E-02    0.128E-01
RMM:  26    -0.570137757712E+03   -0.16398E-03   -0.10235E-03 12902   0.631E-02    0.411E-02
RMM:  27    -0.570138534822E+03   -0.77711E-03   -0.61752E-04 10682   0.499E-02    0.698E-02
RMM:  28    -0.570138957976E+03   -0.42315E-03   -0.40040E-04 11121   0.408E-02    0.445E-02
RMM:  29    -0.570139055238E+03   -0.97261E-04   -0.17739E-04 11085   0.305E-02    0.373E-02
RMM:  30    -0.570139196294E+03   -0.14106E-03   -0.15950E-04 12255   0.221E-02    0.144E-02
RMM:  31    -0.570139196941E+03   -0.64649E-06   -0.60100E-05 10427   0.904E-03    0.785E-03
RMM:  32    -0.570139288944E+03   -0.92003E-04   -0.12642E-05  8496   0.588E-03    0.691E-03
RMM:  33    -0.570139540625E+03   -0.25168E-03   -0.14967E-05  8218   0.521E-03    0.671E-03
RMM:  34    -0.570139690560E+03   -0.14993E-03   -0.12843E-05  8261   0.519E-03    0.568E-03
RMM:  35    -0.570139777468E+03   -0.86908E-04   -0.80392E-06  7850   0.391E-03    0.475E-03
RMM:  36    -0.570139857313E+03   -0.79845E-04   -0.84665E-06  7916   0.433E-03    0.574E-03
RMM:  37    -0.570139887484E+03   -0.30171E-04   -0.41242E-06  7465   0.468E-03    0.227E-03
RMM:  38    -0.570139898219E+03   -0.10736E-04   -0.14095E-06  6725   0.221E-03    0.196E-03
RMM:  39    -0.570139902533E+03   -0.43138E-05   -0.59336E-07  6013   0.229E-03    0.148E-03
RMM:  40    -0.570139905340E+03   -0.28063E-05   -0.41020E-07  5315   0.151E-03    0.101E-03
RMM:  41    -0.570139906380E+03   -0.10399E-05   -0.25333E-07  4939   0.126E-03    0.613E-04
RMM:  42    -0.570139907038E+03   -0.65840E-06   -0.19806E-07  4874   0.110E-03
   1 F= -.57013991E+03 E0= -.57014291E+03  d E =0.899936E-02
 augmentation electrons   31.546683472939879     
 soft         electrons   254.54692382379886     
 augmentation electrons   31.546683472939879     
 soft         electrons   254.54692382379886     
 augmentation electrons   31.546683472939879     
 soft         electrons   254.54692382379886     
 augmentation electrons   31.546683472939879     
 soft         electrons   254.54692382379886     
 augmentation electrons   31.546683472939879     
 soft         electrons   254.54692382379886     
 augmentation electrons   31.546683472939879     
 soft         electrons   254.54692382379886     
 augmentation electrons   31.546683472939879     
 soft         electrons   254.54692382379886     
 augmentation electrons   31.546683472939879     
 soft         electrons   254.54692382379886     
 augmentation electrons   31.546683472939879     
 soft         electrons   254.54692382379886     
 augmentation electrons   31.546683472939879     
 soft         electrons   254.54692382379886     
 augmentation electrons   31.546683472939879     
 soft         electrons   254.54692382379886     
 augmentation electrons   31.546683472939879     
 soft         electrons   254.54692382379886     
 augmentation electrons   31.546683472939879     
 soft         electrons   254.54692382379886     
 augmentation electrons   31.546683472939879     
 soft         electrons   254.54692382379886     
 augmentation electrons   31.546683472939879     
 soft         electrons   254.54692382379886     
 augmentation electrons   31.546683472939879     
 soft         electrons   254.54692382379886     
 augmentation electrons   31.546683472939879     
 soft         electrons   254.54692382379886     
 augmentation electrons   31.546683472939879     
 soft         electrons   254.54692382379886     
 augmentation electrons   31.546683472939879     
 soft         electrons   254.54692382379886     
 augmentation electrons   31.546683472939879     
 soft         electrons   254.54692382379886     
 augmentation electrons   31.546683472939879     
 soft         electrons   254.54692382379886     
 augmentation electrons   31.546683472939879     
 soft         electrons   254.54692382379886     
 augmentation electrons   31.546683472939879     
 soft         electrons   254.54692382379886     
 augmentation electrons   31.546683472939879     
 soft         electrons   254.54692382379886     
 augmentation electrons   31.546683472939879     
 soft         electrons   254.54692382379886     
 augmentation electrons   31.546683472939879     
 soft         electrons   254.54692382379886     
 augmentation electrons   31.546683472939879     
 soft         electrons   254.54692382379886     
 augmentation electrons   31.546683472939879     
 soft         electrons   254.54692382379886     
 augmentation electrons   31.546683472939879     
 soft         electrons   254.54692382379886     
 augmentation electrons   31.546683472939879     
 soft         electrons   254.54692382379886     
 augmentation electrons   31.546683472939879     
 soft         electrons   254.54692382379886     
 augmentation electrons   31.546683472939879     
 soft         electrons   254.54692382379886     
 augmentation electrons   31.546683472939879     
 soft         electrons   254.54692382379886     
 augmentation electrons   31.546683472939879     
 soft         electrons   254.54692382379886     
 augmentation electrons   31.546683472939879     
 soft         electrons   254.54692382379886     
 augmentation electrons   31.546683472939879     
 soft         electrons   254.54692382379886     
 augmentation electrons   31.546683472939879     
 soft         electrons   254.54692382379886     
 augmentation electrons   31.546683472939879     
 soft         electrons   254.54692382379886     
 augmentation electrons   31.546683472939879     
 soft         electrons   254.54692382379886     
 augmentation electrons   31.546683472939879     
 soft         electrons   254.54692382379886     
 augmentation electrons   31.546683472939879     
 soft         electrons   254.54692382379886     
 augmentation electrons   31.546683472939879     
 soft         electrons   254.54692382379886     
 augmentation electrons   31.546683472939879     
 soft         electrons   254.54692382379886     
 augmentation electrons   31.546683472939879     
 soft         electrons   254.54692382379886     
 augmentation electrons   31.546683472939879     
 soft         electrons   254.54692382379886     
 augmentation electrons   31.546683472939879     
 soft         electrons   254.54692382379886     
 augmentation electrons   31.546683472939879     
 soft         electrons   254.54692382379886     
 augmentation electrons   31.546683472939879     
 soft         electrons   254.54692382379886     
 augmentation electrons   31.546683472939879     
 soft         electrons   254.54692382379886     
 augmentation electrons   31.546683472939879     
 soft         electrons   254.54692382379886     
 augmentation electrons   31.546683472939879     
 soft         electrons   254.54692382379886     
 augmentation electrons   31.546683472939879     
 soft         electrons   254.54692382379886     
 augmentation electrons   31.546683472939879     
 soft         electrons   254.54692382379886     
 augmentation electrons   31.546683472939879     
 soft         electrons   254.54692382379886     
 augmentation electrons   31.546683472939879     
 soft         electrons   254.54692382379886     
 augmentation electrons   31.546683472939879     
 soft         electrons   254.54692382379886     
 augmentation electrons   31.546683472939879     
 soft         electrons   254.54692382379886     
 augmentation electrons   31.546683472939879     
 soft         electrons   254.54692382379886     
 augmentation electrons   31.546683472939879     
 soft         electrons   254.54692382379886     
 augmentation electrons   31.546683472939879     
 soft         electrons   254.54692382379886     
 augmentation electrons   31.546683472939879     
 soft         electrons   254.54692382379886     
 augmentation electrons   31.546683472939879     
 soft         electrons   254.54692382379886     
 augmentation electrons   31.546683472939879     
 soft         electrons   254.54692382379886     
 augmentation electrons   31.546683472939879     
 soft         electrons   254.54692382379886     
 augmentation electrons   31.546683472939879     
 soft         electrons   254.54692382379886     
 augmentation electrons   31.546683472939879     
 soft         electrons   254.54692382379886     
 augmentation electrons   31.546683472939879     
 soft         electrons   254.54692382379886     
 augmentation electrons   31.546683472939879     
 soft         electrons   254.54692382379886     
 augmentation electrons   31.546683472939879     
 soft         electrons   254.54692382379886     
 augmentation electrons   31.546683472939879     
 soft         electrons   254.54692382379886     
 augmentation electrons   31.546683472939879     
 soft         electrons   254.54692382379886     
 augmentation electrons   31.546683472939879     
 soft         electrons   254.54692382379886     
 total        electrons   286.09360729673875     
 total        electrons   286.09360729673875     
 total        electrons   286.09360729673875     
 total        electrons   286.09360729673875     
 total        electrons   286.09360729673875     
 total        electrons   286.09360729673875     
 total        electrons   286.09360729673875     
 total        electrons   286.09360729673875     
 total        electrons   286.09360729673875     
 total        electrons   286.09360729673875     
 total        electrons   286.09360729673875     
 total        electrons   286.09360729673875     
 total        electrons   286.09360729673875     
 total        electrons   286.09360729673875     
 total        electrons   286.09360729673875     
 total        electrons   286.09360729673875     
 total        electrons   286.09360729673875     
 total        electrons   286.09360729673875     
 total        electrons   286.09360729673875     
 total        electrons   286.09360729673875     
 total        electrons   286.09360729673875     
 total        electrons   286.09360729673875     
 total        electrons   286.09360729673875     
 total        electrons   286.09360729673875     
 total        electrons   286.09360729673875     
 total        electrons   286.09360729673875     
 total        electrons   286.09360729673875     
 total        electrons   286.09360729673875     
 total        electrons   286.09360729673875     
 total        electrons   286.09360729673875     
 total        electrons   286.09360729673875     
 total        electrons   286.09360729673875     
 total        electrons   286.09360729673875     
 total        electrons   286.09360729673875     
 total        electrons   286.09360729673875     
 total        electrons   286.09360729673875     
 total        electrons   286.09360729673875     
 total        electrons   286.09360729673875     
 total        electrons   286.09360729673875     
 total        electrons   286.09360729673875     
 total        electrons   286.09360729673875     
 total        electrons   286.09360729673875     
 total        electrons   286.09360729673875     
 total        electrons   286.09360729673875     
 total        electrons   286.09360729673875     
 total        electrons   286.09360729673875     
 total        electrons   286.09360729673875     
 total        electrons   286.09360729673875     
 total        electrons   286.09360729673875     
 total        electrons   286.09360729673875     
 total        electrons   286.09360729673875     
 total        electrons   286.09360729673875     
 total        electrons   286.09360729673875     
 total        electrons   286.09360729673875     
 total        electrons   286.09360729673875     
 total        electrons   286.09360729673875     
 total        electrons   286.09360729673875     
 total        electrons   286.09360729673875     
 total        electrons   286.09360729673875     
 total        electrons   286.09360729673875     
 total        electrons   286.09360729673875     
 total        electrons   286.09360729673875     
 total        electrons   286.09360729673875     
 total        electrons   286.09360729673875     
 total        electrons   286.09360729673875     
 total        electrons   286.09360729673875     
 total        electrons   286.09360729673875     
 total        electrons   286.09360729673875     
 total        electrons   286.09360729673875     
 total        electrons   286.09360729673875     
 total        electrons   286.09360729673875     
 total        electrons   286.09360729673875     
Note: The following floating-point exceptions are signalling: IEEE_OVERFLOW_FLAG
Note: The following floating-point exceptions are signalling: IEEE_OVERFLOW_FLAG
Note: The following floating-point exceptions are signalling: IEEE_OVERFLOW_FLAG
Note: The following floating-point exceptions are signalling: IEEE_OVERFLOW_FLAG
Note: The following floating-point exceptions are signalling: IEEE_OVERFLOW_FLAG
Note: The following floating-point exceptions are signalling: IEEE_OVERFLOW_FLAG
Note: The following floating-point exceptions are signalling: IEEE_OVERFLOW_FLAG
Note: The following floating-point exceptions are signalling: IEEE_OVERFLOW_FLAG
Note: The following floating-point exceptions are signalling: IEEE_OVERFLOW_FLAG
Note: The following floating-point exceptions are signalling: IEEE_OVERFLOW_FLAG
Note: The following floating-point exceptions are signalling: IEEE_OVERFLOW_FLAG
Note: The following floating-point exceptions are signalling: IEEE_OVERFLOW_FLAG
Note: The following floating-point exceptions are signalling: IEEE_OVERFLOW_FLAG
Note: The following floating-point exceptions are signalling: IEEE_OVERFLOW_FLAG
Note: The following floating-point exceptions are signalling: IEEE_OVERFLOW_FLAG
Note: The following floating-point exceptions are signalling: IEEE_OVERFLOW_FLAG
Note: The following floating-point exceptions are signalling: IEEE_OVERFLOW_FLAG
Note: The following floating-point exceptions are signalling: IEEE_OVERFLOW_FLAG
Note: The following floating-point exceptions are signalling: IEEE_OVERFLOW_FLAG
Note: The following floating-point exceptions are signalling: IEEE_OVERFLOW_FLAG
Note: The following floating-point exceptions are signalling: IEEE_OVERFLOW_FLAG
Note: The following floating-point exceptions are signalling: IEEE_OVERFLOW_FLAG
Note: The following floating-point exceptions are signalling: IEEE_OVERFLOW_FLAG
Note: The following floating-point exceptions are signalling: IEEE_OVERFLOW_FLAG
Note: The following floating-point exceptions are signalling: IEEE_OVERFLOW_FLAG
Note: The following floating-point exceptions are signalling: IEEE_OVERFLOW_FLAG
Note: The following floating-point exceptions are signalling: IEEE_OVERFLOW_FLAG
Note: The following floating-point exceptions are signalling: IEEE_OVERFLOW_FLAG
Note: The following floating-point exceptions are signalling: IEEE_OVERFLOW_FLAG
Note: The following floating-point exceptions are signalling: IEEE_OVERFLOW_FLAG
Note: The following floating-point exceptions are signalling: IEEE_OVERFLOW_FLAG
Note: The following floating-point exceptions are signalling: IEEE_OVERFLOW_FLAG
Note: The following floating-point exceptions are signalling: IEEE_OVERFLOW_FLAG
Note: The following floating-point exceptions are signalling: IEEE_OVERFLOW_FLAG
Note: The following floating-point exceptions are signalling: IEEE_OVERFLOW_FLAG
Note: The following floating-point exceptions are signalling: IEEE_OVERFLOW_FLAG
Note: The following floating-point exceptions are signalling: IEEE_OVERFLOW_FLAG
Note: The following floating-point exceptions are signalling: IEEE_OVERFLOW_FLAG
Note: The following floating-point exceptions are signalling: IEEE_OVERFLOW_FLAG
Note: The following floating-point exceptions are signalling: IEEE_OVERFLOW_FLAG
Note: The following floating-point exceptions are signalling: IEEE_OVERFLOW_FLAG
Note: The following floating-point exceptions are signalling: IEEE_INVALID_FLAG IEEE_OVERFLOW_FLAG
Note: The following floating-point exceptions are signalling: IEEE_OVERFLOW_FLAG
Note: The following floating-point exceptions are signalling: IEEE_OVERFLOW_FLAG
Note: The following floating-point exceptions are signalling: IEEE_OVERFLOW_FLAG
Note: The following floating-point exceptions are signalling: IEEE_OVERFLOW_FLAG
Note: The following floating-point exceptions are signalling: IEEE_OVERFLOW_FLAG
Note: The following floating-point exceptions are signalling: IEEE_OVERFLOW_FLAG
Note: The following floating-point exceptions are signalling: IEEE_OVERFLOW_FLAG
Note: The following floating-point exceptions are signalling: IEEE_OVERFLOW_FLAG
Note: The following floating-point exceptions are signalling: IEEE_OVERFLOW_FLAG
Note: The following floating-point exceptions are signalling: IEEE_OVERFLOW_FLAG
Note: The following floating-point exceptions are signalling: IEEE_OVERFLOW_FLAG
Note: The following floating-point exceptions are signalling: IEEE_OVERFLOW_FLAG
Note: The following floating-point exceptions are signalling: IEEE_OVERFLOW_FLAG
Note: The following floating-point exceptions are signalling: IEEE_OVERFLOW_FLAG
Note: The following floating-point exceptions are signalling: IEEE_OVERFLOW_FLAG
Note: The following floating-point exceptions are signalling: IEEE_OVERFLOW_FLAG
Note: The following floating-point exceptions are signalling: IEEE_OVERFLOW_FLAG
Note: The following floating-point exceptions are signalling: IEEE_OVERFLOW_FLAG
Note: The following floating-point exceptions are signalling: IEEE_OVERFLOW_FLAG
Note: The following floating-point exceptions are signalling: IEEE_OVERFLOW_FLAG
Note: The following floating-point exceptions are signalling: IEEE_OVERFLOW_FLAG
Note: The following floating-point exceptions are signalling: IEEE_OVERFLOW_FLAG
Note: The following floating-point exceptions are signalling: IEEE_OVERFLOW_FLAG
Note: The following floating-point exceptions are signalling: IEEE_OVERFLOW_FLAG
Note: The following floating-point exceptions are signalling: IEEE_OVERFLOW_FLAG
Note: The following floating-point exceptions are signalling: IEEE_OVERFLOW_FLAG
Note: The following floating-point exceptions are signalling: IEEE_OVERFLOW_FLAG
Note: The following floating-point exceptions are signalling: IEEE_OVERFLOW_FLAG
Note: The following floating-point exceptions are signalling: IEEE_OVERFLOW_FLAG
Note: The following floating-point exceptions are signalling: IEEE_OVERFLOW_FLAG
