   55   55    1    1
  0.1298907E+02  0.6078000E-09  0.6078000E-09  0.2233000E-08  0.5000000E-15
   1.0000000000000000E-004
  CAR 
 Name                                    
    203     41    132

  0.3742002E-15  0.3742002E-15  0.1262379E-14  0.1234568E-01
    1      -11.216386   1.000000
    2      -10.643168   1.000000
    3       -9.826449   1.000000
    4       -8.459209   1.000000
    5       -8.327383   1.000000
    6       -8.326543   1.000000
    7       -7.949707   1.000000
    8       -7.884527   1.000000
    9       -7.742529   1.000000
   10       -7.618636   1.000000
   11       -7.470668   1.000000
   12       -7.416824   1.000000
   13       -7.412788   1.000000
   14       -7.405636   1.000000
   15       -7.080061   1.000000
   16       -7.065484   1.000000
   17       -7.034452   1.000000
   18       -6.828183   1.000000
   19       -6.767140   1.000000
   20       -6.537338   1.000000
   21       -6.168504   1.000000
   22       -5.911432   1.000000
   23       -5.868113   1.000000
   24       -5.628329   1.000000
   25       -5.585045   1.000000
   26       -5.553542   1.000000
   27       -5.526861   1.000000
   28       -5.503879   1.000000
   29       -5.009654   1.000000
   30       -4.970893   1.000000
   31       -4.420694   1.000000
   32       -4.325925   1.000000
   33       -4.262141   1.000000
   34       -4.230875   1.000000
   35       -4.009335   1.000000
   36       -3.987446   1.000000
   37       -3.748124   1.000000
   38       -3.272547   1.000000
   39       -3.098138   1.000000
   40       -2.930190   1.000000
   41       -2.761684   1.000000
   42       -2.695107   1.000000
   43       -2.563806   1.000000
   44       -2.402776   1.000000
   45       -2.338414   1.000000
   46       -2.259226   1.000000
   47       -2.176282   1.000000
   48       -1.994519   1.000000
   49       -1.966178   1.000000
   50       -1.885148   1.000000
   51       -1.720454   1.000000
   52       -1.703508   1.000000
   53       -1.663486   1.000000
   54       -1.560746   1.000000
   55       -1.551299   1.000000
   56       -1.504343   1.000000
   57       -1.464955   1.000000
   58       -1.395185   1.000000
   59       -1.333025   1.000000
   60       -1.247584   1.000000
   61       -1.235079   1.000000
   62       -1.191086   1.000000
   63       -1.031569   1.000000
   64       -1.013657   1.000000
   65       -0.836661   1.000000
   66       -0.822730   1.000000
   67       -0.729031   1.000000
   68       -0.642888   1.000000
   69       -0.573501   1.000000
   70       -0.542561   1.000000
   71       -0.497392   1.000000
   72       -0.435899   1.000000
   73       -0.353162   1.000000
   74       -0.112271   1.000000
   75        0.065845   1.000000
   76        0.123866   1.000000
   77        0.136350   1.000000
   78        0.326088   1.000000
   79        0.425286   1.000000
   80        0.589045   1.000000
   81        0.659214   1.000000
   82        0.732533   1.000000
   83        0.908310   1.000000
   84        1.327871   1.000000
   85        1.356069   1.000000
   86        1.523182   1.000000
   87        1.573475   1.000000
   88        1.638041   1.000000
   89        1.685215   1.000000
   90        1.755823   1.000000
   91        1.868930   1.000000
   92        1.881205   1.000000
   93        1.922203   1.000000
   94        1.942604   1.000000
   95        1.960684   1.000000
   96        2.172502   1.000000
   97        2.420260   1.000026
   98        2.468206   1.000105
   99        2.860303   1.026924
  100        2.953915   0.896434
  101        3.031559   0.635138
  102        3.228618   0.004235
  103        3.366543  -0.027073
  104        3.466773  -0.007638
  105        3.492784  -0.004883
  106        3.568481  -0.001046
  107        3.674612  -0.000069
  108        3.819745  -0.000001
  109        3.841119  -0.000000
  110        3.846621  -0.000000
  111        3.926613  -0.000000
  112        3.988785  -0.000000
  113        4.127372  -0.000000
  114        4.142506  -0.000000
  115        4.176079  -0.000000
  116        4.234230  -0.000000
  117        4.325590  -0.000000
  118        4.386870  -0.000000
  119        4.426270  -0.000000
  120        4.467290  -0.000000
  121        4.545870  -0.000000
  122        4.625800  -0.000000
  123        4.664161  -0.000000
  124        4.681949  -0.000000
  125        5.183140  -0.000000
  126        5.412952  -0.000000
  127        5.462637  -0.000000
  128        5.874479  -0.000000
  129        6.008870  -0.000000
  130        6.335031  -0.000000
  131        6.474006  -0.000000
  132        6.602611  -0.000000

  0.1111111E+00  0.3687552E-15  0.1262379E-14  0.2469136E-01
    1      -11.158771   1.000000
    2      -10.591197   1.000000
    3       -9.787884   1.000000
    4       -8.424491   1.000000
    5       -8.357973   1.000000
    6       -8.295336   1.000000
    7       -8.066278   1.000000
    8       -8.024525   1.000000
    9       -7.920578   1.000000
   10       -7.810972   1.000000
   11       -7.708957   1.000000
   12       -7.656676   1.000000
   13       -7.534782   1.000000
   14       -7.497824   1.000000
   15       -6.909106   1.000000
   16       -6.843988   1.000000
   17       -6.691932   1.000000
   18       -6.652499   1.000000
   19       -6.537785   1.000000
   20       -6.398170   1.000000
   21       -6.174091   1.000000
   22       -5.930245   1.000000
   23       -5.865643   1.000000
   24       -5.681695   1.000000
   25       -5.583745   1.000000
   26       -5.562096   1.000000
   27       -5.460050   1.000000
   28       -5.376441   1.000000
   29       -5.024514   1.000000
   30       -4.941631   1.000000
   31       -4.370928   1.000000
   32       -4.253093   1.000000
   33       -4.205710   1.000000
   34       -4.047682   1.000000
   35       -3.953816   1.000000
   36       -3.815598   1.000000
   37       -3.637287   1.000000
   38       -3.251217   1.000000
   39       -3.086938   1.000000
   40       -2.901193   1.000000
   41       -2.810474   1.000000
   42       -2.694828   1.000000
   43       -2.621837   1.000000
   44       -2.399765   1.000000
   45       -2.356769   1.000000
   46       -2.303045   1.000000
   47       -2.230669   1.000000
   48       -2.132446   1.000000
   49       -2.069372   1.000000
   50       -1.968364   1.000000
   51       -1.814978   1.000000
   52       -1.715008   1.000000
   53       -1.632414   1.000000
   54       -1.596212   1.000000
   55       -1.535532   1.000000
   56       -1.469804   1.000000
   57       -1.426563   1.000000
   58       -1.354263   1.000000
   59       -1.297352   1.000000
   60       -1.241520   1.000000
   61       -1.216601   1.000000
   62       -1.193541   1.000000
   63       -1.086945   1.000000
   64       -1.007668   1.000000
   65       -0.892611   1.000000
   66       -0.870339   1.000000
   67       -0.799339   1.000000
   68       -0.751881   1.000000
   69       -0.668938   1.000000
   70       -0.603147   1.000000
   71       -0.525748   1.000000
   72       -0.386331   1.000000
   73       -0.309466   1.000000
   74       -0.139766   1.000000
   75       -0.004504   1.000000
   76        0.011836   1.000000
   77        0.105480   1.000000
   78        0.303274   1.000000
   79        0.338508   1.000000
   80        0.383010   1.000000
   81        0.608003   1.000000
   82        0.677652   1.000000
   83        0.875290   1.000000
   84        1.176754   1.000000
   85        1.233140   1.000000
   86        1.352758   1.000000
   87        1.480389   1.000000
   88        1.577640   1.000000
   89        1.710367   1.000000
   90        1.774396   1.000000
   91        1.803541   1.000000
   92        1.856603   1.000000
   93        1.878206   1.000000
   94        1.916332   1.000000
   95        2.056365   1.000000
   96        2.149670   1.000000
   97        2.637857   1.005127
   98        2.739810   1.022108
   99        2.900411   0.994453
  100        2.926685   0.955032
  101        3.052580   0.548080
  102        3.099092   0.353871
  103        3.265855  -0.026081
  104        3.367415  -0.026876
  105        3.425258  -0.014184
  106        3.736381  -0.000011
  107        3.763770  -0.000004
  108        3.821386  -0.000001
  109        3.872223  -0.000000
  110        3.907782  -0.000000
  111        3.934896  -0.000000
  112        3.976907  -0.000000
  113        4.053568  -0.000000
  114        4.137144  -0.000000
  115        4.162589  -0.000000
  116        4.191878  -0.000000
  117        4.253061  -0.000000
  118        4.271670  -0.000000
  119        4.313752  -0.000000
  120        4.391178  -0.000000
  121        4.480828  -0.000000
  122        4.499604  -0.000000
  123        4.562562  -0.000000
  124        4.611497  -0.000000
  125        4.621351  -0.000000
  126        4.670983  -0.000000
  127        5.050841  -0.000000
  128        5.125127  -0.000000
  129        5.391570  -0.000000
  130        6.009675  -0.000000
  131        6.412808  -0.000000
  132        6.563074  -0.000000

  0.2222222E+00  0.3503827E-15  0.1262379E-14  0.2469136E-01
    1      -10.988108   1.000000
    2      -10.437923   1.000000
    3       -9.676012   1.000000
    4       -8.681423   1.000000
    5       -8.518170   1.000000
    6       -8.427230   1.000000
    7       -8.299723   1.000000
    8       -8.192631   1.000000
    9       -8.023724   1.000000
   10       -7.908245   1.000000
   11       -7.863888   1.000000
   12       -7.836806   1.000000
   13       -7.733775   1.000000
   14       -7.680860   1.000000
   15       -6.708677   1.000000
   16       -6.697139   1.000000
   17       -6.480651   1.000000
   18       -6.442258   1.000000
   19       -6.384666   1.000000
   20       -6.282979   1.000000
   21       -5.947763   1.000000
   22       -5.825635   1.000000
   23       -5.632442   1.000000
   24       -5.583373   1.000000
   25       -5.556970   1.000000
   26       -5.428403   1.000000
   27       -5.299964   1.000000
   28       -5.152853   1.000000
   29       -4.913323   1.000000
   30       -4.746283   1.000000
   31       -4.245944   1.000000
   32       -4.089324   1.000000
   33       -4.065314   1.000000
   34       -3.801325   1.000000
   35       -3.624682   1.000000
   36       -3.568214   1.000000
   37       -3.279701   1.000000
   38       -3.203263   1.000000
   39       -3.084044   1.000000
   40       -3.005543   1.000000
   41       -2.927944   1.000000
   42       -2.832403   1.000000
   43       -2.794786   1.000000
   44       -2.694911   1.000000
   45       -2.508634   1.000000
   46       -2.320911   1.000000
   47       -2.294597   1.000000
   48       -2.188058   1.000000
   49       -2.078743   1.000000
   50       -1.931588   1.000000
   51       -1.856189   1.000000
   52       -1.753846   1.000000
   53       -1.672212   1.000000
   54       -1.620095   1.000000
   55       -1.584725   1.000000
   56       -1.527604   1.000000
   57       -1.508627   1.000000
   58       -1.394116   1.000000
   59       -1.333452   1.000000
   60       -1.274022   1.000000
   61       -1.230658   1.000000
   62       -1.201869   1.000000
   63       -1.180802   1.000000
   64       -1.123496   1.000000
   65       -1.034821   1.000000
   66       -0.988886   1.000000
   67       -0.896730   1.000000
   68       -0.863303   1.000000
   69       -0.786034   1.000000
   70       -0.694332   1.000000
   71       -0.639700   1.000000
   72       -0.518958   1.000000
   73       -0.415081   1.000000
   74       -0.309888   1.000000
   75       -0.270225   1.000000
   76       -0.165680   1.000000
   77        0.114047   1.000000
   78        0.196338   1.000000
   79        0.277801   1.000000
   80        0.386315   1.000000
   81        0.470383   1.000000
   82        0.663307   1.000000
   83        0.791661   1.000000
   84        0.860132   1.000000
   85        1.040666   1.000000
   86        1.215392   1.000000
   87        1.293698   1.000000
   88        1.534484   1.000000
   89        1.571425   1.000000
   90        1.653455   1.000000
   91        1.737271   1.000000
   92        1.747040   1.000000
   93        1.841105   1.000000
   94        1.931733   1.000000
   95        2.074692   1.000000
   96        2.161743   1.000000
   97        2.558382   1.001021
   98        2.649378   1.006272
   99        2.854586   1.029334
  100        3.017377   0.691316
  101        3.131069   0.232996
  102        3.262342  -0.024266
  103        3.338573  -0.032711
  104        3.476948  -0.006445
  105        3.539415  -0.001969
  106        3.626385  -0.000257
  107        3.666335  -0.000087
  108        3.733040  -0.000012
  109        3.752372  -0.000006
  110        3.762938  -0.000005
  111        3.871919  -0.000000
  112        3.936456  -0.000000
  113        3.983977  -0.000000
  114        4.014595  -0.000000
  115        4.070901  -0.000000
  116        4.091545  -0.000000
  117        4.171884  -0.000000
  118        4.217828  -0.000000
  119        4.290060  -0.000000
  120        4.345471  -0.000000
  121        4.396203  -0.000000
  122        4.451846  -0.000000
  123        4.509516  -0.000000
  124        4.580123  -0.000000
  125        4.608749  -0.000000
  126        4.783198  -0.000000
  127        4.833222  -0.000000
  128        4.851811  -0.000000
  129        5.099073  -0.000000
  130        5.241088  -0.000000
  131        5.322494  -0.000000
  132        6.210786  -0.000000

  0.3333333E+00  0.3767071E-15  0.1262379E-14  0.2469136E-01
    1      -10.711622   1.000000
    2      -10.191812   1.000000
    3       -9.504780   1.000000
    4       -9.281036   1.000000
    5       -8.960382   1.000000
    6       -8.679703   1.000000
    7       -8.152243   1.000000
    8       -8.128452   1.000000
    9       -8.058442   1.000000
   10       -8.018953   1.000000
   11       -7.953218   1.000000
   12       -7.888949   1.000000
   13       -7.839342   1.000000
   14       -7.766939   1.000000
   15       -7.056479   1.000000
   16       -6.965970   1.000000
   17       -6.271658   1.000000
   18       -6.242203   1.000000
   19       -6.171394   1.000000
   20       -5.952308   1.000000
   21       -5.739182   1.000000
   22       -5.674599   1.000000
   23       -5.572799   1.000000
   24       -5.497828   1.000000
   25       -5.349166   1.000000
   26       -5.289676   1.000000
   27       -4.826195   1.000000
   28       -4.718065   1.000000
   29       -4.445959   1.000000
   30       -4.350409   1.000000
   31       -4.025309   1.000000
   32       -3.893469   1.000000
   33       -3.803382   1.000000
   34       -3.612855   1.000000
   35       -3.490957   1.000000
   36       -3.425838   1.000000
   37       -3.361655   1.000000
   38       -3.321408   1.000000
   39       -3.259994   1.000000
   40       -3.212509   1.000000
   41       -3.128541   1.000000
   42       -3.049683   1.000000
   43       -2.805781   1.000000
   44       -2.590049   1.000000
   45       -2.477649   1.000000
   46       -2.394431   1.000000
   47       -2.236226   1.000000
   48       -2.167330   1.000000
   49       -2.123831   1.000000
   50       -2.019792   1.000000
   51       -1.950472   1.000000
   52       -1.901588   1.000000
   53       -1.856229   1.000000
   54       -1.772025   1.000000
   55       -1.709667   1.000000
   56       -1.606570   1.000000
   57       -1.558558   1.000000
   58       -1.478634   1.000000
   59       -1.446231   1.000000
   60       -1.397811   1.000000
   61       -1.380162   1.000000
   62       -1.310426   1.000000
   63       -1.249207   1.000000
   64       -1.214912   1.000000
   65       -1.147307   1.000000
   66       -1.065660   1.000000
   67       -0.985693   1.000000
   68       -0.896895   1.000000
   69       -0.871379   1.000000
   70       -0.831056   1.000000
   71       -0.768420   1.000000
   72       -0.640751   1.000000
   73       -0.553908   1.000000
   74       -0.446145   1.000000
   75       -0.300246   1.000000
   76       -0.258011   1.000000
   77       -0.202685   1.000000
   78        0.058001   1.000000
   79        0.223951   1.000000
   80        0.366818   1.000000
   81        0.588311   1.000000
   82        0.617887   1.000000
   83        0.755524   1.000000
   84        0.821526   1.000000
   85        0.976590   1.000000
   86        1.190580   1.000000
   87        1.225982   1.000000
   88        1.380523   1.000000
   89        1.424356   1.000000
   90        1.530365   1.000000
   91        1.614445   1.000000
   92        1.707371   1.000000
   93        1.766307   1.000000
   94        1.895462   1.000000
   95        1.960221   1.000000
   96        2.313276   1.000001
   97        2.367674   1.000005
   98        2.438766   1.000045
   99        2.668575   1.008607
  100        2.952775   0.899262
  101        3.081997   0.424033
  102        3.144296   0.188577
  103        3.272284  -0.028923
  104        3.295008  -0.034640
  105        3.333043  -0.033564
  106        3.420923  -0.015023
  107        3.509417  -0.003586
  108        3.616312  -0.000332
  109        3.690080  -0.000044
  110        3.738987  -0.000010
  111        3.764916  -0.000004
  112        3.829913  -0.000000
  113        3.844824  -0.000000
  114        3.969636  -0.000000
  115        4.005923  -0.000000
  116        4.117779  -0.000000
  117        4.142862  -0.000000
  118        4.178540  -0.000000
  119        4.246213  -0.000000
  120        4.305069  -0.000000
  121        4.380485  -0.000000
  122        4.465889  -0.000000
  123        4.582920  -0.000000
  124        4.621987  -0.000000
  125        4.689502  -0.000000
  126        4.761087  -0.000000
  127        4.857992  -0.000000
  128        4.906429  -0.000000
  129        5.064833  -0.000000
  130        5.477437  -0.000000
  131        5.482194  -0.000000
  132        6.005657  -0.000000

  0.4444444E+00  0.3698634E-15  0.1262379E-14  0.2469136E-01
    1      -10.353087   1.000000
    2       -9.888204   1.000000
    3       -9.791067   1.000000
    4       -9.448042   1.000000
    5       -9.244602   1.000000
    6       -8.938618   1.000000
    7       -8.177649   1.000000
    8       -8.129098   1.000000
    9       -8.061850   1.000000
   10       -7.970809   1.000000
   11       -7.913309   1.000000
   12       -7.890593   1.000000
   13       -7.801517   1.000000
   14       -7.746393   1.000000
   15       -7.427697   1.000000
   16       -7.204402   1.000000
   17       -6.217347   1.000000
   18       -6.173634   1.000000
   19       -6.065824   1.000000
   20       -5.693782   1.000000
   21       -5.669879   1.000000
   22       -5.466509   1.000000
   23       -5.438628   1.000000
   24       -5.346587   1.000000
   25       -5.291877   1.000000
   26       -5.235270   1.000000
   27       -4.248982   1.000000
   28       -4.153791   1.000000
   29       -4.000023   1.000000
   30       -3.973805   1.000000
   31       -3.881352   1.000000
   32       -3.856070   1.000000
   33       -3.732162   1.000000
   34       -3.694152   1.000000
   35       -3.586564   1.000000
   36       -3.534806   1.000000
   37       -3.425612   1.000000
   38       -3.384409   1.000000
   39       -3.349564   1.000000
   40       -3.258668   1.000000
   41       -3.189584   1.000000
   42       -3.070856   1.000000
   43       -3.037194   1.000000
   44       -2.936069   1.000000
   45       -2.535392   1.000000
   46       -2.486382   1.000000
   47       -2.318039   1.000000
   48       -2.212492   1.000000
   49       -2.081680   1.000000
   50       -2.041088   1.000000
   51       -1.947911   1.000000
   52       -1.887037   1.000000
   53       -1.873146   1.000000
   54       -1.801015   1.000000
   55       -1.720360   1.000000
   56       -1.677237   1.000000
   57       -1.625213   1.000000
   58       -1.568056   1.000000
   59       -1.523022   1.000000
   60       -1.465443   1.000000
   61       -1.452493   1.000000
   62       -1.411965   1.000000
   63       -1.341142   1.000000
   64       -1.317944   1.000000
   65       -1.167325   1.000000
   66       -1.111971   1.000000
   67       -1.071202   1.000000
   68       -0.984060   1.000000
   69       -0.949548   1.000000
   70       -0.868820   1.000000
   71       -0.771289   1.000000
   72       -0.695731   1.000000
   73       -0.610880   1.000000
   74       -0.484670   1.000000
   75       -0.369638   1.000000
   76       -0.313653   1.000000
   77       -0.268995   1.000000
   78       -0.174972   1.000000
   79        0.273021   1.000000
   80        0.432549   1.000000
   81        0.482294   1.000000
   82        0.553964   1.000000
   83        0.773634   1.000000
   84        0.918322   1.000000
   85        0.983394   1.000000
   86        1.155805   1.000000
   87        1.198479   1.000000
   88        1.287324   1.000000
   89        1.396421   1.000000
   90        1.472472   1.000000
   91        1.615379   1.000000
   92        1.681426   1.000000
   93        1.716300   1.000000
   94        1.958940   1.000000
   95        2.067217   1.000000
   96        2.231302   1.000000
   97        2.374005   1.000006
   98        2.443545   1.000052
   99        2.516836   1.000379
  100        2.599447   1.002465
  101        2.624591   1.004023
  102        2.926649   0.955097
  103        3.004885   0.738300
  104        3.213133   0.025132
  105        3.257606  -0.021507
  106        3.432726  -0.012805
  107        3.460100  -0.008505
  108        3.513261  -0.003331
  109        3.560319  -0.001256
  110        3.624835  -0.000267
  111        3.677813  -0.000063
  112        3.702871  -0.000030
  113        3.767178  -0.000004
  114        3.886588  -0.000000
  115        3.951113  -0.000000
  116        4.028186  -0.000000
  117        4.092370  -0.000000
  118        4.147188  -0.000000
  119        4.260644  -0.000000
  120        4.291569  -0.000000
  121        4.414787  -0.000000
  122        4.543354  -0.000000
  123        4.665508  -0.000000
  124        4.695692  -0.000000
  125        4.770765  -0.000000
  126        4.867072  -0.000000
  127        4.965239  -0.000000
  128        5.171316  -0.000000
  129        5.347835  -0.000000
  130        5.406166  -0.000000
  131        5.477905  -0.000000
  132        5.780879  -0.000000

  0.3742002E-15  0.1111111E+00  0.1262379E-14  0.2469136E-01
    1      -11.158771   1.000000
    2      -10.591196   1.000000
    3       -9.787883   1.000000
    4       -8.424492   1.000000
    5       -8.357968   1.000000
    6       -8.295335   1.000000
    7       -8.066307   1.000000
    8       -8.024545   1.000000
    9       -7.920590   1.000000
   10       -7.810948   1.000000
   11       -7.708927   1.000000
   12       -7.656730   1.000000
   13       -7.534757   1.000000
   14       -7.497779   1.000000
   15       -6.909152   1.000000
   16       -6.843923   1.000000
   17       -6.691851   1.000000
   18       -6.652557   1.000000
   19       -6.537835   1.000000
   20       -6.398264   1.000000
   21       -6.174010   1.000000
   22       -5.930289   1.000000
   23       -5.865434   1.000000
   24       -5.681741   1.000000
   25       -5.583710   1.000000
   26       -5.562065   1.000000
   27       -5.460133   1.000000
   28       -5.376494   1.000000
   29       -5.024750   1.000000
   30       -4.941591   1.000000
   31       -4.370805   1.000000
   32       -4.253060   1.000000
   33       -4.205718   1.000000
   34       -4.047716   1.000000
   35       -3.953711   1.000000
   36       -3.815403   1.000000
   37       -3.637535   1.000000
   38       -3.251214   1.000000
   39       -3.086921   1.000000
   40       -2.901198   1.000000
   41       -2.810457   1.000000
   42       -2.694867   1.000000
   43       -2.621780   1.000000
   44       -2.399634   1.000000
   45       -2.356810   1.000000
   46       -2.303063   1.000000
   47       -2.230493   1.000000
   48       -2.132911   1.000000
   49       -2.069159   1.000000
   50       -1.968311   1.000000
   51       -1.815179   1.000000
   52       -1.714665   1.000000
   53       -1.632367   1.000000
   54       -1.596296   1.000000
   55       -1.535505   1.000000
   56       -1.469575   1.000000
   57       -1.426667   1.000000
   58       -1.354388   1.000000
   59       -1.297246   1.000000
   60       -1.241569   1.000000
   61       -1.216655   1.000000
   62       -1.193655   1.000000
   63       -1.087143   1.000000
   64       -1.007955   1.000000
   65       -0.892307   1.000000
   66       -0.870533   1.000000
   67       -0.798968   1.000000
   68       -0.752026   1.000000
   69       -0.668849   1.000000
   70       -0.603210   1.000000
   71       -0.525973   1.000000
   72       -0.386669   1.000000
   73       -0.309197   1.000000
   74       -0.139721   1.000000
   75       -0.004905   1.000000
   76        0.012108   1.000000
   77        0.105424   1.000000
   78        0.303566   1.000000
   79        0.338096   1.000000
   80        0.383725   1.000000
   81        0.607597   1.000000
   82        0.677799   1.000000
   83        0.875203   1.000000
   84        1.176566   1.000000
   85        1.233465   1.000000
   86        1.352637   1.000000
   87        1.480497   1.000000
   88        1.576816   1.000000
   89        1.710686   1.000000
   90        1.774317   1.000000
   91        1.803583   1.000000
   92        1.856597   1.000000
   93        1.878683   1.000000
   94        1.916434   1.000000
   95        2.056229   1.000000
   96        2.149854   1.000000
   97        2.637630   1.005106
   98        2.740134   1.022183
   99        2.900536   0.994303
  100        2.926876   0.954686
  101        3.052293   0.549286
  102        3.099135   0.353697
  103        3.266076  -0.026189
  104        3.367256  -0.026912
  105        3.425163  -0.014202
  106        3.737492  -0.000010
  107        3.763021  -0.000004
  108        3.821198  -0.000001
  109        3.871332  -0.000000
  110        3.907791  -0.000000
  111        3.935069  -0.000000
  112        3.977745  -0.000000
  113        4.054399  -0.000000
  114        4.142981  -0.000000
  115        4.168972  -0.000000
  116        4.211006  -0.000000
  117        4.270473  -0.000000
  118        4.307964  -0.000000
  119        4.402391  -0.000000
  120        4.436466  -0.000000
  121        4.486571  -0.000000
  122        4.538590  -0.000000
  123        4.585161  -0.000000
  124        4.632535  -0.000000
  125        4.804966  -0.000000
  126        5.306770  -0.000000
  127        5.369845  -0.000000
  128        5.638388  -0.000000
  129        5.993976  -0.000000
  130        6.070533  -0.000000
  131        6.490545  -0.000000
  132        6.515556  -0.000000

  0.1111111E+00  0.1111111E+00  0.1262379E-14  0.2469136E-01
    1      -11.044375   1.000000
    2      -10.488656   1.000000
    3       -9.713157   1.000000
    4       -8.424310   1.000000
    5       -8.408746   1.000000
    6       -8.375125   1.000000
    7       -8.286049   1.000000
    8       -8.249569   1.000000
    9       -8.112621   1.000000
   10       -8.038623   1.000000
   11       -7.981219   1.000000
   12       -7.819275   1.000000
   13       -7.531077   1.000000
   14       -7.122902   1.000000
   15       -7.083801   1.000000
   16       -6.649875   1.000000
   17       -6.597281   1.000000
   18       -6.454451   1.000000
   19       -6.417104   1.000000
   20       -6.397611   1.000000
   21       -5.913793   1.000000
   22       -5.896074   1.000000
   23       -5.804782   1.000000
   24       -5.568937   1.000000
   25       -5.562464   1.000000
   26       -5.439534   1.000000
   27       -5.293835   1.000000
   28       -5.164275   1.000000
   29       -4.933530   1.000000
   30       -4.836025   1.000000
   31       -4.524967   1.000000
   32       -4.360128   1.000000
   33       -3.830304   1.000000
   34       -3.797044   1.000000
   35       -3.707047   1.000000
   36       -3.601620   1.000000
   37       -3.451774   1.000000
   38       -3.245701   1.000000
   39       -3.109998   1.000000
   40       -2.980837   1.000000
   41       -2.886708   1.000000
   42       -2.798178   1.000000
   43       -2.703962   1.000000
   44       -2.539631   1.000000
   45       -2.427450   1.000000
   46       -2.284166   1.000000
   47       -2.255897   1.000000
   48       -2.155408   1.000000
   49       -2.064254   1.000000
   50       -2.005625   1.000000
   51       -1.932319   1.000000
   52       -1.764529   1.000000
   53       -1.746074   1.000000
   54       -1.642657   1.000000
   55       -1.529186   1.000000
   56       -1.499043   1.000000
   57       -1.405974   1.000000
   58       -1.387486   1.000000
   59       -1.319331   1.000000
   60       -1.268554   1.000000
   61       -1.219091   1.000000
   62       -1.146145   1.000000
   63       -1.055080   1.000000
   64       -1.054294   1.000000
   65       -1.028185   1.000000
   66       -0.947797   1.000000
   67       -0.895762   1.000000
   68       -0.860755   1.000000
   69       -0.697934   1.000000
   70       -0.695642   1.000000
   71       -0.586450   1.000000
   72       -0.454363   1.000000
   73       -0.357775   1.000000
   74       -0.295405   1.000000
   75       -0.263652   1.000000
   76       -0.151286   1.000000
   77        0.098189   1.000000
   78        0.281660   1.000000
   79        0.303618   1.000000
   80        0.396761   1.000000
   81        0.560836   1.000000
   82        0.569458   1.000000
   83        0.733454   1.000000
   84        0.811373   1.000000
   85        1.167797   1.000000
   86        1.263771   1.000000
   87        1.446448   1.000000
   88        1.579096   1.000000
   89        1.616494   1.000000
   90        1.689166   1.000000
   91        1.690944   1.000000
   92        1.807933   1.000000
   93        1.821325   1.000000
   94        1.843272   1.000000
   95        2.058808   1.000000
   96        2.226175   1.000000
   97        2.700428   1.013761
   98        2.729495   1.019768