   74   74   85    1
  0.2110353E+02  0.1053953E-08  0.6141200E-09  0.2412750E-08  0.5000000E-15
   1.0000000000000000E-004
  CAR 
 Name                                    
    284     23    184

  0.3742002E-15  0.3742002E-15  0.1262379E-14  0.2222222E-01
    1      -13.978377   1.000000
    2      -12.851595   1.000000
    3      -12.783951   1.000000
    4      -12.751721   1.000000
    5      -11.805457   1.000000
    6      -11.684571   1.000000
    7      -11.645717   1.000000
    8      -11.591089   1.000000
    9      -11.415646   1.000000
   10      -11.286488   1.000000
   11      -11.207193   1.000000
   12      -11.093900   1.000000
   13      -11.050260   1.000000
   14      -10.738034   1.000000
   15      -10.473789   1.000000
   16      -10.315288   1.000000
   17      -10.183824   1.000000
   18      -10.157341   1.000000
   19       -9.821930   1.000000
   20       -9.796599   1.000000
   21       -9.666708   1.000000
   22       -9.528654   1.000000
   23       -9.504373   1.000000
   24       -9.359713   1.000000
   25       -8.922492   1.000000
   26       -8.892307   1.000000
   27       -8.692177   1.000000
   28       -8.564004   1.000000
   29       -8.501312   1.000000
   30       -8.312559   1.000000
   31       -8.206687   1.000000
   32       -7.891821   1.000000
   33       -7.746462   1.000000
   34       -7.400182   1.000000
   35       -7.310075   1.000000
   36       -7.274182   1.000000
   37       -7.188321   1.000000
   38       -7.137142   1.000000
   39       -6.968202   1.000000
   40       -6.824228   1.000000
   41       -6.799980   1.000000
   42       -6.777875   1.000000
   43       -6.688847   1.000000
   44       -6.646348   1.000000
   45       -6.587031   1.000000
   46       -6.471693   1.000000
   47       -6.462275   1.000000
   48       -6.204799   1.000000
   49       -6.152751   1.000000
   50       -6.116806   1.000000
   51       -5.938522   1.000000
   52       -5.899636   1.000000
   53       -5.855358   1.000000
   54       -5.680094   1.000000
   55       -5.663325   1.000000
   56       -5.640232   1.000000
   57       -5.625916   1.000000
   58       -5.436300   1.000000
   59       -5.422058   1.000000
   60       -5.295645   1.000000
   61       -5.272235   1.000000
   62       -5.193768   1.000000
   63       -4.997129   1.000000
   64       -4.908034   1.000000
   65       -4.758351   1.000000
   66       -4.738710   1.000000
   67       -4.735663   1.000000
   68       -4.706760   1.000000
   69       -4.611160   1.000000
   70       -4.478341   1.000000
   71       -4.437794   1.000000
   72       -4.389932   1.000000
   73       -4.347531   1.000000
   74       -4.304482   1.000000
   75       -4.218645   1.000000
   76       -4.177209   1.000000
   77       -4.151512   1.000000
   78       -4.112203   1.000000
   79       -4.015101   1.000000
   80       -3.980735   1.000000
   81       -3.972317   1.000000
   82       -3.961789   1.000000
   83       -3.916749   1.000000
   84       -3.892367   1.000000
   85       -3.874709   1.000000
   86       -3.774594   1.000000
   87       -3.683364   1.000000
   88       -3.646905   1.000000
   89       -3.616061   1.000000
   90       -3.607487   1.000000
   91       -3.504424   1.000000
   92       -3.488461   1.000000
   93       -3.391103   1.000000
   94       -3.249026   1.000000
   95       -3.098095   1.000000
   96       -3.072801   1.000000
   97       -3.036429   1.000000
   98       -2.884136   1.000000
   99       -2.880350   1.000000
  100       -2.791840   1.000000
  101       -2.770939   1.000000
  102       -2.671306   1.000000
  103       -2.525557   1.000000
  104       -2.454453   1.000000
  105       -2.441247   1.000000
  106       -2.418807   1.000000
  107       -2.326914   1.000000
  108       -2.189404   1.000000
  109       -2.176693   1.000000
  110       -2.169783   1.000000
  111       -2.030822   1.000000
  112       -2.022288   1.000000
  113       -2.006955   1.000000
  114       -1.939124   1.000000
  115       -1.837844   1.000000
  116       -1.774529   1.000000
  117       -1.701125   1.000000
  118       -1.659735   1.000000
  119       -1.625892   1.000000
  120       -1.496746   1.000000
  121       -1.453879   1.000000
  122       -1.225699   1.000000
  123       -1.035815   1.000000
  124       -0.968591   1.000000
  125       -0.870819   1.000000
  126       -0.795107   1.000000
  127       -0.765549   1.000000
  128       -0.495004   1.000000
  129       -0.486139   1.000000
  130       -0.428454   1.000000
  131       -0.252730   1.000000
  132       -0.205896   1.000000
  133       -0.151823   1.000000
  134       -0.063126   1.000000
  135        0.116886   1.000039
  136        0.172411   1.000741
  137        0.178736   1.000992
  138        0.228819   1.007166
  139        0.272567   1.023254
  140        0.304952   1.035134
  141        0.359878   0.967589
  142        0.429918   0.518967
  143        0.483599   0.122104
  144        0.548466  -0.034821
  145        0.560176  -0.035019
  146        0.603001  -0.018183
  147        0.626850  -0.009455
  148        0.698239  -0.000548
  149        0.735553  -0.000077
  150        0.779527  -0.000005
  151        0.990164  -0.000000
  152        1.025528  -0.000000
  153        1.085101  -0.000000
  154        1.113041  -0.000000
  155        1.138057  -0.000000
  156        1.214239  -0.000000
  157        1.275087  -0.000000
  158        1.275396  -0.000000
  159        1.314114  -0.000000
  160        1.339485  -0.000000
  161        1.372081  -0.000000
  162        1.413095  -0.000000
  163        1.465551  -0.000000
  164        1.532244  -0.000000
  165        1.535719  -0.000000
  166        1.650748  -0.000000
  167        1.660807  -0.000000
  168        1.675569  -0.000000
  169        1.679619  -0.000000
  170        1.692269  -0.000000
  171        1.730976  -0.000000
  172        1.745811  -0.000000
  173        1.752156  -0.000000
  174        1.814526  -0.000000
  175        1.865985  -0.000000
  176        1.906455  -0.000000
  177        1.966868  -0.000000
  178        1.981605  -0.000000
  179        2.009847  -0.000000
  180        2.059339  -0.000000
  181        2.073238  -0.000000
  182        2.142467  -0.000000
  183        2.258795  -0.000000
  184        2.327396  -0.000000

  0.2000000E+00  0.3742002E-15  0.1262379E-14  0.4444444E-01
    1      -13.929893   1.000000
    2      -13.224377   1.000000
    3      -12.707225   1.000000
    4      -12.338774   1.000000
    5      -12.047633   1.000000
    6      -11.794981   1.000000
    7      -11.642268   1.000000
    8      -11.348035   1.000000
    9      -11.283385   1.000000
   10      -11.210109   1.000000
   11      -11.171810   1.000000
   12      -11.130077   1.000000
   13      -10.969124   1.000000
   14      -10.802710   1.000000
   15      -10.601694   1.000000
   16      -10.588906   1.000000
   17      -10.536356   1.000000
   18       -9.900603   1.000000
   19       -9.791798   1.000000
   20       -9.735879   1.000000
   21       -9.547633   1.000000
   22       -9.525672   1.000000
   23       -9.488379   1.000000
   24       -9.408716   1.000000
   25       -9.104445   1.000000
   26       -8.896044   1.000000
   27       -8.544901   1.000000
   28       -8.382377   1.000000
   29       -8.256948   1.000000
   30       -8.221649   1.000000
   31       -8.164469   1.000000
   32       -8.137225   1.000000
   33       -7.654627   1.000000
   34       -7.566632   1.000000
   35       -7.458646   1.000000
   36       -7.303956   1.000000
   37       -7.261265   1.000000
   38       -7.197143   1.000000
   39       -7.149117   1.000000
   40       -6.879718   1.000000
   41       -6.801787   1.000000
   42       -6.759231   1.000000
   43       -6.718798   1.000000
   44       -6.675734   1.000000
   45       -6.526535   1.000000
   46       -6.454656   1.000000
   47       -6.244835   1.000000
   48       -6.231662   1.000000
   49       -6.131614   1.000000
   50       -6.088961   1.000000
   51       -5.888764   1.000000
   52       -5.869450   1.000000
   53       -5.816133   1.000000
   54       -5.669689   1.000000
   55       -5.624786   1.000000
   56       -5.564952   1.000000
   57       -5.532237   1.000000
   58       -5.455870   1.000000
   59       -5.409983   1.000000
   60       -5.310853   1.000000
   61       -5.258640   1.000000
   62       -5.221144   1.000000
   63       -5.084650   1.000000
   64       -4.883498   1.000000
   65       -4.867172   1.000000
   66       -4.807884   1.000000
   67       -4.724385   1.000000
   68       -4.704328   1.000000
   69       -4.625358   1.000000
   70       -4.469895   1.000000
   71       -4.388030   1.000000
   72       -4.377486   1.000000
   73       -4.285445   1.000000
   74       -4.255534   1.000000
   75       -4.223647   1.000000
   76       -4.208419   1.000000
   77       -4.156871   1.000000
   78       -4.137272   1.000000
   79       -3.998932   1.000000
   80       -3.996388   1.000000
   81       -3.977552   1.000000
   82       -3.961133   1.000000
   83       -3.937371   1.000000
   84       -3.865096   1.000000
   85       -3.852105   1.000000
   86       -3.715697   1.000000
   87       -3.665200   1.000000
   88       -3.643575   1.000000
   89       -3.634947   1.000000
   90       -3.581456   1.000000
   91       -3.540437   1.000000
   92       -3.522027   1.000000
   93       -3.472344   1.000000
   94       -3.218429   1.000000
   95       -3.191061   1.000000
   96       -3.148777   1.000000
   97       -3.076742   1.000000
   98       -2.972137   1.000000
   99       -2.866621   1.000000
  100       -2.800283   1.000000
  101       -2.787155   1.000000
  102       -2.729884   1.000000
  103       -2.535317   1.000000
  104       -2.421578   1.000000
  105       -2.328571   1.000000
  106       -2.316642   1.000000
  107       -2.258785   1.000000
  108       -2.244097   1.000000
  109       -2.182607   1.000000
  110       -2.072248   1.000000
  111       -2.016057   1.000000
  112       -1.990906   1.000000
  113       -1.949985   1.000000
  114       -1.809301   1.000000
  115       -1.793883   1.000000
  116       -1.785783   1.000000
  117       -1.740976   1.000000
  118       -1.683279   1.000000
  119       -1.510100   1.000000
  120       -1.438311   1.000000
  121       -1.411107   1.000000
  122       -1.209821   1.000000
  123       -1.143050   1.000000
  124       -0.981675   1.000000
  125       -0.903043   1.000000
  126       -0.900573   1.000000
  127       -0.836692   1.000000
  128       -0.585201   1.000000
  129       -0.565030   1.000000
  130       -0.493289   1.000000
  131       -0.446867   1.000000
  132       -0.306619   1.000000
  133       -0.232398   1.000000
  134       -0.153124   1.000000
  135       -0.009874   1.000000
  136        0.094129   1.000010
  137        0.184897   1.001307
  138        0.269522   1.021850
  139        0.319194   1.033878
  140        0.372023   0.920629
  141        0.459516   0.277824
  142        0.512744   0.008475
  143        0.540059  -0.031502
  144        0.587744  -0.025109
  145        0.606105  -0.016863
  146        0.634394  -0.007433
  147        0.650230  -0.004272
  148        0.668693  -0.002069
  149        0.729710  -0.000107
  150        0.796918  -0.000002
  151        1.037680  -0.000000
  152        1.084951  -0.000000
  153        1.116599  -0.000000
  154        1.200980  -0.000000
  155        1.219373  -0.000000
  156        1.233321  -0.000000
  157        1.237925  -0.000000
  158        1.255635  -0.000000
  159        1.356581  -0.000000
  160        1.386972  -0.000000
  161        1.434189  -0.000000
  162        1.458090  -0.000000
  163        1.501204  -0.000000
  164        1.543363  -0.000000
  165        1.576123  -0.000000
  166        1.617799  -0.000000
  167        1.641733  -0.000000
  168        1.672164  -0.000000
  169        1.675203  -0.000000
  170        1.708927  -0.000000
  171        1.756105  -0.000000
  172        1.796638  -0.000000
  173        1.834202  -0.000000
  174        1.850615  -0.000000
  175        1.874129  -0.000000
  176        1.917511  -0.000000
  177        1.967417  -0.000000
  178        1.973895  -0.000000
  179        2.015983  -0.000000
  180        2.057280  -0.000000
  181        2.090195  -0.000000
  182        2.131073  -0.000000
  183        2.144891  -0.000000
  184        2.199901  -0.000000

  0.4000000E+00  0.3742002E-15  0.1262379E-14  0.4444444E-01
    1      -13.785556   1.000000
    2      -13.548500   1.000000
    3      -12.573358   1.000000
    4      -12.352043   1.000000
    5      -11.799971   1.000000
    6      -11.763968   1.000000
    7      -11.711964   1.000000
    8      -11.277254   1.000000
    9      -11.269199   1.000000
   10      -11.213223   1.000000
   11      -11.099953   1.000000
   12      -11.053676   1.000000
   13      -10.949677   1.000000
   14      -10.873200   1.000000
   15      -10.831783   1.000000
   16      -10.686393   1.000000
   17      -10.671809   1.000000
   18      -10.119114   1.000000
   19       -9.798480   1.000000
   20       -9.758105   1.000000
   21       -9.527020   1.000000
   22       -9.515381   1.000000
   23       -9.370080   1.000000
   24       -9.312875   1.000000
   25       -9.088735   1.000000
   26       -8.840321   1.000000
   27       -8.424851   1.000000
   28       -8.282336   1.000000
   29       -8.041793   1.000000
   30       -8.026608   1.000000
   31       -7.948961   1.000000
   32       -7.923896   1.000000
   33       -7.885119   1.000000
   34       -7.773635   1.000000
   35       -7.664904   1.000000
   36       -7.638922   1.000000
   37       -7.479706   1.000000
   38       -7.432167   1.000000
   39       -7.231203   1.000000
   40       -6.967010   1.000000
   41       -6.843033   1.000000
   42       -6.718675   1.000000
   43       -6.613433   1.000000
   44       -6.587653   1.000000
   45       -6.370843   1.000000
   46       -6.351706   1.000000
   47       -6.255173   1.000000
   48       -6.145436   1.000000
   49       -6.070233   1.000000
   50       -6.010259   1.000000
   51       -5.971951   1.000000
   52       -5.906461   1.000000
   53       -5.771633   1.000000
   54       -5.749821   1.000000
   55       -5.615577   1.000000
   56       -5.551613   1.000000
   57       -5.472731   1.000000
   58       -5.402219   1.000000
   59       -5.334252   1.000000
   60       -5.299207   1.000000
   61       -5.217292   1.000000
   62       -5.128117   1.000000
   63       -4.972705   1.000000
   64       -4.939687   1.000000
   65       -4.924632   1.000000
   66       -4.817461   1.000000
   67       -4.773827   1.000000
   68       -4.735326   1.000000
   69       -4.592783   1.000000
   70       -4.558223   1.000000
   71       -4.429033   1.000000
   72       -4.364505   1.000000
   73       -4.343379   1.000000
   74       -4.279960   1.000000
   75       -4.205972   1.000000
   76       -4.182779   1.000000
   77       -4.165757   1.000000
   78       -4.139316   1.000000
   79       -4.009171   1.000000
   80       -4.000811   1.000000
   81       -3.981041   1.000000
   82       -3.918614   1.000000
   83       -3.905703   1.000000
   84       -3.885851   1.000000
   85       -3.782799   1.000000
   86       -3.688207   1.000000
   87       -3.673218   1.000000
   88       -3.654904   1.000000
   89       -3.637236   1.000000
   90       -3.616601   1.000000
   91       -3.472620   1.000000
   92       -3.437678   1.000000
   93       -3.373906   1.000000
   94       -3.322598   1.000000
   95       -3.313845   1.000000
   96       -3.228152   1.000000
   97       -3.220896   1.000000
   98       -3.147404   1.000000
   99       -3.008375   1.000000
  100       -2.916051   1.000000
  101       -2.823766   1.000000
  102       -2.597997   1.000000
  103       -2.509807   1.000000
  104       -2.442425   1.000000
  105       -2.324651   1.000000
  106       -2.295886   1.000000
  107       -2.105992   1.000000
  108       -2.098612   1.000000
  109       -2.028719   1.000000
  110       -1.937726   1.000000
  111       -1.915917   1.000000
  112       -1.893856   1.000000
  113       -1.855604   1.000000
  114       -1.823424   1.000000
  115       -1.818363   1.000000
  116       -1.789124   1.000000
  117       -1.641335   1.000000
  118       -1.526927   1.000000
  119       -1.424942   1.000000
  120       -1.348973   1.000000
  121       -1.326349   1.000000
  122       -1.249972   1.000000
  123       -1.169790   1.000000
  124       -1.122734   1.000000
  125       -1.046369   1.000000
  126       -0.971716   1.000000
  127       -0.937840   1.000000
  128       -0.900742   1.000000
  129       -0.876913   1.000000
  130       -0.692028   1.000000
  131       -0.504993   1.000000
  132       -0.492545   1.000000
  133       -0.261774   1.000000
  134       -0.218146   1.000000
  135       -0.036368   1.000000
  136        0.167213   1.000579
  137        0.195896   1.002092
  138        0.247529   1.012716
  139        0.263217   1.019010
  140        0.322921   1.032249
  141        0.417185   0.625170
  142        0.479303   0.145999
  143        0.536639  -0.029173
  144        0.643936  -0.005365
  145        0.651525  -0.004071
  146        0.677447  -0.001426
  147        0.730532  -0.000102
  148        0.843046  -0.000000
  149        0.885782  -0.000000
  150        0.895205  -0.000000
  151        0.977125  -0.000000
  152        1.125345  -0.000000
  153        1.147929  -0.000000
  154        1.221737  -0.000000
  155        1.276997  -0.000000
  156        1.316928  -0.000000
  157        1.354643  -0.000000
  158        1.421585  -0.000000
  159        1.431410  -0.000000
  160        1.464512  -0.000000
  161        1.481017  -0.000000
  162        1.499413  -0.000000
  163        1.554227  -0.000000
  164        1.578009  -0.000000
  165        1.599671  -0.000000
  166        1.615233  -0.000000
  167        1.647887  -0.000000
  168        1.674986  -0.000000
  169        1.717683  -0.000000
  170        1.752062  -0.000000
  171        1.759472  -0.000000
  172        1.767830  -0.000000
  173        1.839838  -0.000000
  174        1.880208  -0.000000
  175        1.899906  -0.000000
  176        1.919880  -0.000000
  177        1.957514  -0.000000
  178        1.982477  -0.000000
  179        1.992209  -0.000000
  180        2.007215  -0.000000
  181        2.043794  -0.000000
  182        2.125531  -0.000000
  183        2.200266  -0.000000
  184        2.246539  -0.000000

  0.3742002E-15  0.1111111E+00  0.1262379E-14  0.4444444E-01
    1      -13.931493   1.000000
    2      -12.811824   1.000000
    3      -12.751005   1.000000
    4      -12.712151   1.000000
    5      -11.911201   1.000000
    6      -11.656703   1.000000
    7      -11.629479   1.000000
    8      -11.613554   1.000000
    9      -11.455173   1.000000
   10      -11.328780   1.000000
   11      -11.184419   1.000000
   12      -11.102275   1.000000
   13      -11.054718   1.000000
   14      -10.710088   1.000000
   15      -10.495559   1.000000
   16      -10.291600   1.000000
   17      -10.165155   1.000000
   18      -10.118615   1.000000
   19       -9.822466   1.000000
   20       -9.784707   1.000000
   21       -9.700462   1.000000
   22       -9.558258   1.000000
   23       -9.513707   1.000000
   24       -9.348458   1.000000
   25       -8.943211   1.000000
   26       -8.870654   1.000000
   27       -8.693148   1.000000
   28       -8.557238   1.000000
   29       -8.499699   1.000000
   30       -8.335796   1.000000
   31       -8.040436   1.000000
   32       -7.911730   1.000000
   33       -7.838316   1.000000
   34       -7.482271   1.000000
   35       -7.384953   1.000000
   36       -7.304334   1.000000
   37       -7.230645   1.000000
   38       -7.105549   1.000000
   39       -6.954915   1.000000
   40       -6.828176   1.000000
   41       -6.741352   1.000000
   42       -6.704814   1.000000
   43       -6.680182   1.000000
   44       -6.649011   1.000000
   45       -6.590352   1.000000
   46       -6.464963   1.000000
   47       -6.448628   1.000000
   48       -6.209400   1.000000
   49       -6.199434   1.000000
   50       -6.059232   1.000000
   51       -5.930053   1.000000
   52       -5.880117   1.000000
   53       -5.832579   1.000000
   54       -5.714442   1.000000
   55       -5.676561   1.000000
   56       -5.622823   1.000000
   57       -5.539987   1.000000
   58       -5.418485   1.000000
   59       -5.350884   1.000000
   60       -5.259327   1.000000
   61       -5.233216   1.000000
   62       -5.190362   1.000000
   63       -5.003823   1.000000
   64       -4.869201   1.000000
   65       -4.831906   1.000000
   66       -4.704484   1.000000
   67       -4.693537   1.000000
   68       -4.647772   1.000000
   69       -4.613447   1.000000
   70       -4.481265   1.000000
   71       -4.438475   1.000000
   72       -4.409881   1.000000
   73       -4.386256   1.000000
   74       -4.317498   1.000000
   75       -4.240425   1.000000
   76       -4.204851   1.000000
   77       -4.159873   1.000000
   78       -4.113138   1.000000
   79       -4.095064   1.000000
   80       -4.088921   1.000000
   81       -4.051381   1.000000
   82       -4.022756   1.000000
   83       -3.996925   1.000000
   84       -3.863056   1.000000
   85       -3.802416   1.000000
   86       -3.754688   1.000000
   87       -3.729290   1.000000
   88       -3.679763   1.000000
   89       -3.632321   1.000000
   90       -3.589830   1.000000
   91       -3.555986   1.000000
   92       -3.531233   1.000000
   93       -3.454366   1.000000
   94       -3.298903   1.000000
   95       -3.049513   1.000000
   96       -2.988323   1.000000
   97       -2.961161   1.000000
   98       -2.834468   1.000000
   99       -2.812371   1.000000
  100       -2.781179   1.000000
  101       -2.757254   1.000000
  102       -2.679729   1.000000
  103       -2.603222   1.000000
  104       -2.561944   1.000000
  105       -2.440828   1.000000
  106       -2.369265   1.000000
  107       -2.312694   1.000000
  108       -2.270438   1.000000
  109       -2.251863   1.000000
  110       -2.170476   1.000000
  111       -2.094915   1.000000
  112       -2.090063   1.000000
  113       -1.970836   1.000000
  114       -1.908035   1.000000
  115       -1.888379   1.000000
  116       -1.794312   1.000000
  117       -1.636401   1.000000
  118       -1.608791   1.000000
  119       -1.584859   1.000000
  120       -1.438901   1.000000
  121       -1.434440   1.000000
  122       -1.111559   1.000000
  123       -1.044412   1.000000
  124       -0.998839   1.000000
  125       -0.906553   1.000000
  126       -0.829232   1.000000
  127       -0.736791   1.000000
  128       -0.694084   1.000000
  129       -0.538040   1.000000
  130       -0.394956   1.000000
  131       -0.312652   1.000000
  132       -0.269776   1.000000
  133       -0.069533   1.000000
  134       -0.021069   1.000000
  135        0.024246   1.000000
  136        0.098184   1.000012
  137        0.169912   1.000658
  138        0.194864   1.002004
  139        0.217268   1.004799
  140        0.262105   1.018523
  141        0.348683   0.998416
  142        0.382706   0.867088
  143        0.522622  -0.012188
  144        0.535626  -0.028360
  145        0.541951  -0.032531
  146        0.643658  -0.005418
  147        0.708251  -0.000334
  148        0.741696  -0.000054
  149        0.886072  -0.000000
  150        0.945238  -0.000000
  151        1.019652  -0.000000
  152        1.036078  -0.000000
  153        1.072318  -0.000000
  154        1.131513  -0.000000
  155        1.198279  -0.000000
  156        1.204344  -0.000000
  157        1.222351  -0.000000
  158        1.275734  -0.000000
  159        1.388765  -0.000000
  160        1.404722  -0.000000
  161        1.408074  -0.000000
  162        1.412093  -0.000000
  163        1.433290  -0.000000
  164        1.458936  -0.000000
  165        1.540695  -0.000000
  166        1.597224  -0.000000
  167        1.634648  -0.000000
  168        1.671921  -0.000000
  169        1.695591  -0.000000
  170        1.726009  -0.000000
  171        1.732820  -0.000000
  172        1.761812  -0.000000
  173        1.785798  -0.000000
  174        1.827287  -0.000000
  175        1.856523  -0.000000
  176        1.863932  -0.000000
  177        1.884003  -0.000000
  178        1.929196  -0.000000
  179        1.959815  -0.000000
  180        1.966554  -0.000000
  181        2.032706  -0.000000
  182        2.082815  -0.000000
  183        2.171747  -0.000000
  184        2.201000  -0.000000

  0.2000000E+00  0.1111111E+00  0.1262379E-14  0.4444444E-01
    1      -13.883394   1.000000
    2      -13.184007   1.000000
    3      -12.667962   1.000000
    4      -12.307326   1.000000
    5      -12.017066   1.000000
    6      -11.893971   1.000000
    7      -11.696322   1.000000
    8      -11.369727   1.000000
    9      -11.322543   1.000000
   10      -11.190676   1.000000
   11      -11.163936   1.000000
   12      -11.129831   1.000000
   13      -10.967588   1.000000
   14      -10.781928   1.000000
   15      -10.583605   1.000000
   16      -10.571911   1.000000
   17      -10.537750   1.000000
   18       -9.897204   1.000000
   19       -9.780938   1.000000
   20       -9.736704   1.000000
   21       -9.555352   1.000000
   22       -9.545371   1.000000
   23       -9.484269   1.000000
   24       -9.411707   1.000000
   25       -9.105018   1.000000
   26       -8.897631   1.000000
   27       -8.545345   1.000000
   28       -8.382603   1.000000
   29       -8.268172   1.000000
   30       -8.230051   1.000000
   31       -8.176313   1.000000
   32       -7.973084   1.000000
   33       -7.743235   1.000000
   34       -7.638927   1.000000
   35       -7.500519   1.000000
   36       -7.348453   1.000000
   37       -7.238658   1.000000
   38       -7.141752   1.000000
   39       -7.114383   1.000000
   40       -6.874621   1.000000
   41       -6.830233   1.000000
   42       -6.751665   1.000000
   43       -6.692112   1.000000
   44       -6.651606   1.000000
   45       -6.640037   1.000000
   46       -6.531367   1.000000
   47       -6.283952   1.000000
   48       -6.174312   1.000000
   49       -6.037804   1.000000
   50       -6.000980   1.000000
   51       -5.895480   1.000000
   52       -5.849797   1.000000
   53       -5.813815   1.000000
   54       -5.697329   1.000000
   55       -5.629949   1.000000
   56       -5.548053   1.000000
   57       -5.463060   1.000000
   58       -5.456249   1.000000
   59       -5.343331   1.000000
   60       -5.259388   1.000000
   61       -5.233373   1.000000
   62       -5.207917   1.000000
   63       -5.092575   1.000000
   64       -4.899441   1.000000
   65       -4.842462   1.000000
   66       -4.771683   1.000000
   67       -4.698116   1.000000
   68       -4.629426   1.000000
   69       -4.607504   1.000000
   70       -4.480257   1.000000
   71       -4.411975   1.000000
   72       -4.399205   1.000000
   73       -4.312278   1.000000
   74       -4.278260   1.000000
   75       -4.231342   1.000000
   76       -4.197189   1.000000
   77       -4.180184   1.000000
   78       -4.171061   1.000000
   79       -4.135497   1.000000
   80       -4.082250   1.000000
   81       -4.056053   1.000000
   82       -4.026136   1.000000
   83       -3.907023   1.000000
   84       -3.868604   1.000000
   85       -3.822800   1.000000
   86       -3.756445   1.000000
   87       -3.695910   1.000000
   88       -3.668624   1.000000
   89       -3.652305   1.000000
   90       -3.617023   1.000000
   91       -3.568593   1.000000
   92       -3.520535   1.000000
   93       -3.435655   1.000000
   94       -3.253301   1.000000
   95       -3.151206   1.000000
   96       -3.072233   1.000000
   97       -3.001791   1.000000
   98       -2.978134   1.000000
   99       -2.883424   1.000000
  100       -2.828518   1.000000
  101       -2.804563   1.000000
  102       -2.715261   1.000000
  103       -2.559723   1.000000
  104       -2.446481   1.000000
  105       -2.423566   1.000000
  106       -2.334408   1.000000
  107       -2.304098   1.000000
  108       -2.200228   1.000000
  109       -2.126776   1.000000
  110       -2.104787   1.000000
  111       -2.062740   1.000000
  112       -2.002106   1.000000
  113       -1.935138   1.000000
  114       -1.884616   1.000000
  115       -1.854501   1.000000
  116       -1.798643   1.000000
  117       -1.741135   1.000000
  118       -1.667527   1.000000
  119       -1.450496   1.000000
  120       -1.427991   1.000000
  121       -1.370901   1.000000
  122       -1.149361   1.000000
  123       -1.086904   1.000000
  124       -1.032344   1.000000
  125       -0.991498   1.000000
  126       -0.929939   1.000000
  127       -0.811855   1.000000
  128       -0.738257   1.000000
  129       -0.569209   1.000000
  130       -0.478291   1.000000
  131       -0.334179   1.000000
  132       -0.240407   1.000000
  133       -0.118207   1.000000
  134       -0.062804   1.000000
  135       -0.026159   1.000000
  136        0.005994   1.000000
  137        0.090494   1.000008
  138        0.151350   1.000262
  139        0.213422   1.004167
  140        0.397736   0.773068
  141        0.416718   0.628970
  142        0.434155   0.483126
  143        0.470821   0.198357
  144        0.566583  -0.033598
  145        0.590653  -0.023763
  146        0.649270  -0.004426
  147        0.782240  -0.000004
  148        0.806131  -0.000001
  149        0.823000  -0.000000
  150        0.916204  -0.000000
  151        0.994587  -0.000000
  152        1.079060  -0.000000
  153        1.153971  -0.000000
  154        1.192208  -0.000000
  155        1.230929  -0.000000
  156        1.278026  -0.000000
  157        1.291356  -0.000000