 running on   72 total cores
 distrk:  each k-point on   72 cores,    1 groups
 distr:  one band on    9 cores,    8 groups
 using from now: INCAR     
 vasp.5.4.4.18Apr17-6-g9f103f2a35 (build Dec  7 2020 12:43:57) complex           
 POSCAR found type information on POSCAR  Mo V  B  H 
 POSCAR found :  4 types and      74 ions
 scaLAPACK will be used
 LDA part: xc-table for Pade appr. of Perdew
 POSCAR, INCAR and KPOINTS ok, starting setup
 resort distribution
 resort distribution
 resort distribution
 resort distribution
 resort distribution
 resort distribution
 resort distribution
 resort distribution
 resort distribution
 resort distribution
 resort distribution
 resort distribution
 resort distribution
 resort distribution
 resort distribution
 resort distribution
 resort distribution
 resort distribution
 resort distribution
 resort distribution
 resort distribution
 resort distribution
 resort distribution
 resort distribution
 resort distribution
 resort distribution
 resort distribution
 resort distribution
 resort distribution
 resort distribution
 resort distribution
 resort distribution
 resort distribution
 resort distribution
 resort distribution
 resort distribution
 resort distribution
 resort distribution
 resort distribution
 resort distribution
 resort distribution
 resort distribution
 resort distribution
 resort distribution
 resort distribution
 resort distribution
 resort distribution
 resort distribution
 resort distribution
 resort distribution
 resort distribution
 resort distribution
 resort distribution
 resort distribution
 resort distribution
 resort distribution
 resort distribution
 resort distribution
 resort distribution
 resort distribution
 resort distribution
 resort distribution
 resort distribution
 resort distribution
 resort distribution
 resort distribution
 resort distribution
 resort distribution
 resort distribution
 resort distribution
 resort distribution
 resort distribution
 FFT: planning ...
 WAVECAR not read
 augmentation electrons   284.03098547302261     
 soft         electrons   0.0000000000000000     
 augmentation electrons   284.03098547302261     
 soft         electrons   0.0000000000000000     
 augmentation electrons   284.03098547302261     
 soft         electrons   0.0000000000000000     
 augmentation electrons   284.03098547302261     
 soft         electrons   0.0000000000000000     
 augmentation electrons   284.03098547302261     
 soft         electrons   0.0000000000000000     
 augmentation electrons   284.03098547302261     
 soft         electrons   0.0000000000000000     
 augmentation electrons   284.03098547302261     
 soft         electrons   0.0000000000000000     
 augmentation electrons   284.03098547302261     
 soft         electrons   0.0000000000000000     
 augmentation electrons   284.03098547302261     
 soft         electrons   0.0000000000000000     
 augmentation electrons   284.03098547302261     
 soft         electrons   0.0000000000000000     
 augmentation electrons   284.03098547302261     
 soft         electrons   0.0000000000000000     
 augmentation electrons   284.03098547302261     
 soft         electrons   0.0000000000000000     
 augmentation electrons   284.03098547302261     
 soft         electrons   0.0000000000000000     
 augmentation electrons   284.03098547302261     
 soft         electrons   0.0000000000000000     
 augmentation electrons   284.03098547302261     
 soft         electrons   0.0000000000000000     
 augmentation electrons   284.03098547302261     
 soft         electrons   0.0000000000000000     
 augmentation electrons   284.03098547302261     
 soft         electrons   0.0000000000000000     
 augmentation electrons   284.03098547302261     
 soft         electrons   0.0000000000000000     
 augmentation electrons   284.03098547302261     
 soft         electrons   0.0000000000000000     
 augmentation electrons   284.03098547302261     
 soft         electrons   0.0000000000000000     
 augmentation electrons   284.03098547302261     
 soft         electrons   0.0000000000000000     
 augmentation electrons   284.03098547302261     
 soft         electrons   0.0000000000000000     
 augmentation electrons   284.03098547302261     
 soft         electrons   0.0000000000000000     
 augmentation electrons   284.03098547302261     
 soft         electrons   0.0000000000000000     
 augmentation electrons   284.03098547302261     
 soft         electrons   0.0000000000000000     
 augmentation electrons   284.03098547302261     
 soft         electrons   0.0000000000000000     
 augmentation electrons   284.03098547302261     
 soft         electrons   0.0000000000000000     
 augmentation electrons   284.03098547302261     
 soft         electrons   0.0000000000000000     
 augmentation electrons   284.03098547302261     
 soft         electrons   0.0000000000000000     
 augmentation electrons   284.03098547302261     
 soft         electrons   0.0000000000000000     
 augmentation electrons   284.03098547302261     
 soft         electrons   0.0000000000000000     
 augmentation electrons   284.03098547302261     
 soft         electrons   0.0000000000000000     
 augmentation electrons   284.03098547302261     
 soft         electrons   0.0000000000000000     
 augmentation electrons   284.03098547302261     
 soft         electrons   0.0000000000000000     
 augmentation electrons   284.03098547302261     
 soft         electrons   0.0000000000000000     
 augmentation electrons   284.03098547302261     
 soft         electrons   0.0000000000000000     
 augmentation electrons   284.03098547302261     
 soft         electrons   0.0000000000000000     
 augmentation electrons   284.03098547302261     
 soft         electrons   0.0000000000000000     
 augmentation electrons   284.03098547302261     
 soft         electrons   0.0000000000000000     
 augmentation electrons   284.03098547302261     
 soft         electrons   0.0000000000000000     
 augmentation electrons   284.03098547302261     
 soft         electrons   0.0000000000000000     
 augmentation electrons   284.03098547302261     
 soft         electrons   0.0000000000000000     
 augmentation electrons   284.03098547302261     
 soft         electrons   0.0000000000000000     
 augmentation electrons   284.03098547302261     
 soft         electrons   0.0000000000000000     
 augmentation electrons   284.03098547302261     
 soft         electrons   0.0000000000000000     
 augmentation electrons   284.03098547302261     
 soft         electrons   0.0000000000000000     
 augmentation electrons   284.03098547302261     
 soft         electrons   0.0000000000000000     
 augmentation electrons   284.03098547302261     
 soft         electrons   0.0000000000000000     
 augmentation electrons   284.03098547302261     
 soft         electrons   0.0000000000000000     
 augmentation electrons   284.03098547302261     
 soft         electrons   0.0000000000000000     
 augmentation electrons   284.03098547302261     
 soft         electrons   0.0000000000000000     
 augmentation electrons   284.03098547302261     
 soft         electrons   0.0000000000000000     
 augmentation electrons   284.03098547302261     
 soft         electrons   0.0000000000000000     
 augmentation electrons   284.03098547302261     
 soft         electrons   0.0000000000000000     
 augmentation electrons   284.03098547302261     
 soft         electrons   0.0000000000000000     
 augmentation electrons   284.03098547302261     
 soft         electrons   0.0000000000000000     
 augmentation electrons   284.03098547302261     
 soft         electrons   0.0000000000000000     
 augmentation electrons   284.03098547302261     
 soft         electrons   0.0000000000000000     
 augmentation electrons   284.03098547302261     
 soft         electrons   0.0000000000000000     
 augmentation electrons   284.03098547302261     
 soft         electrons   0.0000000000000000     
 augmentation electrons   284.03098547302261     
 soft         electrons   0.0000000000000000     
 augmentation electrons   284.03098547302261     
 soft         electrons   0.0000000000000000     
 augmentation electrons   284.03098547302261     
 soft         electrons   0.0000000000000000     
 augmentation electrons   284.03098547302261     
 soft         electrons   0.0000000000000000     
 augmentation electrons   284.03098547302261     
 soft         electrons   0.0000000000000000     
 augmentation electrons   284.03098547302261     
 soft         electrons   0.0000000000000000     
 augmentation electrons   284.03098547302261     
 soft         electrons   0.0000000000000000     
 augmentation electrons   284.03098547302261     
 soft         electrons   0.0000000000000000     
 augmentation electrons   284.03098547302261     
 soft         electrons   0.0000000000000000     
 augmentation electrons   284.03098547302261     
 soft         electrons   0.0000000000000000     
 augmentation electrons   284.03098547302261     
 soft         electrons   0.0000000000000000     
 augmentation electrons   284.03098547302261     
 soft         electrons   0.0000000000000000     
 total        electrons   284.03098547302261     
 total        electrons   284.03098547302261     
 total        electrons   284.03098547302261     
 total        electrons   284.03098547302261     
 total        electrons   284.03098547302261     
 total        electrons   284.03098547302261     
 total        electrons   284.03098547302261     
 total        electrons   284.03098547302261     
 total        electrons   284.03098547302261     
 total        electrons   284.03098547302261     
 total        electrons   284.03098547302261     
 total        electrons   284.03098547302261     
 total        electrons   284.03098547302261     
 total        electrons   284.03098547302261     
 total        electrons   284.03098547302261     
 total        electrons   284.03098547302261     
 total        electrons   284.03098547302261     
 total        electrons   284.03098547302261     
 total        electrons   284.03098547302261     
 total        electrons   284.03098547302261     
 total        electrons   284.03098547302261     
 total        electrons   284.03098547302261     
 total        electrons   284.03098547302261     
 total        electrons   284.03098547302261     
 total        electrons   284.03098547302261     
 total        electrons   284.03098547302261     
 total        electrons   284.03098547302261     
 total        electrons   284.03098547302261     
 total        electrons   284.03098547302261     
 total        electrons   284.03098547302261     
 total        electrons   284.03098547302261     
 total        electrons   284.03098547302261     
 total        electrons   284.03098547302261     
 total        electrons   284.03098547302261     
 total        electrons   284.03098547302261     
 total        electrons   284.03098547302261     
 total        electrons   284.03098547302261     
 total        electrons   284.03098547302261     
 total        electrons   284.03098547302261     
 total        electrons   284.03098547302261     
 total        electrons   284.03098547302261     
 total        electrons   284.03098547302261     
 total        electrons   284.03098547302261     
 total        electrons   284.03098547302261     
 total        electrons   284.03098547302261     
 total        electrons   284.03098547302261     
 total        electrons   284.03098547302261     
 total        electrons   284.03098547302261     
 total        electrons   284.03098547302261     
 total        electrons   284.03098547302261     
 total        electrons   284.03098547302261     
 total        electrons   284.03098547302261     
 total        electrons   284.03098547302261     
 total        electrons   284.03098547302261     
 total        electrons   284.03098547302261     
 total        electrons   284.03098547302261     
 total        electrons   284.03098547302261     
 total        electrons   284.03098547302261     
 total        electrons   284.03098547302261     
 total        electrons   284.03098547302261     
 total        electrons   284.03098547302261     
 total        electrons   284.03098547302261     
 total        electrons   284.03098547302261     
 total        electrons   284.03098547302261     
 total        electrons   284.03098547302261     
 total        electrons   284.03098547302261     
 total        electrons   284.03098547302261     
 total        electrons   284.03098547302261     
 total        electrons   284.03098547302261     
 total        electrons   284.03098547302261     
 total        electrons   284.03098547302261     
 total        electrons   284.03098547302261     
 augmentation electrons   997.07737191289675     
 soft         electrons   0.0000000000000000     
 total        electrons   997.07737191289675     
 augmentation electrons   997.07737191289675     
 soft         electrons   0.0000000000000000     
 augmentation electrons   997.07737191289675     
 soft         electrons   0.0000000000000000     
 total        electrons   997.07737191289675     
 augmentation electrons   997.07737191289675     
 soft         electrons   0.0000000000000000     
 total        electrons   997.07737191289675     
 augmentation electrons   997.07737191289675     
 soft         electrons   0.0000000000000000     
 total        electrons   997.07737191289675     
 augmentation electrons   997.07737191289675     
 soft         electrons   0.0000000000000000     
 total        electrons   997.07737191289675     
 augmentation electrons   997.07737191289675     
 soft         electrons   0.0000000000000000     
 total        electrons   997.07737191289675     
 augmentation electrons   997.07737191289675     
 soft         electrons   0.0000000000000000     
 total        electrons   997.07737191289675     
 augmentation electrons   997.07737191289675     
 soft         electrons   0.0000000000000000     
 total        electrons   997.07737191289675     
 augmentation electrons   997.07737191289675     
 soft         electrons   0.0000000000000000     
 total        electrons   997.07737191289675     
 augmentation electrons   997.07737191289675     
 soft         electrons   0.0000000000000000     
 total        electrons   997.07737191289675     
 augmentation electrons   997.07737191289675     
 soft         electrons   0.0000000000000000     
 total        electrons   997.07737191289675     
 augmentation electrons   997.07737191289675     
 soft         electrons   0.0000000000000000     
 total        electrons   997.07737191289675     
 augmentation electrons   997.07737191289675     
 soft         electrons   0.0000000000000000     
 total        electrons   997.07737191289675     
 augmentation electrons   997.07737191289675     
 soft         electrons   0.0000000000000000     
 total        electrons   997.07737191289675     
 augmentation electrons   997.07737191289675     
 soft         electrons   0.0000000000000000     
 total        electrons   997.07737191289675     
 augmentation electrons   997.07737191289675     
 soft         electrons   0.0000000000000000     
 total        electrons   997.07737191289675     
 augmentation electrons   997.07737191289675     
 soft         electrons   0.0000000000000000     
 total        electrons   997.07737191289675     
 augmentation electrons   997.07737191289675     
 soft         electrons   0.0000000000000000     
 total        electrons   997.07737191289675     
 augmentation electrons   997.07737191289675     
 soft         electrons   0.0000000000000000     
 total        electrons   997.07737191289675     
 augmentation electrons   997.07737191289675     
 soft         electrons   0.0000000000000000     
 total        electrons   997.07737191289675     
 augmentation electrons   997.07737191289675     
 soft         electrons   0.0000000000000000     
 total        electrons   997.07737191289675     
 augmentation electrons   997.07737191289675     
 soft         electrons   0.0000000000000000     
 total        electrons   997.07737191289675     
 augmentation electrons   997.07737191289675     
 soft         electrons   0.0000000000000000     
 total        electrons   997.07737191289675     
 augmentation electrons   997.07737191289675     
 soft         electrons   0.0000000000000000     
 total        electrons   997.07737191289675     
 augmentation electrons   997.07737191289675     
 soft         electrons   0.0000000000000000     
 total        electrons   997.07737191289675     
 augmentation electrons   997.07737191289675     
 soft         electrons   0.0000000000000000     
 total        electrons   997.07737191289675     
 augmentation electrons   997.07737191289675     
 soft         electrons   0.0000000000000000     
 total        electrons   997.07737191289675     
 augmentation electrons   997.07737191289675     
 soft         electrons   0.0000000000000000     
 total        electrons   997.07737191289675     
 augmentation electrons   997.07737191289675     
 soft         electrons   0.0000000000000000     
 total        electrons   997.07737191289675     
 augmentation electrons   997.07737191289675     
 soft         electrons   0.0000000000000000     
 total        electrons   997.07737191289675     
 augmentation electrons   997.07737191289675     
 soft         electrons   0.0000000000000000     
 total        electrons   997.07737191289675     
 augmentation electrons   997.07737191289675     
 soft         electrons   0.0000000000000000     
 total        electrons   997.07737191289675     
 augmentation electrons   997.07737191289675     
 soft         electrons   0.0000000000000000     
 total        electrons   997.07737191289675     
 augmentation electrons   997.07737191289675     
 soft         electrons   0.0000000000000000     
 total        electrons   997.07737191289675     
 augmentation electrons   997.07737191289675     
 soft         electrons   0.0000000000000000     
 total        electrons   997.07737191289675     
 augmentation electrons   997.07737191289675     
 soft         electrons   0.0000000000000000     
 total        electrons   997.07737191289675     
 augmentation electrons   997.07737191289675     
 soft         electrons   0.0000000000000000     
 total        electrons   997.07737191289675     
 augmentation electrons   997.07737191289675     
 soft         electrons   0.0000000000000000     
 total        electrons   997.07737191289675     
 augmentation electrons   997.07737191289675     
 soft         electrons   0.0000000000000000     
 total        electrons   997.07737191289675     
 augmentation electrons   997.07737191289675     
 soft         electrons   0.0000000000000000     
 total        electrons   997.07737191289675     
 augmentation electrons   997.07737191289675     
 soft         electrons   0.0000000000000000     
 total        electrons   997.07737191289675     
 augmentation electrons   997.07737191289675     
 soft         electrons   0.0000000000000000     
 total        electrons   997.07737191289675     
 augmentation electrons   997.07737191289675     
 soft         electrons   0.0000000000000000     
 total        electrons   997.07737191289675     
 augmentation electrons   997.07737191289675     
 soft         electrons   0.0000000000000000     
 total        electrons   997.07737191289675     
 augmentation electrons   997.07737191289675     
 soft         electrons   0.0000000000000000     
 total        electrons   997.07737191289675     
 augmentation electrons   997.07737191289675     
 soft         electrons   0.0000000000000000     
 total        electrons   997.07737191289675     
 augmentation electrons   997.07737191289675     
 soft         electrons   0.0000000000000000     
 total        electrons   997.07737191289675     
 augmentation electrons   997.07737191289675     
 soft         electrons   0.0000000000000000     
 total        electrons   997.07737191289675     
 augmentation electrons   997.07737191289675     
 soft         electrons   0.0000000000000000     
 total        electrons   997.07737191289675     
 augmentation electrons   997.07737191289675     
 soft         electrons   0.0000000000000000     
 total        electrons   997.07737191289675     
 augmentation electrons   997.07737191289675     
 soft         electrons   0.0000000000000000     
 total        electrons   997.07737191289675     
 augmentation electrons   997.07737191289675     
 soft         electrons   0.0000000000000000     
 total        electrons   997.07737191289675     
 augmentation electrons   997.07737191289675     
 soft         electrons   0.0000000000000000     
 total        electrons   997.07737191289675     
 augmentation electrons   997.07737191289675     
 soft         electrons   0.0000000000000000     
 total        electrons   997.07737191289675     
 augmentation electrons   997.07737191289675     
 soft         electrons   0.0000000000000000     
 total        electrons   997.07737191289675     
 augmentation electrons   997.07737191289675     
 soft         electrons   0.0000000000000000     
 total        electrons   997.07737191289675     
 augmentation electrons   997.07737191289675     
 soft         electrons   0.0000000000000000     
 total        electrons   997.07737191289675     
 augmentation electrons   997.07737191289675     
 soft         electrons   0.0000000000000000     
 total        electrons   997.07737191289675     
 augmentation electrons   997.07737191289675     
 soft         electrons   0.0000000000000000     
 total        electrons   997.07737191289675     
 augmentation electrons   997.07737191289675     
 soft         electrons   0.0000000000000000     
 total        electrons   997.07737191289675     
 augmentation electrons   997.07737191289675     
 soft         electrons   0.0000000000000000     
 augmentation electrons   997.07737191289675     
 soft         electrons   0.0000000000000000     
 total        electrons   997.07737191289675     
 augmentation electrons   997.07737191289675     
 soft         electrons   0.0000000000000000     
 total        electrons   997.07737191289675     
 augmentation electrons   997.07737191289675     
 soft         electrons   0.0000000000000000     
 total        electrons   997.07737191289675     
 augmentation electrons   997.07737191289675     
 soft         electrons   0.0000000000000000     
 total        electrons   997.07737191289675     
 augmentation electrons   997.07737191289675     
 soft         electrons   0.0000000000000000     
 total        electrons   997.07737191289675     
 augmentation electrons   997.07737191289675     
 soft         electrons   0.0000000000000000     
 total        electrons   997.07737191289675     
 augmentation electrons   997.07737191289675     
 soft         electrons   0.0000000000000000     
 total        electrons   997.07737191289675     
 augmentation electrons   997.07737191289675     
 soft         electrons   0.0000000000000000     
 total        electrons   997.07737191289675     
 augmentation electrons   997.07737191289675     
 soft         electrons   0.0000000000000000     
 total        electrons   997.07737191289675     
 augmentation electrons   997.07737191289675     
 soft         electrons   0.0000000000000000     
 total        electrons   997.07737191289675     
 total        electrons   997.07737191289675     
 total        electrons   997.07737191289675     
 entering main loop
       N       E                     dE             d eps       ncg     rms          rms(c)
DAV:   1     0.246033150849E+04    0.24603E+04   -0.10354E+05  8464   0.127E+03
DAV:   2    -0.215648223290E+03   -0.26760E+04   -0.24897E+04  9672   0.314E+02
DAV:   3    -0.655650457569E+03   -0.44000E+03   -0.41774E+03 11960   0.146E+02
DAV:   4    -0.693417123558E+03   -0.37767E+02   -0.36014E+02 13696   0.467E+01
DAV:   5    -0.695897281566E+03   -0.24802E+01   -0.23859E+01 14448   0.112E+01    0.147E+02
RMM:   6    -0.643465882076E+03    0.52431E+02   -0.11555E+03 11654   0.884E+01    0.725E+01
RMM:   7    -0.720648298995E+03   -0.77182E+02   -0.37523E+02 11704   0.356E+01    0.535E+01
RMM:   8    -0.606134035359E+03    0.11451E+03   -0.78632E+01 10279   0.263E+01    0.309E+01
RMM:   9    -0.613436598515E+03   -0.73026E+01   -0.50287E+01 10336   0.181E+01    0.297E+01
RMM:  10    -0.591629915020E+03    0.21807E+02   -0.18460E+01 11128   0.974E+00    0.184E+01
RMM:  11    -0.591361799690E+03    0.26812E+00   -0.30718E+00 10060   0.457E+00    0.167E+01
RMM:  12    -0.591523372406E+03   -0.16157E+00   -0.13010E+00 11424   0.172E+00    0.157E+01
RMM:  13    -0.590873330895E+03    0.65004E+00   -0.24791E+00  8557   0.506E+00    0.128E+01
RMM:  14    -0.591154137759E+03   -0.28081E+00   -0.65181E+00  8500   0.850E+00    0.104E+01
RMM:  15    -0.590925003778E+03    0.22913E+00   -0.34618E+00 10975   0.386E+00    0.861E+00
RMM:  16    -0.590380591826E+03    0.54441E+00   -0.88297E-01  8649   0.272E+00    0.514E+00
RMM:  17    -0.590142227338E+03    0.23836E+00   -0.64624E-01 10805   0.178E+00    0.229E+00
RMM:  18    -0.590110733488E+03    0.31494E-01   -0.60794E-01 11518   0.143E+00    0.150E+00
RMM:  19    -0.590111827141E+03   -0.10937E-02   -0.12151E-01 11176   0.703E-01    0.135E+00
RMM:  20    -0.590108058880E+03    0.37683E-02   -0.30071E-02 10590   0.383E-01    0.125E+00
RMM:  21    -0.590087132502E+03    0.20926E-01   -0.73840E-02  8835   0.891E-01    0.625E-01
RMM:  22    -0.590084919451E+03    0.22131E-02   -0.26109E-02 10832   0.360E-01    0.240E-01
RMM:  23    -0.590086333706E+03   -0.14143E-02   -0.10962E-02 11344   0.146E-01    0.154E-01
RMM:  24    -0.590086754675E+03   -0.42097E-03   -0.16220E-03  9063   0.106E-01    0.125E-01
RMM:  25    -0.590087529204E+03   -0.77453E-03   -0.13976E-03  9864   0.900E-02    0.150E-01
RMM:  26    -0.590088379551E+03   -0.85035E-03   -0.69113E-04  8836   0.720E-02    0.621E-02
RMM:  27    -0.590089135107E+03   -0.75556E-03   -0.91799E-04  8946   0.759E-02    0.975E-02
RMM:  28    -0.590090067503E+03   -0.93240E-03   -0.15184E-03  8481   0.138E-01    0.167E-01
RMM:  29    -0.590090222268E+03   -0.15477E-03   -0.63655E-04  8484   0.937E-02    0.346E-02
RMM:  30    -0.590090279204E+03   -0.56936E-04   -0.21817E-04 10000   0.167E-02    0.113E-02
RMM:  31    -0.590090430080E+03   -0.15088E-03   -0.72147E-05  8774   0.213E-02    0.337E-02
RMM:  32    -0.590090505861E+03   -0.75781E-04   -0.30928E-05  7913   0.978E-03    0.202E-02
RMM:  33    -0.590090571271E+03   -0.65410E-04   -0.18572E-05  7270   0.107E-02    0.529E-03
RMM:  34    -0.590090706271E+03   -0.13500E-03   -0.11151E-05  6991   0.458E-03    0.713E-03
RMM:  35    -0.590090832092E+03   -0.12582E-03   -0.70983E-06  6257   0.427E-03    0.388E-03
RMM:  36    -0.590090912721E+03   -0.80629E-04   -0.62342E-06  6249   0.369E-03    0.413E-03
RMM:  37    -0.590090937395E+03   -0.24674E-04   -0.19647E-06  5546   0.314E-03    0.209E-03
RMM:  38    -0.590090966753E+03   -0.29358E-04   -0.27797E-06  5538   0.203E-03    0.129E-03
RMM:  39    -0.590090973799E+03   -0.70453E-05   -0.91995E-07  5100   0.283E-03    0.165E-03
RMM:  40    -0.590090976418E+03   -0.26192E-05   -0.45623E-07  4075   0.132E-03    0.758E-04
RMM:  41    -0.590090979093E+03   -0.26756E-05   -0.33077E-07  4017   0.134E-03    0.121E-03
RMM:  42    -0.590090980488E+03   -0.13943E-05   -0.24933E-07  4448   0.138E-03    0.146E-04
RMM:  43    -0.590090981000E+03   -0.51167E-06   -0.14841E-07  2839   0.774E-04
   1 F= -.59009098E+03 E0= -.59009265E+03  d E =-.590091E+03
 curvature:   0.00 expect dE= 0.000E+00 dE for cont linesearch  0.000E+00
 trial: gam= 0.00000 g(F)=  0.461E-04 g(S)=  0.000E+00 ort = 0.000E+00 (trialstep = 0.100E+01)
 search vector abs. value=  0.461E-04
 bond charge predicted
       N       E                     dE             d eps       ncg     rms          rms(c)
DAV:   1    -0.590091020462E+03   -0.39974E-04   -0.76723E-04  9392   0.540E-02    0.883E-03
RMM:   2    -0.590091020522E+03   -0.60540E-07   -0.12495E-05  7599   0.932E-03    0.594E-03
RMM:   3    -0.590091023917E+03   -0.33950E-05   -0.59211E-06  6551   0.760E-03    0.161E-02
RMM:   4    -0.590091021154E+03    0.27638E-05   -0.25597E-06  5662   0.619E-03    0.723E-03
RMM:   5    -0.590091020556E+03    0.59773E-06   -0.14210E-06  5295   0.466E-03
   2 F= -.59009102E+03 E0= -.59009268E+03  d E =-.395564E-04
 trial-energy change:   -0.000040  1 .order   -0.000039   -0.000046   -0.000032
 step:   3.2926(harm=  3.2926)  dis= 0.00299  next Energy=  -590.091057 (dE=-0.759E-04)
 reached required accuracy - stopping structural energy minimisation
 augmentation electrons   31.470610646355077     
 soft         electrons   252.62186165332807     
 augmentation electrons   31.470610646355077     
 soft         electrons   252.62186165332807     
 augmentation electrons   31.470610646355077     
 soft         electrons   252.62186165332807     
 augmentation electrons   31.470610646355077     
 soft         electrons   252.62186165332807     
 augmentation electrons   31.470610646355077     
 soft         electrons   252.62186165332807     
 augmentation electrons   31.470610646355077     
 soft         electrons   252.62186165332807     
 augmentation electrons   31.470610646355077     
 soft         electrons   252.62186165332807     
 augmentation electrons   31.470610646355077     
 soft         electrons   252.62186165332807     
 augmentation electrons   31.470610646355077     
 soft         electrons   252.62186165332807     
 augmentation electrons   31.470610646355077     
 soft         electrons   252.62186165332807     
 augmentation electrons   31.470610646355077     
 soft         electrons   252.62186165332807     
 augmentation electrons   31.470610646355077     
 soft         electrons   252.62186165332807     
 augmentation electrons   31.470610646355077     
 soft         electrons   252.62186165332807     
 augmentation electrons   31.470610646355077     
 soft         electrons   252.62186165332807     
 augmentation electrons   31.470610646355077     
 soft         electrons   252.62186165332807     
 augmentation electrons   31.470610646355077     
 soft         electrons   252.62186165332807     
 augmentation electrons   31.470610646355077     
 soft         electrons   252.62186165332807     
 augmentation electrons   31.470610646355077     
 soft         electrons   252.62186165332807     
 augmentation electrons   31.470610646355077     
 soft         electrons   252.62186165332807     
 augmentation electrons   31.470610646355077     
 soft         electrons   252.62186165332807     
 augmentation electrons   31.470610646355077     
 soft         electrons   252.62186165332807     
 augmentation electrons   31.470610646355077     
 soft         electrons   252.62186165332807     
 augmentation electrons   31.470610646355077     
 soft         electrons   252.62186165332807     
 augmentation electrons   31.470610646355077     
 soft         electrons   252.62186165332807     
 augmentation electrons   31.470610646355077     
 soft         electrons   252.62186165332807     
 augmentation electrons   31.470610646355077     
 soft         electrons   252.62186165332807     
 augmentation electrons   31.470610646355077     
 soft         electrons   252.62186165332807     
 augmentation electrons   31.470610646355077     
 soft         electrons   252.62186165332807     
 augmentation electrons   31.470610646355077     
 soft         electrons   252.62186165332807     
 augmentation electrons   31.470610646355077     
 soft         electrons   252.62186165332807     
 augmentation electrons   31.470610646355077     
 soft         electrons   252.62186165332807     
 augmentation electrons   31.470610646355077     
 soft         electrons   252.62186165332807     
 augmentation electrons   31.470610646355077     
 soft         electrons   252.62186165332807     
 augmentation electrons   31.470610646355077     
 soft         electrons   252.62186165332807     
 augmentation electrons   31.470610646355077     
 soft         electrons   252.62186165332807     
 augmentation electrons   31.470610646355077     
 soft         electrons   252.62186165332807     
 augmentation electrons   31.470610646355077     
 soft         electrons   252.62186165332807     
 augmentation electrons   31.470610646355077     
 soft         electrons   252.62186165332807     
 augmentation electrons   31.470610646355077     
 soft         electrons   252.62186165332807     
 augmentation electrons   31.470610646355077     
 soft         electrons   252.62186165332807     
 augmentation electrons   31.470610646355077     
 soft         electrons   252.62186165332807     
 augmentation electrons   31.470610646355077     
 soft         electrons   252.62186165332807     
 augmentation electrons   31.470610646355077     
 soft         electrons   252.62186165332807     
 augmentation electrons   31.470610646355077     
 soft         electrons   252.62186165332807     
 augmentation electrons   31.470610646355077     
 soft         electrons   252.62186165332807     
 augmentation electrons   31.470610646355077     
 soft         electrons   252.62186165332807     
 augmentation electrons   31.470610646355077     
 soft         electrons   252.62186165332807     
 augmentation electrons   31.470610646355077     
 soft         electrons   252.62186165332807     
 augmentation electrons   31.470610646355077     
 soft         electrons   252.62186165332807     
 augmentation electrons   31.470610646355077     
 soft         electrons   252.62186165332807     
 augmentation electrons   31.470610646355077     
 soft         electrons   252.62186165332807     
 augmentation electrons   31.470610646355077     
 soft         electrons   252.62186165332807     
 augmentation electrons   31.470610646355077     
 soft         electrons   252.62186165332807     
 augmentation electrons   31.470610646355077     
 soft         electrons   252.62186165332807     
 augmentation electrons   31.470610646355077     
 soft         electrons   252.62186165332807     
 augmentation electrons   31.470610646355077     
 soft         electrons   252.62186165332807     
 augmentation electrons   31.470610646355077     
 soft         electrons   252.62186165332807     
 augmentation electrons   31.470610646355077     
 soft         electrons   252.62186165332807     
 augmentation electrons   31.470610646355077     
 soft         electrons   252.62186165332807     
 augmentation electrons   31.470610646355077     
 soft         electrons   252.62186165332807     
 augmentation electrons   31.470610646355077     
 soft         electrons   252.62186165332807     
 augmentation electrons   31.470610646355077     
 soft         electrons   252.62186165332807     
 augmentation electrons   31.470610646355077     
 soft         electrons   252.62186165332807     
 augmentation electrons   31.470610646355077     
 soft         electrons   252.62186165332807     
 augmentation electrons   31.470610646355077     
 soft         electrons   252.62186165332807     
 augmentation electrons   31.470610646355077     
 soft         electrons   252.62186165332807     
 augmentation electrons   31.470610646355077     
 soft         electrons   252.62186165332807     
 augmentation electrons   31.470610646355077     
 soft         electrons   252.62186165332807     
 augmentation electrons   31.470610646355077     
 soft         electrons   252.62186165332807     
 augmentation electrons   31.470610646355077     
 soft         electrons   252.62186165332807     
 augmentation electrons   31.470610646355077     
 soft         electrons   252.62186165332807     
 augmentation electrons   31.470610646355077     
 soft         electrons   252.62186165332807     
 total        electrons   284.09247229968315     
 total        electrons   284.09247229968315     
 total        electrons   284.09247229968315     
 total        electrons   284.09247229968315     
 total        electrons   284.09247229968315     
 total        electrons   284.09247229968315     
 total        electrons   284.09247229968315     
 total        electrons   284.09247229968315     
 total        electrons   284.09247229968315     
 total        electrons   284.09247229968315     
 total        electrons   284.09247229968315     
 total        electrons   284.09247229968315     
 total        electrons   284.09247229968315     
 total        electrons   284.09247229968315     
 total        electrons   284.09247229968315     
 total        electrons   284.09247229968315     
 total        electrons   284.09247229968315     
 total        electrons   284.09247229968315     
 total        electrons   284.09247229968315     
 total        electrons   284.09247229968315     
 total        electrons   284.09247229968315     
 total        electrons   284.09247229968315     
 total        electrons   284.09247229968315     
 total        electrons   284.09247229968315     
 total        electrons   284.09247229968315     
 total        electrons   284.09247229968315     
 total        electrons   284.09247229968315     
 total        electrons   284.09247229968315     
 total        electrons   284.09247229968315     
 total        electrons   284.09247229968315     
 total        electrons   284.09247229968315     
 total        electrons   284.09247229968315     
 total        electrons   284.09247229968315     
 total        electrons   284.09247229968315     
 total        electrons   284.09247229968315     
 total        electrons   284.09247229968315     
 total        electrons   284.09247229968315     
 total        electrons   284.09247229968315     
 total        electrons   284.09247229968315     
 total        electrons   284.09247229968315     
 total        electrons   284.09247229968315     
 total        electrons   284.09247229968315     
 total        electrons   284.09247229968315     
 total        electrons   284.09247229968315     
 total        electrons   284.09247229968315     
 total        electrons   284.09247229968315     
 total        electrons   284.09247229968315     
 total        electrons   284.09247229968315     
 total        electrons   284.09247229968315     
 total        electrons   284.09247229968315     
 total        electrons   284.09247229968315     
 total        electrons   284.09247229968315     
 total        electrons   284.09247229968315     
 total        electrons   284.09247229968315     
 total        electrons   284.09247229968315     
 total        electrons   284.09247229968315     
 total        electrons   284.09247229968315     
 total        electrons   284.09247229968315     
 total        electrons   284.09247229968315     
 total        electrons   284.09247229968315     
 total        electrons   284.09247229968315     
 total        electrons   284.09247229968315     
 total        electrons   284.09247229968315     
 total        electrons   284.09247229968315     
 total        electrons   284.09247229968315     
 total        electrons   284.09247229968315     
 total        electrons   284.09247229968315     
 total        electrons   284.09247229968315     
 total        electrons   284.09247229968315     
 total        electrons   284.09247229968315     
 total        electrons   284.09247229968315     
 total        electrons   284.09247229968315     
Note: The following floating-point exceptions are signalling: IEEE_OVERFLOW_FLAG
Note: The following floating-point exceptions are signalling: IEEE_OVERFLOW_FLAG
Note: The following floating-point exceptions are signalling: IEEE_INVALID_FLAG IEEE_OVERFLOW_FLAG
Note: The following floating-point exceptions are signalling: IEEE_OVERFLOW_FLAG
Note: The following floating-point exceptions are signalling: IEEE_OVERFLOW_FLAG
Note: The following floating-point exceptions are signalling: IEEE_OVERFLOW_FLAG
Note: The following floating-point exceptions are signalling: IEEE_OVERFLOW_FLAG
Note: The following floating-point exceptions are signalling: IEEE_OVERFLOW_FLAG
Note: The following floating-point exceptions are signalling: IEEE_OVERFLOW_FLAG
Note: The following floating-point exceptions are signalling: IEEE_OVERFLOW_FLAG
Note: The following floating-point exceptions are signalling: IEEE_OVERFLOW_FLAG
Note: The following floating-point exceptions are signalling: IEEE_OVERFLOW_FLAG
Note: The following floating-point exceptions are signalling: IEEE_OVERFLOW_FLAG
Note: The following floating-point exceptions are signalling: IEEE_OVERFLOW_FLAG
Note: The following floating-point exceptions are signalling: IEEE_OVERFLOW_FLAG
Note: The following floating-point exceptions are signalling: IEEE_OVERFLOW_FLAG
Note: The following floating-point exceptions are signalling: IEEE_OVERFLOW_FLAG
Note: The following floating-point exceptions are signalling: IEEE_OVERFLOW_FLAG
Note: The following floating-point exceptions are signalling: IEEE_OVERFLOW_FLAG
Note: The following floating-point exceptions are signalling: IEEE_OVERFLOW_FLAG
Note: The following floating-point exceptions are signalling: IEEE_OVERFLOW_FLAG
Note: The following floating-point exceptions are signalling: IEEE_INVALID_FLAG IEEE_OVERFLOW_FLAG
Note: The following floating-point exceptions are signalling: IEEE_OVERFLOW_FLAG
Note: The following floating-point exceptions are signalling: IEEE_OVERFLOW_FLAG
Note: The following floating-point exceptions are signalling: IEEE_OVERFLOW_FLAG
Note: The following floating-point exceptions are signalling: IEEE_OVERFLOW_FLAG
Note: The following floating-point exceptions are signalling: IEEE_OVERFLOW_FLAG
Note: The following floating-point exceptions are signalling: IEEE_OVERFLOW_FLAG
Note: The following floating-point exceptions are signalling: IEEE_OVERFLOW_FLAG
Note: The following floating-point exceptions are signalling: IEEE_OVERFLOW_FLAG
Note: The following floating-point exceptions are signalling: IEEE_OVERFLOW_FLAG
Note: The following floating-point exceptions are signalling: IEEE_OVERFLOW_FLAG
Note: The following floating-point exceptions are signalling: IEEE_OVERFLOW_FLAG
Note: The following floating-point exceptions are signalling: IEEE_OVERFLOW_FLAG
Note: The following floating-point exceptions are signalling: IEEE_OVERFLOW_FLAG
Note: The following floating-point exceptions are signalling: IEEE_OVERFLOW_FLAG
Note: The following floating-point exceptions are signalling: IEEE_OVERFLOW_FLAG
Note: The following floating-point exceptions are signalling: IEEE_OVERFLOW_FLAG
Note: The following floating-point exceptions are signalling: IEEE_OVERFLOW_FLAG
Note: The following floating-point exceptions are signalling: IEEE_OVERFLOW_FLAG
Note: The following floating-point exceptions are signalling: IEEE_OVERFLOW_FLAG
Note: The following floating-point exceptions are signalling: IEEE_INVALID_FLAG IEEE_OVERFLOW_FLAG
Note: The following floating-point exceptions are signalling: IEEE_OVERFLOW_FLAG
Note: The following floating-point exceptions are signalling: IEEE_OVERFLOW_FLAG
Note: The following floating-point exceptions are signalling: IEEE_OVERFLOW_FLAG
Note: The following floating-point exceptions are signalling: IEEE_OVERFLOW_FLAG
Note: The following floating-point exceptions are signalling: IEEE_OVERFLOW_FLAG
Note: The following floating-point exceptions are signalling: IEEE_OVERFLOW_FLAG
Note: The following floating-point exceptions are signalling: IEEE_OVERFLOW_FLAG
Note: The following floating-point exceptions are signalling: IEEE_OVERFLOW_FLAG
Note: The following floating-point exceptions are signalling: IEEE_OVERFLOW_FLAG
Note: The following floating-point exceptions are signalling: IEEE_OVERFLOW_FLAG
Note: The following floating-point exceptions are signalling: IEEE_OVERFLOW_FLAG
Note: The following floating-point exceptions are signalling: IEEE_OVERFLOW_FLAG
Note: The following floating-point exceptions are signalling: IEEE_OVERFLOW_FLAG
Note: The following floating-point exceptions are signalling: IEEE_OVERFLOW_FLAG
Note: The following floating-point exceptions are signalling: IEEE_OVERFLOW_FLAG
Note: The following floating-point exceptions are signalling: IEEE_OVERFLOW_FLAG
Note: The following floating-point exceptions are signalling: IEEE_OVERFLOW_FLAG
Note: The following floating-point exceptions are signalling: IEEE_OVERFLOW_FLAG
Note: The following floating-point exceptions are signalling: IEEE_OVERFLOW_FLAG
Note: The following floating-point exceptions are signalling: IEEE_OVERFLOW_FLAG
Note: The following floating-point exceptions are signalling: IEEE_OVERFLOW_FLAG
Note: The following floating-point exceptions are signalling: IEEE_OVERFLOW_FLAG
Note: The following floating-point exceptions are signalling: IEEE_OVERFLOW_FLAG
Note: The following floating-point exceptions are signalling: IEEE_OVERFLOW_FLAG
Note: The following floating-point exceptions are signalling: IEEE_OVERFLOW_FLAG
Note: The following floating-point exceptions are signalling: IEEE_OVERFLOW_FLAG
Note: The following floating-point exceptions are signalling: IEEE_OVERFLOW_FLAG
Note: The following floating-point exceptions are signalling: IEEE_OVERFLOW_FLAG
Note: The following floating-point exceptions are signalling: IEEE_OVERFLOW_FLAG
Note: The following floating-point exceptions are signalling: IEEE_OVERFLOW_FLAG
