   76   76   85    1
  0.2032295E+02  0.1036705E-08  0.2428040E-08  0.6136055E-09  0.5000000E-15
   1.0000000000000000E-004
  CAR 
 Name                                    
    280     23    180

  0.3742002E-15  0.1262379E-14  0.3742002E-15  0.2222222E-01
    1      -13.857242   1.000000
    2      -12.710009   1.000000
    3      -12.708899   1.000000
    4      -12.652821   1.000000
    5      -11.745338   1.000000
    6      -11.717397   1.000000
    7      -11.491577   1.000000
    8      -11.325881   1.000000
    9      -11.309334   1.000000
   10      -11.280988   1.000000
   11      -11.152274   1.000000
   12      -10.843202   1.000000
   13      -10.786652   1.000000
   14      -10.535057   1.000000
   15      -10.514009   1.000000
   16      -10.489490   1.000000
   17      -10.320081   1.000000
   18      -10.104908   1.000000
   19      -10.013466   1.000000
   20       -9.861629   1.000000
   21       -9.745817   1.000000
   22       -9.424875   1.000000
   23       -9.371714   1.000000
   24       -9.304566   1.000000
   25       -9.296893   1.000000
   26       -8.815948   1.000000
   27       -8.734221   1.000000
   28       -8.649364   1.000000
   29       -8.266443   1.000000
   30       -8.007133   1.000000
   31       -7.992553   1.000000
   32       -7.670998   1.000000
   33       -7.651783   1.000000
   34       -7.607979   1.000000
   35       -7.565095   1.000000
   36       -7.460417   1.000000
   37       -7.052684   1.000000
   38       -6.869524   1.000000
   39       -6.605080   1.000000
   40       -6.602248   1.000000
   41       -6.554414   1.000000
   42       -6.552633   1.000000
   43       -6.532481   1.000000
   44       -6.296260   1.000000
   45       -6.273606   1.000000
   46       -6.158513   1.000000
   47       -6.126211   1.000000
   48       -5.996764   1.000000
   49       -5.977471   1.000000
   50       -5.939128   1.000000
   51       -5.937306   1.000000
   52       -5.911833   1.000000
   53       -5.659638   1.000000
   54       -5.595009   1.000000
   55       -5.513915   1.000000
   56       -5.460374   1.000000
   57       -5.384131   1.000000
   58       -5.354029   1.000000
   59       -5.201606   1.000000
   60       -5.173892   1.000000
   61       -5.082459   1.000000
   62       -5.032583   1.000000
   63       -4.954188   1.000000
   64       -4.898793   1.000000
   65       -4.584343   1.000000
   66       -4.524672   1.000000
   67       -4.409780   1.000000
   68       -4.376671   1.000000
   69       -4.301559   1.000000
   70       -4.261116   1.000000
   71       -3.987206   1.000000
   72       -3.980929   1.000000
   73       -3.889378   1.000000
   74       -3.856346   1.000000
   75       -3.837849   1.000000
   76       -3.802483   1.000000
   77       -3.788393   1.000000
   78       -3.763216   1.000000
   79       -3.735332   1.000000
   80       -3.584516   1.000000
   81       -3.538552   1.000000
   82       -3.447922   1.000000
   83       -3.441628   1.000000
   84       -3.402182   1.000000
   85       -3.345223   1.000000
   86       -3.344691   1.000000
   87       -3.338427   1.000000
   88       -3.337747   1.000000
   89       -3.323955   1.000000
   90       -3.301216   1.000000
   91       -3.229871   1.000000
   92       -3.202605   1.000000
   93       -3.147276   1.000000
   94       -2.963062   1.000000
   95       -2.912874   1.000000
   96       -2.768742   1.000000
   97       -2.768458   1.000000
   98       -2.608070   1.000000
   99       -2.541824   1.000000
  100       -2.448013   1.000000
  101       -2.361274   1.000000
  102       -2.263409   1.000000
  103       -2.177322   1.000000
  104       -2.137616   1.000000
  105       -2.093271   1.000000
  106       -2.057991   1.000000
  107       -1.927887   1.000000
  108       -1.919805   1.000000
  109       -1.900669   1.000000
  110       -1.897468   1.000000
  111       -1.808876   1.000000
  112       -1.793123   1.000000
  113       -1.698618   1.000000
  114       -1.589245   1.000000
  115       -1.586311   1.000000
  116       -1.429375   1.000000
  117       -1.413627   1.000000
  118       -1.370021   1.000000
  119       -1.322085   1.000000
  120       -1.242422   1.000000
  121       -1.231028   1.000000
  122       -1.146665   1.000000
  123       -0.933529   1.000000
  124       -0.858664   1.000000
  125       -0.636116   1.000000
  126       -0.503822   1.000000
  127       -0.425452   1.000000
  128       -0.300314   1.000000
  129       -0.298441   1.000000
  130       -0.261663   1.000000
  131       -0.158514   1.000000
  132        0.096439   1.000000
  133        0.126828   1.000000
  134        0.161633   1.000000
  135        0.443317   1.027377
  136        0.452348   1.016699
  137        0.486545   0.915934
  138        0.522444   0.690602
  139        0.538591   0.559526
  140        0.645196  -0.024655
  141        0.657877  -0.033607
  142        0.712253  -0.020048
  143        0.777636  -0.002492
  144        0.790527  -0.001451
  145        0.793200  -0.001291
  146        0.798266  -0.001029
  147        0.812974  -0.000516
  148        0.853821  -0.000059
  149        1.016761  -0.000000
  150        1.038740  -0.000000
  151        1.125947  -0.000000
  152        1.186217  -0.000000
  153        1.241751  -0.000000
  154        1.267843  -0.000000
  155        1.351248  -0.000000
  156        1.390008  -0.000000
  157        1.391002  -0.000000
  158        1.467130  -0.000000
  159        1.484643  -0.000000
  160        1.554804  -0.000000
  161        1.557799  -0.000000
  162        1.568204  -0.000000
  163        1.578593  -0.000000
  164        1.587889  -0.000000
  165        1.589418  -0.000000
  166        1.595355  -0.000000
  167        1.771359  -0.000000
  168        1.786693  -0.000000
  169        1.839579  -0.000000
  170        1.841842  -0.000000
  171        1.867482  -0.000000
  172        1.875538  -0.000000
  173        1.895788  -0.000000
  174        1.903508  -0.000000
  175        1.931920  -0.000000
  176        1.961509  -0.000000
  177        1.971431  -0.000000
  178        2.110780  -0.000000
  179        2.131236  -0.000000
  180        2.167173  -0.000000

  0.2000000E+00  0.1262379E-14  0.3742002E-15  0.4444444E-01
    1      -13.808138   1.000000
    2      -13.092927   1.000000
    3      -12.663879   1.000000
    4      -12.206986   1.000000
    5      -12.000220   1.000000
    6      -11.701249   1.000000
    7      -11.450805   1.000000
    8      -11.293257   1.000000
    9      -11.198679   1.000000
   10      -11.140599   1.000000
   11      -11.110030   1.000000
   12      -10.930905   1.000000
   13      -10.677247   1.000000
   14      -10.634435   1.000000
   15      -10.523951   1.000000
   16      -10.460255   1.000000
   17      -10.414063   1.000000
   18      -10.409587   1.000000
   19      -10.017794   1.000000
   20       -9.885514   1.000000
   21       -9.880357   1.000000
   22       -9.303458   1.000000
   23       -9.291392   1.000000
   24       -9.265056   1.000000
   25       -9.249226   1.000000
   26       -8.999635   1.000000
   27       -8.591162   1.000000
   28       -8.356676   1.000000
   29       -8.250864   1.000000
   30       -8.001042   1.000000
   31       -8.000362   1.000000
   32       -7.903049   1.000000
   33       -7.667690   1.000000
   34       -7.531450   1.000000
   35       -7.420880   1.000000
   36       -7.330975   1.000000
   37       -7.242751   1.000000
   38       -7.059371   1.000000
   39       -6.754978   1.000000
   40       -6.609946   1.000000
   41       -6.605825   1.000000
   42       -6.520129   1.000000
   43       -6.466487   1.000000
   44       -6.328346   1.000000
   45       -6.295333   1.000000
   46       -6.248632   1.000000
   47       -6.102169   1.000000
   48       -6.017447   1.000000
   49       -5.914262   1.000000
   50       -5.889766   1.000000
   51       -5.876307   1.000000
   52       -5.819439   1.000000
   53       -5.781163   1.000000
   54       -5.542659   1.000000
   55       -5.525475   1.000000
   56       -5.412195   1.000000
   57       -5.209372   1.000000
   58       -5.184025   1.000000
   59       -5.127961   1.000000
   60       -5.122269   1.000000
   61       -5.084928   1.000000
   62       -5.058425   1.000000
   63       -5.007043   1.000000
   64       -4.963957   1.000000
   65       -4.737208   1.000000
   66       -4.640060   1.000000
   67       -4.390838   1.000000
   68       -4.336302   1.000000
   69       -4.327285   1.000000
   70       -4.255138   1.000000
   71       -3.998962   1.000000
   72       -3.984713   1.000000
   73       -3.929639   1.000000
   74       -3.873276   1.000000
   75       -3.871415   1.000000
   76       -3.848986   1.000000
   77       -3.760391   1.000000
   78       -3.740965   1.000000
   79       -3.701842   1.000000
   80       -3.537238   1.000000
   81       -3.511791   1.000000
   82       -3.496505   1.000000
   83       -3.458249   1.000000
   84       -3.429017   1.000000
   85       -3.399892   1.000000
   86       -3.365123   1.000000
   87       -3.340636   1.000000
   88       -3.337548   1.000000
   89       -3.302474   1.000000
   90       -3.283328   1.000000
   91       -3.192013   1.000000
   92       -3.180805   1.000000
   93       -3.096559   1.000000
   94       -3.081657   1.000000
   95       -2.845586   1.000000
   96       -2.748638   1.000000
   97       -2.730118   1.000000
   98       -2.631329   1.000000
   99       -2.552207   1.000000
  100       -2.474425   1.000000
  101       -2.401826   1.000000
  102       -2.280979   1.000000
  103       -2.234824   1.000000
  104       -2.125239   1.000000
  105       -2.103551   1.000000
  106       -2.030914   1.000000
  107       -1.965011   1.000000
  108       -1.901946   1.000000
  109       -1.847369   1.000000
  110       -1.818375   1.000000
  111       -1.752099   1.000000
  112       -1.730638   1.000000
  113       -1.662891   1.000000
  114       -1.650229   1.000000
  115       -1.496345   1.000000
  116       -1.487684   1.000000
  117       -1.389183   1.000000
  118       -1.284834   1.000000
  119       -1.264186   1.000000
  120       -1.258895   1.000000
  121       -1.133227   1.000000
  122       -1.112147   1.000000
  123       -0.951484   1.000000
  124       -0.895131   1.000000
  125       -0.652800   1.000000
  126       -0.620340   1.000000
  127       -0.508357   1.000000
  128       -0.300076   1.000000
  129       -0.272348   1.000000
  130       -0.242788   1.000000
  131       -0.182608   1.000000
  132       -0.126475   1.000000
  133       -0.030977   1.000000
  134        0.079904   1.000000
  135        0.298228   1.001299
  136        0.337222   1.006033
  137        0.432260   1.034022
  138        0.496068   0.867766
  139        0.572926   0.278378
  140        0.619216   0.028274
  141        0.674932  -0.034807
  142        0.750775  -0.006750
  143        0.828281  -0.000239
  144        0.841873  -0.000115
  145        0.867256  -0.000027
  146        0.874801  -0.000017
  147        0.923893  -0.000001
  148        0.925577  -0.000001
  149        0.960843  -0.000000
  150        1.003619  -0.000000
  151        1.099813  -0.000000
  152        1.288320  -0.000000
  153        1.291516  -0.000000
  154        1.330051  -0.000000
  155        1.353556  -0.000000
  156        1.431307  -0.000000
  157        1.443228  -0.000000
  158        1.504579  -0.000000
  159        1.512450  -0.000000
  160        1.525524  -0.000000
  161        1.564442  -0.000000
  162        1.592958  -0.000000
  163        1.608839  -0.000000
  164        1.619879  -0.000000
  165        1.623096  -0.000000
  166        1.645003  -0.000000
  167        1.777735  -0.000000
  168        1.788005  -0.000000
  169        1.788381  -0.000000
  170        1.830034  -0.000000
  171        1.867540  -0.000000
  172        1.871371  -0.000000
  173        1.925086  -0.000000
  174        1.964672  -0.000000
  175        1.985650  -0.000000
  176        2.019975  -0.000000
  177        2.025418  -0.000000
  178        2.146576  -0.000000
  179        2.150743  -0.000000
  180        2.175793  -0.000000

  0.4000000E+00  0.1262379E-14  0.3742002E-15  0.4444444E-01
    1      -13.661894   1.000000
    2      -13.421689   1.000000
    3      -12.529985   1.000000
    4      -12.312469   1.000000
    5      -11.652318   1.000000
    6      -11.647142   1.000000
    7      -11.569313   1.000000
    8      -11.229178   1.000000
    9      -11.105351   1.000000
   10      -11.049927   1.000000
   11      -11.043752   1.000000
   12      -10.987426   1.000000
   13      -10.858557   1.000000
   14      -10.631446   1.000000
   15      -10.581605   1.000000
   16      -10.533506   1.000000
   17      -10.524895   1.000000
   18      -10.337828   1.000000
   19      -10.160615   1.000000
   20      -10.124421   1.000000
   21       -9.749607   1.000000
   22       -9.634821   1.000000
   23       -9.261931   1.000000
   24       -9.250348   1.000000
   25       -9.066636   1.000000
   26       -8.776827   1.000000
   27       -8.273158   1.000000
   28       -8.269914   1.000000
   29       -8.250781   1.000000
   30       -8.009659   1.000000
   31       -7.928143   1.000000
   32       -7.872126   1.000000
   33       -7.685315   1.000000
   34       -7.586208   1.000000
   35       -7.555527   1.000000
   36       -7.327345   1.000000
   37       -7.227292   1.000000
   38       -7.142243   1.000000
   39       -6.993381   1.000000
   40       -6.864075   1.000000
   41       -6.730507   1.000000
   42       -6.437876   1.000000
   43       -6.364508   1.000000
   44       -6.303369   1.000000
   45       -6.295944   1.000000
   46       -6.187507   1.000000
   47       -6.156232   1.000000
   48       -6.043644   1.000000
   49       -5.978203   1.000000
   50       -5.819175   1.000000
   51       -5.724085   1.000000
   52       -5.696727   1.000000
   53       -5.651083   1.000000
   54       -5.554625   1.000000
   55       -5.532730   1.000000
   56       -5.501319   1.000000
   57       -5.285145   1.000000
   58       -5.280534   1.000000
   59       -5.134411   1.000000
   60       -5.038055   1.000000
   61       -5.004779   1.000000
   62       -4.960121   1.000000
   63       -4.897198   1.000000
   64       -4.742094   1.000000
   65       -4.718298   1.000000
   66       -4.623164   1.000000
   67       -4.526578   1.000000
   68       -4.468561   1.000000
   69       -4.357067   1.000000
   70       -4.216494   1.000000
   71       -4.160009   1.000000
   72       -4.103075   1.000000
   73       -4.023261   1.000000
   74       -3.913365   1.000000
   75       -3.847134   1.000000
   76       -3.812776   1.000000
   77       -3.725298   1.000000
   78       -3.655117   1.000000
   79       -3.639907   1.000000
   80       -3.621473   1.000000
   81       -3.598831   1.000000
   82       -3.574217   1.000000
   83       -3.514131   1.000000
   84       -3.508063   1.000000
   85       -3.465713   1.000000
   86       -3.357418   1.000000
   87       -3.321408   1.000000
   88       -3.265663   1.000000
   89       -3.245686   1.000000
   90       -3.198893   1.000000
   91       -3.150225   1.000000
   92       -3.099075   1.000000
   93       -3.056969   1.000000
   94       -2.909011   1.000000
   95       -2.893344   1.000000
   96       -2.868679   1.000000
   97       -2.794490   1.000000
   98       -2.672818   1.000000
   99       -2.523602   1.000000
  100       -2.512751   1.000000
  101       -2.369880   1.000000
  102       -2.292150   1.000000
  103       -2.228684   1.000000
  104       -2.203924   1.000000
  105       -2.149925   1.000000
  106       -2.006952   1.000000
  107       -2.000456   1.000000
  108       -1.860082   1.000000
  109       -1.775750   1.000000
  110       -1.769597   1.000000
  111       -1.752575   1.000000
  112       -1.686911   1.000000
  113       -1.587964   1.000000
  114       -1.534587   1.000000
  115       -1.446051   1.000000
  116       -1.422892   1.000000
  117       -1.381122   1.000000
  118       -1.237685   1.000000
  119       -1.229393   1.000000
  120       -1.083783   1.000000
  121       -0.968435   1.000000
  122       -0.950491   1.000000
  123       -0.915458   1.000000
  124       -0.880324   1.000000
  125       -0.840537   1.000000
  126       -0.736925   1.000000
  127       -0.621757   1.000000
  128       -0.557120   1.000000
  129       -0.543135   1.000000
  130       -0.391154   1.000000
  131       -0.259246   1.000000
  132       -0.243983   1.000000
  133       -0.017683   1.000000
  134        0.090501   1.000000
  135        0.191606   1.000003
  136        0.244343   1.000087
  137        0.409449   1.033068
  138        0.482501   0.933621
  139        0.504229   0.819384
  140        0.520152   0.708159
  141        0.644718  -0.024139
  142        0.746634  -0.007742
  143        0.813041  -0.000514
  144        0.858803  -0.000044
  145        0.882369  -0.000010
  146        0.897376  -0.000004
  147        0.907011  -0.000002
  148        1.016819  -0.000000
  149        1.025251  -0.000000
  150        1.161267  -0.000000
  151        1.173845  -0.000000
  152        1.294845  -0.000000
  153        1.337850  -0.000000
  154        1.367505  -0.000000
  155        1.394999  -0.000000
  156        1.456852  -0.000000
  157        1.544547  -0.000000
  158        1.599205  -0.000000
  159        1.618102  -0.000000
  160        1.634477  -0.000000
  161        1.650487  -0.000000
  162        1.661270  -0.000000
  163        1.662688  -0.000000
  164        1.696481  -0.000000
  165        1.721874  -0.000000
  166        1.770424  -0.000000
  167        1.785100  -0.000000
  168        1.797271  -0.000000
  169        1.802699  -0.000000
  170        1.850059  -0.000000
  171        1.850144  -0.000000
  172        1.903571  -0.000000
  173        1.948531  -0.000000
  174        1.969270  -0.000000
  175        1.984620  -0.000000
  176        1.987320  -0.000000
  177        2.004177  -0.000000
  178        2.041816  -0.000000
  179        2.161005  -0.000000
  180        2.213448  -0.000000

  0.3742002E-15  0.1262379E-14  0.1111111E+00  0.4444444E-01
    1      -13.811835   1.000000
    2      -12.674914   1.000000
    3      -12.670753   1.000000
    4      -12.618255   1.000000
    5      -11.823856   1.000000
    6      -11.714885   1.000000
    7      -11.463939   1.000000
    8      -11.356308   1.000000
    9      -11.327891   1.000000
   10      -11.309812   1.000000
   11      -11.205741   1.000000
   12      -10.851937   1.000000
   13      -10.805365   1.000000
   14      -10.551578   1.000000
   15      -10.537579   1.000000
   16      -10.482513   1.000000
   17      -10.296166   1.000000
   18      -10.080374   1.000000
   19       -9.990502   1.000000
   20       -9.834854   1.000000
   21       -9.748348   1.000000
   22       -9.456214   1.000000
   23       -9.352266   1.000000
   24       -9.331976   1.000000
   25       -9.259868   1.000000
   26       -8.795859   1.000000
   27       -8.758891   1.000000
   28       -8.678799   1.000000
   29       -8.261749   1.000000
   30       -7.987225   1.000000
   31       -7.861218   1.000000
   32       -7.728941   1.000000
   33       -7.650934   1.000000
   34       -7.619553   1.000000
   35       -7.603197   1.000000
   36       -7.452699   1.000000
   37       -7.158661   1.000000
   38       -6.844268   1.000000
   39       -6.665390   1.000000
   40       -6.594994   1.000000
   41       -6.493062   1.000000
   42       -6.479478   1.000000
   43       -6.471037   1.000000
   44       -6.279117   1.000000
   45       -6.264290   1.000000
   46       -6.159124   1.000000
   47       -6.155846   1.000000
   48       -6.031298   1.000000
   49       -5.996138   1.000000
   50       -5.984233   1.000000
   51       -5.929819   1.000000
   52       -5.917051   1.000000
   53       -5.592939   1.000000
   54       -5.576521   1.000000
   55       -5.495315   1.000000
   56       -5.473665   1.000000
   57       -5.413141   1.000000
   58       -5.250656   1.000000
   59       -5.137438   1.000000
   60       -5.131405   1.000000
   61       -5.087604   1.000000
   62       -5.011256   1.000000
   63       -4.950881   1.000000
   64       -4.855899   1.000000
   65       -4.536052   1.000000
   66       -4.495774   1.000000
   67       -4.399603   1.000000
   68       -4.338655   1.000000
   69       -4.298486   1.000000
   70       -4.257809   1.000000
   71       -3.978322   1.000000
   72       -3.969528   1.000000
   73       -3.916149   1.000000
   74       -3.870252   1.000000
   75       -3.858899   1.000000
   76       -3.820899   1.000000
   77       -3.787032   1.000000
   78       -3.761232   1.000000
   79       -3.760404   1.000000
   80       -3.659341   1.000000
   81       -3.649776   1.000000
   82       -3.618740   1.000000
   83       -3.514186   1.000000
   84       -3.507608   1.000000
   85       -3.486526   1.000000
   86       -3.400704   1.000000
   87       -3.386359   1.000000
   88       -3.354378   1.000000
   89       -3.307173   1.000000
   90       -3.305223   1.000000
   91       -3.202682   1.000000
   92       -3.189714   1.000000
   93       -3.078434   1.000000
   94       -2.959767   1.000000
   95       -2.824486   1.000000
   96       -2.770896   1.000000
   97       -2.746088   1.000000
   98       -2.549468   1.000000
   99       -2.523495   1.000000
  100       -2.376383   1.000000
  101       -2.293673   1.000000
  102       -2.292955   1.000000
  103       -2.262277   1.000000
  104       -2.234388   1.000000
  105       -2.105058   1.000000
  106       -2.069950   1.000000
  107       -1.966984   1.000000
  108       -1.898852   1.000000
  109       -1.861139   1.000000
  110       -1.832051   1.000000
  111       -1.815726   1.000000
  112       -1.773678   1.000000
  113       -1.690267   1.000000
  114       -1.659330   1.000000
  115       -1.516408   1.000000
  116       -1.487998   1.000000
  117       -1.430352   1.000000
  118       -1.422113   1.000000
  119       -1.328878   1.000000
  120       -1.170831   1.000000
  121       -1.157246   1.000000
  122       -1.108135   1.000000
  123       -0.907681   1.000000
  124       -0.818309   1.000000
  125       -0.727187   1.000000
  126       -0.509778   1.000000
  127       -0.460789   1.000000
  128       -0.387905   1.000000
  129       -0.348234   1.000000
  130       -0.240630   1.000000
  131       -0.094845   1.000000
  132       -0.022574   1.000000
  133        0.047954   1.000000
  134        0.253922   1.000147
  135        0.424126   1.035444
  136        0.425918   1.035337
  137        0.449679   1.020418
  138        0.456114   1.010576
  139        0.569639   0.303283
  140        0.577939   0.241866
  141        0.605907   0.078812
  142        0.622469   0.018529
  143        0.629542   0.000643
  144        0.799172  -0.000988
  145        0.801566  -0.000885
  146        0.820757  -0.000351
  147        0.975167  -0.000000
  148        1.005622  -0.000000
  149        1.070494  -0.000000
  150        1.128958  -0.000000
  151        1.150595  -0.000000
  152        1.198782  -0.000000
  153        1.265899  -0.000000
  154        1.299074  -0.000000
  155        1.324417  -0.000000
  156        1.400844  -0.000000
  157        1.411069  -0.000000
  158        1.424262  -0.000000
  159        1.476545  -0.000000
  160        1.526449  -0.000000
  161        1.531152  -0.000000
  162        1.536257  -0.000000
  163        1.605415  -0.000000
  164        1.610887  -0.000000
  165        1.671566  -0.000000
  166        1.726234  -0.000000
  167        1.732463  -0.000000
  168        1.781356  -0.000000
  169        1.795691  -0.000000
  170        1.820645  -0.000000
  171        1.833602  -0.000000
  172        1.841212  -0.000000
  173        1.896599  -0.000000
  174        1.929580  -0.000000
  175        1.980276  -0.000000
  176        1.985485  -0.000000
  177        2.057072  -0.000000
  178        2.073042  -0.000000
  179        2.081396  -0.000000
  180        2.132699  -0.000000

  0.2000000E+00  0.1262379E-14  0.1111111E+00  0.4444444E-01
    1      -13.763129   1.000000
    2      -13.054149   1.000000
    3      -12.626060   1.000000
    4      -12.177196   1.000000
    5      -11.968227   1.000000
    6      -11.804797   1.000000
    7      -11.513374   1.000000
    8      -11.278299   1.000000
    9      -11.190347   1.000000
   10      -11.173780   1.000000
   11      -11.138939   1.000000
   12      -10.957969   1.000000
   13      -10.680719   1.000000
   14      -10.630212   1.000000
   15      -10.543682   1.000000
   16      -10.470863   1.000000
   17      -10.395109   1.000000
   18      -10.390288   1.000000
   19      -10.010182   1.000000
   20       -9.882253   1.000000
   21       -9.864329   1.000000
   22       -9.317427   1.000000
   23       -9.300301   1.000000
   24       -9.240192   1.000000
   25       -9.226531   1.000000
   26       -9.005385   1.000000
   27       -8.612670   1.000000
   28       -8.352446   1.000000
   29       -8.246732   1.000000
   30       -8.012527   1.000000
   31       -7.979825   1.000000
   32       -7.773480   1.000000
   33       -7.731967   1.000000
   34       -7.582306   1.000000
   35       -7.419895   1.000000
   36       -7.308981   1.000000
   37       -7.306159   1.000000
   38       -6.972753   1.000000
   39       -6.753427   1.000000
   40       -6.664410   1.000000
   41       -6.599486   1.000000
   42       -6.493432   1.000000
   43       -6.420676   1.000000
   44       -6.344745   1.000000
   45       -6.297702   1.000000
   46       -6.292507   1.000000
   47       -6.136243   1.000000
   48       -6.108045   1.000000
   49       -5.945744   1.000000
   50       -5.933387   1.000000
   51       -5.777605   1.000000
   52       -5.728961   1.000000
   53       -5.695147   1.000000
   54       -5.578055   1.000000
   55       -5.505283   1.000000
   56       -5.430267   1.000000
   57       -5.211358   1.000000
   58       -5.145605   1.000000
   59       -5.116501   1.000000
   60       -5.088377   1.000000
   61       -5.053973   1.000000
   62       -4.999069   1.000000
   63       -4.964739   1.000000
   64       -4.949935   1.000000
   65       -4.709522   1.000000
   66       -4.585741   1.000000
   67       -4.382355   1.000000
   68       -4.318277   1.000000
   69       -4.293663   1.000000
   70       -4.231911   1.000000
   71       -3.998593   1.000000
   72       -3.972027   1.000000
   73       -3.929500   1.000000
   74       -3.915817   1.000000
   75       -3.851408   1.000000
   76       -3.836074   1.000000
   77       -3.809767   1.000000
   78       -3.773582   1.000000
   79       -3.765472   1.000000
   80       -3.664108   1.000000
   81       -3.607779   1.000000
   82       -3.545859   1.000000
   83       -3.539808   1.000000
   84       -3.501877   1.000000
   85       -3.479229   1.000000
   86       -3.421597   1.000000
   87       -3.417327   1.000000
   88       -3.333534   1.000000
   89       -3.260794   1.000000
   90       -3.257147   1.000000
   91       -3.225261   1.000000
   92       -3.107840   1.000000
   93       -3.085650   1.000000
   94       -3.048280   1.000000
   95       -2.811183   1.000000
   96       -2.744332   1.000000
   97       -2.689406   1.000000
   98       -2.643489   1.000000
   99       -2.534338   1.000000
  100       -2.509398   1.000000
  101       -2.342434   1.000000
  102       -2.266832   1.000000
  103       -2.262415   1.000000
  104       -2.154768   1.000000
  105       -2.099481   1.000000
  106       -2.062682   1.000000
  107       -1.996576   1.000000
  108       -1.949823   1.000000
  109       -1.830742   1.000000
  110       -1.767881   1.000000
  111       -1.763025   1.000000
  112       -1.700550   1.000000
  113       -1.631864   1.000000
  114       -1.592763   1.000000
  115       -1.575354   1.000000
  116       -1.476551   1.000000
  117       -1.457932   1.000000
  118       -1.386976   1.000000
  119       -1.252585   1.000000
  120       -1.199414   1.000000
  121       -1.154710   1.000000
  122       -1.089407   1.000000
  123       -0.971562   1.000000
  124       -0.879138   1.000000
  125       -0.731775   1.000000
  126       -0.614001   1.000000
  127       -0.568225   1.000000
  128       -0.455765   1.000000
  129       -0.235224   1.000000
  130       -0.213711   1.000000
  131       -0.106234   1.000000
  132       -0.070151   1.000000
  133        0.076337   1.000000
  134        0.265150   1.000267
  135        0.293581   1.001055
  136        0.337683   1.006129
  137        0.356409   1.011142
  138        0.391668   1.025849
  139        0.503507   0.823918
  140        0.596811   0.123562
  141        0.663102  -0.035043
  142        0.694139  -0.028317
  143        0.717957  -0.017551
  144        0.804487  -0.000773
  145        0.816858  -0.000426
  146        0.844521  -0.000099
  147        0.852381  -0.000064
  148        1.074593  -0.000000
  149        1.109717  -0.000000
  150        1.150012  -0.000000
  151        1.167716  -0.000000
  152        1.188340  -0.000000
  153        1.251109  -0.000000
  154        1.370000  -0.000000
  155        1.412216  -0.000000
  156        1.441180  -0.000000
  157        1.458322  -0.000000
  158        1.485280  -0.000000
  159        1.509002  -0.000000
  160        1.523001  -0.000000
  161        1.543139  -0.000000
  162        1.580959  -0.000000
  163        1.589328  -0.000000
  164        1.644937  -0.000000
  165        1.692294  -0.000000
  166        1.700141  -0.000000
  167        1.737896  -0.000000
  168        1.757235  -0.000000
  169        1.792371  -0.000000
  170        1.835641  -0.000000
  171        1.846459  -0.000000
  172        1.873210  -0.000000
  173        1.878346  -0.000000