 running on   72 total cores
 distrk:  each k-point on   72 cores,    1 groups
 distr:  one band on   12 cores,    6 groups
 using from now: INCAR     
 vasp.5.4.4.18Apr17-6-g9f103f2a35 (build Dec  7 2020 12:43:57) complex           
 POSCAR found type information on POSCAR  Mo V  B  H 
 POSCAR found :  4 types and      76 ions
 scaLAPACK will be used
 LDA part: xc-table for Pade appr. of Perdew
 POSCAR, INCAR and KPOINTS ok, starting setup
 resort distribution
 resort distribution
 resort distribution
 resort distribution
 resort distribution
 resort distribution
 resort distribution
 resort distribution
 resort distribution
 resort distribution
 resort distribution
 resort distribution
 resort distribution
 resort distribution
 resort distribution
 resort distribution
 resort distribution
 resort distribution
 resort distribution
 resort distribution
 resort distribution
 resort distribution
 resort distribution
 resort distribution
 resort distribution
 resort distribution
 resort distribution
 resort distribution
 resort distribution
 resort distribution
 resort distribution
 resort distribution
 resort distribution
 resort distribution
 resort distribution
 resort distribution
 resort distribution
 resort distribution
 resort distribution
 resort distribution
 resort distribution
 resort distribution
 resort distribution
 resort distribution
 resort distribution
 resort distribution
 resort distribution
 resort distribution
 resort distribution
 resort distribution
 resort distribution
 resort distribution
 resort distribution
 resort distribution
 resort distribution
 resort distribution
 resort distribution
 resort distribution
 resort distribution
 resort distribution
 resort distribution
 resort distribution
 resort distribution
 resort distribution
 resort distribution
 resort distribution
 resort distribution
 resort distribution
 resort distribution
 resort distribution
 resort distribution
 resort distribution
 FFT: planning ...
 WAVECAR not read
 augmentation electrons   280.02615375143870     
 soft         electrons   0.0000000000000000     
 augmentation electrons   280.02615375143870     
 soft         electrons   0.0000000000000000     
 augmentation electrons   280.02615375143870     
 soft         electrons   0.0000000000000000     
 augmentation electrons   280.02615375143870     
 soft         electrons   0.0000000000000000     
 augmentation electrons   280.02615375143870     
 soft         electrons   0.0000000000000000     
 augmentation electrons   280.02615375143870     
 soft         electrons   0.0000000000000000     
 augmentation electrons   280.02615375143870     
 soft         electrons   0.0000000000000000     
 augmentation electrons   280.02615375143870     
 soft         electrons   0.0000000000000000     
 augmentation electrons   280.02615375143870     
 soft         electrons   0.0000000000000000     
 augmentation electrons   280.02615375143870     
 soft         electrons   0.0000000000000000     
 augmentation electrons   280.02615375143870     
 soft         electrons   0.0000000000000000     
 augmentation electrons   280.02615375143870     
 soft         electrons   0.0000000000000000     
 augmentation electrons   280.02615375143870     
 soft         electrons   0.0000000000000000     
 augmentation electrons   280.02615375143870     
 soft         electrons   0.0000000000000000     
 augmentation electrons   280.02615375143870     
 soft         electrons   0.0000000000000000     
 augmentation electrons   280.02615375143870     
 soft         electrons   0.0000000000000000     
 augmentation electrons   280.02615375143870     
 soft         electrons   0.0000000000000000     
 augmentation electrons   280.02615375143870     
 soft         electrons   0.0000000000000000     
 augmentation electrons   280.02615375143870     
 soft         electrons   0.0000000000000000     
 augmentation electrons   280.02615375143870     
 soft         electrons   0.0000000000000000     
 augmentation electrons   280.02615375143870     
 soft         electrons   0.0000000000000000     
 augmentation electrons   280.02615375143870     
 soft         electrons   0.0000000000000000     
 augmentation electrons   280.02615375143870     
 soft         electrons   0.0000000000000000     
 augmentation electrons   280.02615375143870     
 soft         electrons   0.0000000000000000     
 augmentation electrons   280.02615375143870     
 soft         electrons   0.0000000000000000     
 augmentation electrons   280.02615375143870     
 soft         electrons   0.0000000000000000     
 augmentation electrons   280.02615375143870     
 soft         electrons   0.0000000000000000     
 augmentation electrons   280.02615375143870     
 soft         electrons   0.0000000000000000     
 augmentation electrons   280.02615375143870     
 soft         electrons   0.0000000000000000     
 augmentation electrons   280.02615375143870     
 soft         electrons   0.0000000000000000     
 augmentation electrons   280.02615375143870     
 soft         electrons   0.0000000000000000     
 augmentation electrons   280.02615375143870     
 soft         electrons   0.0000000000000000     
 augmentation electrons   280.02615375143870     
 soft         electrons   0.0000000000000000     
 augmentation electrons   280.02615375143870     
 soft         electrons   0.0000000000000000     
 augmentation electrons   280.02615375143870     
 soft         electrons   0.0000000000000000     
 augmentation electrons   280.02615375143870     
 soft         electrons   0.0000000000000000     
 augmentation electrons   280.02615375143870     
 soft         electrons   0.0000000000000000     
 augmentation electrons   280.02615375143870     
 soft         electrons   0.0000000000000000     
 augmentation electrons   280.02615375143870     
 soft         electrons   0.0000000000000000     
 augmentation electrons   280.02615375143870     
 soft         electrons   0.0000000000000000     
 augmentation electrons   280.02615375143870     
 soft         electrons   0.0000000000000000     
 augmentation electrons   280.02615375143870     
 soft         electrons   0.0000000000000000     
 augmentation electrons   280.02615375143870     
 soft         electrons   0.0000000000000000     
 augmentation electrons   280.02615375143870     
 soft         electrons   0.0000000000000000     
 augmentation electrons   280.02615375143870     
 soft         electrons   0.0000000000000000     
 augmentation electrons   280.02615375143870     
 soft         electrons   0.0000000000000000     
 augmentation electrons   280.02615375143870     
 soft         electrons   0.0000000000000000     
 augmentation electrons   280.02615375143870     
 soft         electrons   0.0000000000000000     
 augmentation electrons   280.02615375143870     
 soft         electrons   0.0000000000000000     
 augmentation electrons   280.02615375143870     
 soft         electrons   0.0000000000000000     
 augmentation electrons   280.02615375143870     
 soft         electrons   0.0000000000000000     
 augmentation electrons   280.02615375143870     
 soft         electrons   0.0000000000000000     
 augmentation electrons   280.02615375143870     
 soft         electrons   0.0000000000000000     
 augmentation electrons   280.02615375143870     
 soft         electrons   0.0000000000000000     
 augmentation electrons   280.02615375143870     
 soft         electrons   0.0000000000000000     
 augmentation electrons   280.02615375143870     
 soft         electrons   0.0000000000000000     
 augmentation electrons   280.02615375143870     
 soft         electrons   0.0000000000000000     
 augmentation electrons   280.02615375143870     
 soft         electrons   0.0000000000000000     
 augmentation electrons   280.02615375143870     
 soft         electrons   0.0000000000000000     
 augmentation electrons   280.02615375143870     
 soft         electrons   0.0000000000000000     
 augmentation electrons   280.02615375143870     
 soft         electrons   0.0000000000000000     
 augmentation electrons   280.02615375143870     
 soft         electrons   0.0000000000000000     
 augmentation electrons   280.02615375143870     
 soft         electrons   0.0000000000000000     
 augmentation electrons   280.02615375143870     
 soft         electrons   0.0000000000000000     
 augmentation electrons   280.02615375143870     
 soft         electrons   0.0000000000000000     
 augmentation electrons   280.02615375143870     
 soft         electrons   0.0000000000000000     
 augmentation electrons   280.02615375143870     
 soft         electrons   0.0000000000000000     
 augmentation electrons   280.02615375143870     
 soft         electrons   0.0000000000000000     
 augmentation electrons   280.02615375143870     
 soft         electrons   0.0000000000000000     
 augmentation electrons   280.02615375143870     
 soft         electrons   0.0000000000000000     
 augmentation electrons   280.02615375143870     
 soft         electrons   0.0000000000000000     
 augmentation electrons   280.02615375143870     
 soft         electrons   0.0000000000000000     
 total        electrons   280.02615375143870     
 total        electrons   280.02615375143870     
 total        electrons   280.02615375143870     
 total        electrons   280.02615375143870     
 total        electrons   280.02615375143870     
 total        electrons   280.02615375143870     
 total        electrons   280.02615375143870     
 total        electrons   280.02615375143870     
 total        electrons   280.02615375143870     
 total        electrons   280.02615375143870     
 total        electrons   280.02615375143870     
 total        electrons   280.02615375143870     
 total        electrons   280.02615375143870     
 total        electrons   280.02615375143870     
 total        electrons   280.02615375143870     
 total        electrons   280.02615375143870     
 total        electrons   280.02615375143870     
 total        electrons   280.02615375143870     
 total        electrons   280.02615375143870     
 total        electrons   280.02615375143870     
 total        electrons   280.02615375143870     
 total        electrons   280.02615375143870     
 total        electrons   280.02615375143870     
 total        electrons   280.02615375143870     
 total        electrons   280.02615375143870     
 total        electrons   280.02615375143870     
 total        electrons   280.02615375143870     
 total        electrons   280.02615375143870     
 total        electrons   280.02615375143870     
 total        electrons   280.02615375143870     
 total        electrons   280.02615375143870     
 total        electrons   280.02615375143870     
 total        electrons   280.02615375143870     
 total        electrons   280.02615375143870     
 total        electrons   280.02615375143870     
 total        electrons   280.02615375143870     
 total        electrons   280.02615375143870     
 total        electrons   280.02615375143870     
 total        electrons   280.02615375143870     
 total        electrons   280.02615375143870     
 total        electrons   280.02615375143870     
 total        electrons   280.02615375143870     
 total        electrons   280.02615375143870     
 total        electrons   280.02615375143870     
 total        electrons   280.02615375143870     
 total        electrons   280.02615375143870     
 total        electrons   280.02615375143870     
 total        electrons   280.02615375143870     
 total        electrons   280.02615375143870     
 total        electrons   280.02615375143870     
 total        electrons   280.02615375143870     
 total        electrons   280.02615375143870     
 total        electrons   280.02615375143870     
 total        electrons   280.02615375143870     
 total        electrons   280.02615375143870     
 total        electrons   280.02615375143870     
 total        electrons   280.02615375143870     
 total        electrons   280.02615375143870     
 total        electrons   280.02615375143870     
 total        electrons   280.02615375143870     
 total        electrons   280.02615375143870     
 total        electrons   280.02615375143870     
 total        electrons   280.02615375143870     
 total        electrons   280.02615375143870     
 total        electrons   280.02615375143870     
 total        electrons   280.02615375143870     
 total        electrons   280.02615375143870     
 total        electrons   280.02615375143870     
 total        electrons   280.02615375143870     
 total        electrons   280.02615375143870     
 total        electrons   280.02615375143870     
 total        electrons   280.02615375143870     
 augmentation electrons   864.17172981569820     
 soft         electrons   0.0000000000000000     
 total        electrons   864.17172981569820     
 augmentation electrons   864.17172981569820     
 soft         electrons   0.0000000000000000     
 total        electrons   864.17172981569820     
 augmentation electrons   864.17172981569820     
 soft         electrons   0.0000000000000000     
 total        electrons   864.17172981569820     
 augmentation electrons   864.17172981569820     
 soft         electrons   0.0000000000000000     
 total        electrons   864.17172981569820     
 augmentation electrons   864.17172981569820     
 soft         electrons   0.0000000000000000     
 augmentation electrons   864.17172981569820     
 soft         electrons   0.0000000000000000     
 total        electrons   864.17172981569820     
 augmentation electrons   864.17172981569820     
 soft         electrons   0.0000000000000000     
 total        electrons   864.17172981569820     
 augmentation electrons   864.17172981569820     
 soft         electrons   0.0000000000000000     
 total        electrons   864.17172981569820     
 augmentation electrons   864.17172981569820     
 soft         electrons   0.0000000000000000     
 total        electrons   864.17172981569820     
 augmentation electrons   864.17172981569820     
 soft         electrons   0.0000000000000000     
 total        electrons   864.17172981569820     
 augmentation electrons   864.17172981569820     
 soft         electrons   0.0000000000000000     
 augmentation electrons   864.17172981569820     
 soft         electrons   0.0000000000000000     
 total        electrons   864.17172981569820     
 augmentation electrons   864.17172981569820     
 soft         electrons   0.0000000000000000     
 total        electrons   864.17172981569820     
 augmentation electrons   864.17172981569820     
 soft         electrons   0.0000000000000000     
 total        electrons   864.17172981569820     
 augmentation electrons   864.17172981569820     
 soft         electrons   0.0000000000000000     
 total        electrons   864.17172981569820     
 augmentation electrons   864.17172981569820     
 soft         electrons   0.0000000000000000     
 total        electrons   864.17172981569820     
 augmentation electrons   864.17172981569820     
 soft         electrons   0.0000000000000000     
 total        electrons   864.17172981569820     
 augmentation electrons   864.17172981569820     
 soft         electrons   0.0000000000000000     
 total        electrons   864.17172981569820     
 augmentation electrons   864.17172981569820     
 soft         electrons   0.0000000000000000     
 total        electrons   864.17172981569820     
 augmentation electrons   864.17172981569820     
 soft         electrons   0.0000000000000000     
 total        electrons   864.17172981569820     
 augmentation electrons   864.17172981569820     
 soft         electrons   0.0000000000000000     
 total        electrons   864.17172981569820     
 augmentation electrons   864.17172981569820     
 soft         electrons   0.0000000000000000     
 total        electrons   864.17172981569820     
 augmentation electrons   864.17172981569820     
 soft         electrons   0.0000000000000000     
 total        electrons   864.17172981569820     
 augmentation electrons   864.17172981569820     
 soft         electrons   0.0000000000000000     
 total        electrons   864.17172981569820     
 augmentation electrons   864.17172981569820     
 soft         electrons   0.0000000000000000     
 total        electrons   864.17172981569820     
 augmentation electrons   864.17172981569820     
 soft         electrons   0.0000000000000000     
 total        electrons   864.17172981569820     
 augmentation electrons   864.17172981569820     
 soft         electrons   0.0000000000000000     
 total        electrons   864.17172981569820     
 augmentation electrons   864.17172981569820     
 soft         electrons   0.0000000000000000     
 total        electrons   864.17172981569820     
 augmentation electrons   864.17172981569820     
 soft         electrons   0.0000000000000000     
 total        electrons   864.17172981569820     
 augmentation electrons   864.17172981569820     
 soft         electrons   0.0000000000000000     
 total        electrons   864.17172981569820     
 augmentation electrons   864.17172981569820     
 soft         electrons   0.0000000000000000     
 total        electrons   864.17172981569820     
 augmentation electrons   864.17172981569820     
 soft         electrons   0.0000000000000000     
 total        electrons   864.17172981569820     
 augmentation electrons   864.17172981569820     
 soft         electrons   0.0000000000000000     
 total        electrons   864.17172981569820     
 augmentation electrons   864.17172981569820     
 soft         electrons   0.0000000000000000     
 total        electrons   864.17172981569820     
 augmentation electrons   864.17172981569820     
 soft         electrons   0.0000000000000000     
 total        electrons   864.17172981569820     
 augmentation electrons   864.17172981569820     
 soft         electrons   0.0000000000000000     
 total        electrons   864.17172981569820     
 augmentation electrons   864.17172981569820     
 soft         electrons   0.0000000000000000     
 total        electrons   864.17172981569820     
 augmentation electrons   864.17172981569820     
 soft         electrons   0.0000000000000000     
 total        electrons   864.17172981569820     
 augmentation electrons   864.17172981569820     
 soft         electrons   0.0000000000000000     
 total        electrons   864.17172981569820     
 augmentation electrons   864.17172981569820     
 soft         electrons   0.0000000000000000     
 total        electrons   864.17172981569820     
 augmentation electrons   864.17172981569820     
 soft         electrons   0.0000000000000000     
 total        electrons   864.17172981569820     
 augmentation electrons   864.17172981569820     
 soft         electrons   0.0000000000000000     
 total        electrons   864.17172981569820     
 augmentation electrons   864.17172981569820     
 soft         electrons   0.0000000000000000     
 total        electrons   864.17172981569820     
 augmentation electrons   864.17172981569820     
 soft         electrons   0.0000000000000000     
 total        electrons   864.17172981569820     
 augmentation electrons   864.17172981569820     
 soft         electrons   0.0000000000000000     
 total        electrons   864.17172981569820     
 augmentation electrons   864.17172981569820     
 soft         electrons   0.0000000000000000     
 total        electrons   864.17172981569820     
 augmentation electrons   864.17172981569820     
 soft         electrons   0.0000000000000000     
 total        electrons   864.17172981569820     
 augmentation electrons   864.17172981569820     
 soft         electrons   0.0000000000000000     
 augmentation electrons   864.17172981569820     
 soft         electrons   0.0000000000000000     
 total        electrons   864.17172981569820     
 augmentation electrons   864.17172981569820     
 soft         electrons   0.0000000000000000     
 total        electrons   864.17172981569820     
 augmentation electrons   864.17172981569820     
 soft         electrons   0.0000000000000000     
 total        electrons   864.17172981569820     
 augmentation electrons   864.17172981569820     
 soft         electrons   0.0000000000000000     
 total        electrons   864.17172981569820     
 augmentation electrons   864.17172981569820     
 soft         electrons   0.0000000000000000     
 total        electrons   864.17172981569820     
 augmentation electrons   864.17172981569820     
 soft         electrons   0.0000000000000000     
 total        electrons   864.17172981569820     
 augmentation electrons   864.17172981569820     
 soft         electrons   0.0000000000000000     
 total        electrons   864.17172981569820     
 augmentation electrons   864.17172981569820     
 soft         electrons   0.0000000000000000     
 total        electrons   864.17172981569820     
 augmentation electrons   864.17172981569820     
 soft         electrons   0.0000000000000000     
 total        electrons   864.17172981569820     
 augmentation electrons   864.17172981569820     
 soft         electrons   0.0000000000000000     
 total        electrons   864.17172981569820     
 augmentation electrons   864.17172981569820     
 soft         electrons   0.0000000000000000     
 total        electrons   864.17172981569820     
 augmentation electrons   864.17172981569820     
 soft         electrons   0.0000000000000000     
 total        electrons   864.17172981569820     
 augmentation electrons   864.17172981569820     
 soft         electrons   0.0000000000000000     
 total        electrons   864.17172981569820     
 augmentation electrons   864.17172981569820     
 soft         electrons   0.0000000000000000     
 total        electrons   864.17172981569820     
 augmentation electrons   864.17172981569820     
 soft         electrons   0.0000000000000000     
 augmentation electrons   864.17172981569820     
 soft         electrons   0.0000000000000000     
 total        electrons   864.17172981569820     
 augmentation electrons   864.17172981569820     
 soft         electrons   0.0000000000000000     
 total        electrons   864.17172981569820     
 augmentation electrons   864.17172981569820     
 soft         electrons   0.0000000000000000     
 total        electrons   864.17172981569820     
 augmentation electrons   864.17172981569820     
 soft         electrons   0.0000000000000000     
 total        electrons   864.17172981569820     
 augmentation electrons   864.17172981569820     
 soft         electrons   0.0000000000000000     
 total        electrons   864.17172981569820     
 augmentation electrons   864.17172981569820     
 soft         electrons   0.0000000000000000     
 total        electrons   864.17172981569820     
 augmentation electrons   864.17172981569820     
 soft         electrons   0.0000000000000000     
 total        electrons   864.17172981569820     
 augmentation electrons   864.17172981569820     
 soft         electrons   0.0000000000000000     
 total        electrons   864.17172981569820     
 augmentation electrons   864.17172981569820     
 soft         electrons   0.0000000000000000     
 total        electrons   864.17172981569820     
 total        electrons   864.17172981569820     
 total        electrons   864.17172981569820     
 total        electrons   864.17172981569820     
 total        electrons   864.17172981569820     
 entering main loop
       N       E                     dE             d eps       ncg     rms          rms(c)
DAV:   1     0.307225912441E+04    0.30723E+04   -0.96468E+04  8280   0.131E+03
DAV:   2     0.578191958874E+02   -0.30144E+04   -0.27970E+04  8916   0.340E+02
DAV:   3    -0.646531122642E+03   -0.70435E+03   -0.68029E+03 12204   0.197E+02
DAV:   4    -0.710437900923E+03   -0.63907E+02   -0.61536E+02 13584   0.661E+01
DAV:   5    -0.713883613789E+03   -0.34457E+01   -0.32892E+01 13872   0.155E+01    0.142E+02
RMM:   6    -0.654995334924E+03    0.58888E+02   -0.14686E+03  9895   0.115E+02    0.726E+01
RMM:   7    -0.691313991853E+03   -0.36319E+02   -0.78634E+02 10001   0.989E+01    0.533E+01
RMM:   8    -0.615911032397E+03    0.75403E+02   -0.10934E+02  8879   0.366E+01    0.306E+01
RMM:   9    -0.608498561381E+03    0.74125E+01   -0.55391E+01  8676   0.260E+01    0.266E+01
RMM:  10    -0.592652355707E+03    0.15846E+02   -0.23878E+01 10367   0.120E+01    0.180E+01
RMM:  11    -0.592190465921E+03    0.46189E+00   -0.57608E+00  9590   0.618E+00    0.160E+01
RMM:  12    -0.592261374802E+03   -0.70909E-01   -0.18718E+00 10955   0.262E+00    0.145E+01
RMM:  13    -0.591285824397E+03    0.97555E+00   -0.17423E+00  9067   0.426E+00    0.108E+01
RMM:  14    -0.591474999105E+03   -0.18917E+00   -0.49295E+00  9204   0.640E+00    0.867E+00
RMM:  15    -0.590704969755E+03    0.77003E+00   -0.23541E+00  8468   0.515E+00    0.338E+00
RMM:  16    -0.590684010136E+03    0.20960E-01   -0.93205E-01 10435   0.199E+00    0.226E+00
RMM:  17    -0.590687643509E+03   -0.36334E-02   -0.32728E-01  8880   0.162E+00    0.226E+00
RMM:  18    -0.590634785520E+03    0.52858E-01   -0.17506E-01  9103   0.120E+00    0.123E+00
RMM:  19    -0.590629616764E+03    0.51688E-02   -0.13595E-01  9795   0.813E-01    0.114E+00
RMM:  20    -0.590616483821E+03    0.13133E-01   -0.58556E-02  9556   0.664E-01    0.658E-01
RMM:  21    -0.590619158984E+03   -0.26752E-02   -0.49946E-02 10733   0.413E-01    0.809E-01
RMM:  22    -0.590615492767E+03    0.36662E-02   -0.14627E-02  9016   0.331E-01    0.525E-01
RMM:  23    -0.590615493486E+03   -0.71958E-06   -0.97828E-03  9844   0.215E-01    0.258E-01
RMM:  24    -0.590616257713E+03   -0.76423E-03   -0.45112E-03  9626   0.184E-01    0.205E-01
RMM:  25    -0.590617134809E+03   -0.87710E-03   -0.31060E-03 10922   0.125E-01    0.167E-01
RMM:  26    -0.590617839760E+03   -0.70495E-03   -0.12046E-03 10983   0.627E-02    0.104E-01
RMM:  27    -0.590619058228E+03   -0.12185E-02   -0.12426E-03 10143   0.884E-02    0.117E-01
RMM:  28    -0.590619791609E+03   -0.73338E-03   -0.75194E-04 10140   0.699E-02    0.105E-01
RMM:  29    -0.590620362278E+03   -0.57067E-03   -0.39944E-04  9874   0.499E-02    0.504E-02
RMM:  30    -0.590620769661E+03   -0.40738E-03   -0.24986E-04 10912   0.293E-02    0.362E-02
RMM:  31    -0.590620891118E+03   -0.12146E-03   -0.69451E-05  8841   0.237E-02    0.267E-02
RMM:  32    -0.590621097156E+03   -0.20604E-03   -0.10850E-04 10199   0.210E-02    0.214E-02
RMM:  33    -0.590621222883E+03   -0.12573E-03   -0.37006E-05  9100   0.154E-02    0.107E-02
RMM:  34    -0.590621315609E+03   -0.92726E-04   -0.20505E-05  7342   0.982E-03    0.123E-02
RMM:  35    -0.590621424543E+03   -0.10893E-03   -0.10709E-05  6682   0.869E-03    0.664E-03
RMM:  36    -0.590621532326E+03   -0.10778E-03   -0.95355E-06  6702   0.660E-03    0.996E-03
RMM:  37    -0.590621608639E+03   -0.76312E-04   -0.52968E-06  6037   0.654E-03    0.827E-03
RMM:  38    -0.590621706914E+03   -0.98275E-04   -0.70909E-06  6383   0.628E-03    0.547E-03
RMM:  39    -0.590621785796E+03   -0.78882E-04   -0.62864E-06  6193   0.651E-03    0.579E-03
RMM:  40    -0.590621839923E+03   -0.54126E-04   -0.46162E-06  5894   0.392E-03    0.285E-03
RMM:  41    -0.590621872080E+03   -0.32157E-04   -0.32501E-06  5597   0.285E-03    0.156E-03
RMM:  42    -0.590621883542E+03   -0.11462E-04   -0.10609E-06  5084   0.265E-03    0.116E-03
RMM:  43    -0.590621896613E+03   -0.13071E-04   -0.12407E-06  4821   0.174E-03    0.169E-03
RMM:  44    -0.590621901823E+03   -0.52095E-05   -0.59124E-07  4657   0.197E-03    0.910E-04
RMM:  45    -0.590621904589E+03   -0.27660E-05   -0.45130E-07  4690   0.157E-03    0.809E-04
RMM:  46    -0.590621905442E+03   -0.85371E-06   -0.21053E-07  4432   0.143E-03
   1 F= -.59062191E+03 E0= -.59062373E+03  d E =-.590622E+03
 curvature:   0.00 expect dE= 0.000E+00 dE for cont linesearch  0.000E+00
 trial: gam= 0.00000 g(F)=  0.236E-03 g(S)=  0.000E+00 ort = 0.000E+00 (trialstep = 0.100E+01)
 search vector abs. value=  0.236E-03
 bond charge predicted
       N       E                     dE             d eps       ncg     rms          rms(c)
DAV:   1    -0.590622086665E+03   -0.18208E-03   -0.37383E-03  9168   0.122E-01    0.154E-02
RMM:   2    -0.590622094763E+03   -0.80977E-05   -0.92555E-05  9293   0.239E-02    0.137E-02
RMM:   3    -0.590622103219E+03   -0.84563E-05   -0.19513E-05  8264   0.136E-02    0.266E-02
RMM:   4    -0.590622096111E+03    0.71081E-05   -0.11536E-05  7044   0.123E-02    0.131E-02
RMM:   5    -0.590622094124E+03    0.19874E-05   -0.44019E-06  6068   0.916E-03    0.589E-03
RMM:   6    -0.590622094197E+03   -0.73669E-07   -0.25602E-06  5571   0.625E-03
   2 F= -.59062209E+03 E0= -.59062391E+03  d E =-.188755E-03
 trial-energy change:   -0.000189  1 .order   -0.000188   -0.000236   -0.000140
 step:   2.4475(harm=  2.4475)  dis= 0.00404  next Energy=  -590.622194 (dE=-0.289E-03)
 bond charge predicted
       N       E                     dE             d eps       ncg     rms          rms(c)
DAV:   1    -0.590622178582E+03   -0.84458E-04   -0.78005E-03  8856   0.178E-01    0.227E-02
RMM:   2    -0.590622196980E+03   -0.18398E-04   -0.19706E-04  9048   0.385E-02    0.227E-02
RMM:   3    -0.590622210306E+03   -0.13326E-04   -0.50540E-05  9152   0.220E-02    0.354E-02
RMM:   4    -0.590622206160E+03    0.41459E-05   -0.27604E-05  8426   0.160E-02    0.292E-02
RMM:   5    -0.590622196151E+03    0.10009E-04   -0.13705E-05  6978   0.136E-02    0.118E-02
RMM:   6    -0.590622195718E+03    0.43279E-06   -0.77725E-06  6493   0.950E-03
   3 F= -.59062220E+03 E0= -.59062401E+03  d E =-.290276E-03
 curvature:  -1.22 expect dE=-0.133E-03 dE for cont linesearch -0.493E-08
 trial: gam= 0.46591 g(F)=  0.109E-03 g(S)=  0.000E+00 ort =-0.976E-06 (trialstep = 0.129E+01)
 search vector abs. value=  0.159E-03
 bond charge predicted
       N       E                     dE             d eps       ncg     rms          rms(c)
DAV:   1    -0.590622320172E+03   -0.12402E-03   -0.40548E-03  9096   0.129E-01    0.144E-02
RMM:   2    -0.590622332589E+03   -0.12417E-04   -0.87565E-05  9064   0.297E-02    0.230E-02
RMM:   3    -0.590622328348E+03    0.42416E-05   -0.22269E-05  8182   0.170E-02    0.129E-02
RMM:   4    -0.590622330006E+03   -0.16581E-05   -0.11284E-05  6785   0.104E-02    0.148E-02
RMM:   5    -0.590622330185E+03   -0.17958E-06   -0.45003E-06  5934   0.848E-03
   4 F= -.59062233E+03 E0= -.59062414E+03  d E =-.134468E-03
 ZBRENT: can't locate minimum, use default step
 trial-energy change:   -0.000134  1 .order   -0.000132   -0.000140   -0.000125
 step:   5.1580(harm= 11.6809)  dis= 0.00029  next Energy=  -590.622830 (dE=-0.634E-03)
 bond charge predicted
       N       E                     dE             d eps       ncg     rms          rms(c)
DAV:   1    -0.590622572650E+03   -0.24264E-03   -0.36530E-02  8808   0.383E-01    0.400E-02
RMM:   2    -0.590622654424E+03   -0.81774E-04   -0.55456E-04  9494   0.724E-02    0.539E-02
RMM:   3    -0.590622655089E+03   -0.66549E-06   -0.14751E-04  9999   0.365E-02    0.466E-02
RMM:   4    -0.590622680917E+03   -0.25827E-04   -0.10202E-04  8830   0.285E-02    0.629E-02
RMM:   5    -0.590622638109E+03    0.42808E-04   -0.45336E-05  8079   0.243E-02    0.158E-02
RMM:   6    -0.590622640448E+03   -0.23397E-05   -0.25354E-05  7931   0.161E-02    0.175E-02
RMM:   7    -0.590622636909E+03    0.35398E-05   -0.85977E-06  6452   0.107E-02    0.601E-03
RMM:   8    -0.590622636591E+03    0.31745E-06   -0.27726E-06  5581   0.509E-03
   5 F= -.59062264E+03 E0= -.59062444E+03  d E =-.440873E-03
 curvature:  -5.19 expect dE=-0.189E-03 dE for cont linesearch -0.123E-03
 trial: gam=-0.24327 g(F)=  0.363E-04 g(S)=  0.000E+00 ort = 0.614E-04 (trialstep = 0.206E+01)
 search vector abs. value=  0.159E-04
 reached required accuracy - stopping structural energy minimisation
 augmentation electrons   35.727545785485589     
 soft         electrons   244.36776416215238     
 augmentation electrons   35.727545785485589     
 soft         electrons   244.36776416215238     
 augmentation electrons   35.727545785485589     
 soft         electrons   244.36776416215238     
 augmentation electrons   35.727545785485589     
 soft         electrons   244.36776416215238     
 augmentation electrons   35.727545785485589     
 soft         electrons   244.36776416215238     
 augmentation electrons   35.727545785485589     
 soft         electrons   244.36776416215238     
 augmentation electrons   35.727545785485589     
 soft         electrons   244.36776416215238     
 augmentation electrons   35.727545785485589     
 soft         electrons   244.36776416215238     
 augmentation electrons   35.727545785485589     
 soft         electrons   244.36776416215238     
 augmentation electrons   35.727545785485589     
 soft         electrons   244.36776416215238     
 augmentation electrons   35.727545785485589     
 soft         electrons   244.36776416215238     
 augmentation electrons   35.727545785485589     
 soft         electrons   244.36776416215238     
 augmentation electrons   35.727545785485589     
 soft         electrons   244.36776416215238     
 augmentation electrons   35.727545785485589     
 soft         electrons   244.36776416215238     
 augmentation electrons   35.727545785485589     
 soft         electrons   244.36776416215238     
 augmentation electrons   35.727545785485589     
 soft         electrons   244.36776416215238     
 augmentation electrons   35.727545785485589     
 soft         electrons   244.36776416215238     
 augmentation electrons   35.727545785485589     
 soft         electrons   244.36776416215238     
 augmentation electrons   35.727545785485589     
 soft         electrons   244.36776416215238     
 augmentation electrons   35.727545785485589     
 soft         electrons   244.36776416215238     
 augmentation electrons   35.727545785485589     
 soft         electrons   244.36776416215238     
 augmentation electrons   35.727545785485589     
 soft         electrons   244.36776416215238     
 augmentation electrons   35.727545785485589     
 soft         electrons   244.36776416215238     
 augmentation electrons   35.727545785485589     
 soft         electrons   244.36776416215238     
 augmentation electrons   35.727545785485589     
 soft         electrons   244.36776416215238     
 augmentation electrons   35.727545785485589     
 soft         electrons   244.36776416215238     
 augmentation electrons   35.727545785485589     
 soft         electrons   244.36776416215238     
 augmentation electrons   35.727545785485589     
 soft         electrons   244.36776416215238     
 augmentation electrons   35.727545785485589     
 soft         electrons   244.36776416215238     
 augmentation electrons   35.727545785485589     
 soft         electrons   244.36776416215238     
 augmentation electrons   35.727545785485589     
 soft         electrons   244.36776416215238     
 augmentation electrons   35.727545785485589     
 soft         electrons   244.36776416215238     
 augmentation electrons   35.727545785485589     
 soft         electrons   244.36776416215238     
 augmentation electrons   35.727545785485589     
 soft         electrons   244.36776416215238     
 augmentation electrons   35.727545785485589     
 soft         electrons   244.36776416215238     
 augmentation electrons   35.727545785485589     
 soft         electrons   244.36776416215238     
 augmentation electrons   35.727545785485589     
 soft         electrons   244.36776416215238     
 augmentation electrons   35.727545785485589     
 soft         electrons   244.36776416215238     
 augmentation electrons   35.727545785485589     
 soft         electrons   244.36776416215238     
 augmentation electrons   35.727545785485589     
 soft         electrons   244.36776416215238     
 augmentation electrons   35.727545785485589     
 soft         electrons   244.36776416215238     
 augmentation electrons   35.727545785485589     
 soft         electrons   244.36776416215238     
 augmentation electrons   35.727545785485589     
 soft         electrons   244.36776416215238     
 augmentation electrons   35.727545785485589     
 soft         electrons   244.36776416215238     
 augmentation electrons   35.727545785485589     
 soft         electrons   244.36776416215238     
 augmentation electrons   35.727545785485589     
 soft         electrons   244.36776416215238     
 augmentation electrons   35.727545785485589     
 soft         electrons   244.36776416215238     
 augmentation electrons   35.727545785485589     
 soft         electrons   244.36776416215238     
 augmentation electrons   35.727545785485589     
 soft         electrons   244.36776416215238     
 augmentation electrons   35.727545785485589     
 soft         electrons   244.36776416215238     
 augmentation electrons   35.727545785485589     
 soft         electrons   244.36776416215238     
 augmentation electrons   35.727545785485589     
 soft         electrons   244.36776416215238     
 augmentation electrons   35.727545785485589     
 soft         electrons   244.36776416215238     
 augmentation electrons   35.727545785485589     
 soft         electrons   244.36776416215238     
 augmentation electrons   35.727545785485589     
 soft         electrons   244.36776416215238     
 augmentation electrons   35.727545785485589     
 soft         electrons   244.36776416215238     
 augmentation electrons   35.727545785485589     
 soft         electrons   244.36776416215238     
 augmentation electrons   35.727545785485589     
 soft         electrons   244.36776416215238     
 augmentation electrons   35.727545785485589     
 soft         electrons   244.36776416215238     
 augmentation electrons   35.727545785485589     
 soft         electrons   244.36776416215238     
 augmentation electrons   35.727545785485589     
 soft         electrons   244.36776416215238     
 augmentation electrons   35.727545785485589     
 soft         electrons   244.36776416215238     
 augmentation electrons   35.727545785485589     
 soft         electrons   244.36776416215238     
 augmentation electrons   35.727545785485589     
 soft         electrons   244.36776416215238     
 augmentation electrons   35.727545785485589     
 soft         electrons   244.36776416215238     
 augmentation electrons   35.727545785485589     
 soft         electrons   244.36776416215238     
 augmentation electrons   35.727545785485589     
 soft         electrons   244.36776416215238     
 augmentation electrons   35.727545785485589     
 soft         electrons   244.36776416215238     
 augmentation electrons   35.727545785485589     
 soft         electrons   244.36776416215238     
 augmentation electrons   35.727545785485589     
 soft         electrons   244.36776416215238     
 augmentation electrons   35.727545785485589     
 soft         electrons   244.36776416215238     
 augmentation electrons   35.727545785485589     
 soft         electrons   244.36776416215238     
 total        electrons   280.09530994763799     
 total        electrons   280.09530994763799     
 total        electrons   280.09530994763799     
 total        electrons   280.09530994763799     
 total        electrons   280.09530994763799     
 total        electrons   280.09530994763799     
 total        electrons   280.09530994763799     
 total        electrons   280.09530994763799     
 total        electrons   280.09530994763799     
 total        electrons   280.09530994763799     
 total        electrons   280.09530994763799     
 total        electrons   280.09530994763799     
 total        electrons   280.09530994763799     
 total        electrons   280.09530994763799     
 total        electrons   280.09530994763799     
 total        electrons   280.09530994763799     
 total        electrons   280.09530994763799     
 total        electrons   280.09530994763799     
 total        electrons   280.09530994763799     
 total        electrons   280.09530994763799     
 total        electrons   280.09530994763799     
 total        electrons   280.09530994763799     
 total        electrons   280.09530994763799     
 total        electrons   280.09530994763799     
 total        electrons   280.09530994763799     
 total        electrons   280.09530994763799     
 total        electrons   280.09530994763799     
 total        electrons   280.09530994763799     
 total        electrons   280.09530994763799     
 total        electrons   280.09530994763799     
 total        electrons   280.09530994763799     
 total        electrons   280.09530994763799     
 total        electrons   280.09530994763799     
 total        electrons   280.09530994763799     
 total        electrons   280.09530994763799     
 total        electrons   280.09530994763799     
 total        electrons   280.09530994763799     
 total        electrons   280.09530994763799     
 total        electrons   280.09530994763799     
 total        electrons   280.09530994763799     
 total        electrons   280.09530994763799     
 total        electrons   280.09530994763799     
 total        electrons   280.09530994763799     
 total        electrons   280.09530994763799     
 total        electrons   280.09530994763799     
 total        electrons   280.09530994763799     
 total        electrons   280.09530994763799     
 total        electrons   280.09530994763799     
 total        electrons   280.09530994763799     
 total        electrons   280.09530994763799     
 total        electrons   280.09530994763799     
 total        electrons   280.09530994763799     
 total        electrons   280.09530994763799     
 total        electrons   280.09530994763799     
 total        electrons   280.09530994763799     
 total        electrons   280.09530994763799     
 total        electrons   280.09530994763799     
 total        electrons   280.09530994763799     
 total        electrons   280.09530994763799     
 total        electrons   280.09530994763799     
 total        electrons   280.09530994763799     
 total        electrons   280.09530994763799     
 total        electrons   280.09530994763799     
 total        electrons   280.09530994763799     
 total        electrons   280.09530994763799     
 total        electrons   280.09530994763799     
 total        electrons   280.09530994763799     
 total        electrons   280.09530994763799     
 total        electrons   280.09530994763799     
 total        electrons   280.09530994763799     
 total        electrons   280.09530994763799     
 total        electrons   280.09530994763799     
Note: The following floating-point exceptions are signalling: IEEE_OVERFLOW_FLAG
Note: The following floating-point exceptions are signalling: IEEE_OVERFLOW_FLAG
Note: The following floating-point exceptions are signalling: IEEE_OVERFLOW_FLAG
Note: The following floating-point exceptions are signalling: IEEE_OVERFLOW_FLAG
Note: The following floating-point exceptions are signalling: IEEE_OVERFLOW_FLAG
Note: The following floating-point exceptions are signalling: IEEE_OVERFLOW_FLAG
Note: The following floating-point exceptions are signalling: IEEE_OVERFLOW_FLAG
Note: The following floating-point exceptions are signalling: IEEE_OVERFLOW_FLAG
Note: The following floating-point exceptions are signalling: IEEE_OVERFLOW_FLAG
Note: The following floating-point exceptions are signalling: IEEE_OVERFLOW_FLAG
Note: The following floating-point exceptions are signalling: IEEE_OVERFLOW_FLAG
Note: The following floating-point exceptions are signalling: IEEE_OVERFLOW_FLAG
Note: The following floating-point exceptions are signalling: IEEE_OVERFLOW_FLAG
Note: The following floating-point exceptions are signalling: IEEE_OVERFLOW_FLAG
Note: The following floating-point exceptions are signalling: IEEE_OVERFLOW_FLAG
Note: The following floating-point exceptions are signalling: IEEE_OVERFLOW_FLAG
Note: The following floating-point exceptions are signalling: IEEE_OVERFLOW_FLAG
Note: The following floating-point exceptions are signalling: IEEE_OVERFLOW_FLAG
Note: The following floating-point exceptions are signalling: IEEE_OVERFLOW_FLAG
Note: The following floating-point exceptions are signalling: IEEE_OVERFLOW_FLAG
Note: The following floating-point exceptions are signalling: IEEE_OVERFLOW_FLAG
Note: The following floating-point exceptions are signalling: IEEE_OVERFLOW_FLAG
Note: The following floating-point exceptions are signalling: IEEE_OVERFLOW_FLAG
Note: The following floating-point exceptions are signalling: IEEE_OVERFLOW_FLAG
Note: The following floating-point exceptions are signalling: IEEE_OVERFLOW_FLAG
Note: The following floating-point exceptions are signalling: IEEE_OVERFLOW_FLAG
Note: The following floating-point exceptions are signalling: IEEE_OVERFLOW_FLAG
Note: The following floating-point exceptions are signalling: IEEE_OVERFLOW_FLAG
Note: The following floating-point exceptions are signalling: IEEE_OVERFLOW_FLAG
Note: The following floating-point exceptions are signalling: IEEE_OVERFLOW_FLAG
Note: The following floating-point exceptions are signalling: IEEE_OVERFLOW_FLAG
Note: The following floating-point exceptions are signalling: IEEE_OVERFLOW_FLAG
Note: The following floating-point exceptions are signalling: IEEE_OVERFLOW_FLAG
Note: The following floating-point exceptions are signalling: IEEE_OVERFLOW_FLAG
Note: The following floating-point exceptions are signalling: IEEE_OVERFLOW_FLAG
Note: The following floating-point exceptions are signalling: IEEE_OVERFLOW_FLAG
Note: The following floating-point exceptions are signalling: IEEE_OVERFLOW_FLAG
Note: The following floating-point exceptions are signalling: IEEE_OVERFLOW_FLAG
Note: The following floating-point exceptions are signalling: IEEE_OVERFLOW_FLAG
Note: The following floating-point exceptions are signalling: IEEE_OVERFLOW_FLAG
Note: The following floating-point exceptions are signalling: IEEE_OVERFLOW_FLAG
Note: The following floating-point exceptions are signalling: IEEE_OVERFLOW_FLAG
Note: The following floating-point exceptions are signalling: IEEE_OVERFLOW_FLAG
Note: The following floating-point exceptions are signalling: IEEE_OVERFLOW_FLAG
Note: The following floating-point exceptions are signalling: IEEE_OVERFLOW_FLAG
Note: The following floating-point exceptions are signalling: IEEE_OVERFLOW_FLAG
Note: The following floating-point exceptions are signalling: IEEE_OVERFLOW_FLAG
Note: The following floating-point exceptions are signalling: IEEE_OVERFLOW_FLAG
Note: The following floating-point exceptions are signalling: IEEE_OVERFLOW_FLAG
Note: The following floating-point exceptions are signalling: IEEE_OVERFLOW_FLAG
Note: The following floating-point exceptions are signalling: IEEE_OVERFLOW_FLAG
Note: The following floating-point exceptions are signalling: IEEE_OVERFLOW_FLAG
Note: The following floating-point exceptions are signalling: IEEE_OVERFLOW_FLAG
Note: The following floating-point exceptions are signalling: IEEE_OVERFLOW_FLAG
Note: The following floating-point exceptions are signalling: IEEE_OVERFLOW_FLAG
Note: The following floating-point exceptions are signalling: IEEE_OVERFLOW_FLAG
Note: The following floating-point exceptions are signalling: IEEE_OVERFLOW_FLAG
Note: The following floating-point exceptions are signalling: IEEE_OVERFLOW_FLAG
Note: The following floating-point exceptions are signalling: IEEE_OVERFLOW_FLAG
Note: The following floating-point exceptions are signalling: IEEE_OVERFLOW_FLAG
Note: The following floating-point exceptions are signalling: IEEE_OVERFLOW_FLAG
Note: The following floating-point exceptions are signalling: IEEE_OVERFLOW_FLAG
Note: The following floating-point exceptions are signalling: IEEE_OVERFLOW_FLAG
Note: The following floating-point exceptions are signalling: IEEE_OVERFLOW_FLAG
Note: The following floating-point exceptions are signalling: IEEE_OVERFLOW_FLAG
Note: The following floating-point exceptions are signalling: IEEE_OVERFLOW_FLAG
Note: The following floating-point exceptions are signalling: IEEE_OVERFLOW_FLAG
Note: The following floating-point exceptions are signalling: IEEE_OVERFLOW_FLAG
Note: The following floating-point exceptions are signalling: IEEE_OVERFLOW_FLAG
Note: The following floating-point exceptions are signalling: IEEE_OVERFLOW_FLAG
Note: The following floating-point exceptions are signalling: IEEE_OVERFLOW_FLAG
Note: The following floating-point exceptions are signalling: IEEE_OVERFLOW_FLAG
