ESCALE ; pCOHP file generated by LOBSTER. Energy is shifted such that the Fermi level lies at 0 eV.
       229          1        501  -6.99727e+00   1.80528e+01   9.03479e+00 
Average
No.1:Mo3->Mo1(3.0357504457927496)
No.2:Mo3->Mo1(3.035750562143809)
No.3:Mo5->Mo1(3.0357505036452963)
No.4:Mo5->Mo1(3.0357505043445192)
No.5:V7->Mo1(3.2329158511228555)
No.6:V7->Mo1(3.2329158516519292)
No.7:V8->Mo1(3.036809160764927)
No.8:V8->Mo1(3.0368092912624487)
No.9:B9->Mo1(2.3809794277815737)
No.10:B10->Mo1(2.3809793415685219)
No.11:B11->Mo1(2.3929951488124273)
No.12:B12->Mo1(2.3929950616965652)
No.13:B15->Mo1(2.3809795020127384)
No.14:B16->Mo1(2.3809794157996893)
No.15:B17->Mo1(2.3809792891514356)
No.16:B18->Mo1(2.3809792029383789)
No.17:B21->Mo1(2.3929955559719427)
No.18:B22->Mo1(2.3929954688560948)
No.19:B23->Mo1(2.3809797082661603)
No.20:B24->Mo1(2.3809796220531187)
No.21:Mo3->Mo2(3.2329158516519292)
No.22:Mo3->Mo2(3.2329158511228555)
No.23:Mo4->Mo2(3.0368092914123284)
No.24:Mo4->Mo2(3.0368091606150474)
No.25:Mo6->Mo2(3.0357505046441733)
No.26:Mo6->Mo2(3.0357505033456418)
No.27:V7->Mo2(3.035750562143809)
No.28:V7->Mo2(3.0357504457927496)
No.29:B9->Mo2(2.391422189618654)
No.30:B10->Mo2(2.3914222750976162)
No.31:B11->Mo2(2.3718370744592709)
No.32:B12->Mo2(2.3718371593020589)
No.33:B13->Mo2(2.4059005638760942)
No.34:B14->Mo2(2.4059006501636597)
No.35:B19->Mo2(2.4059004779290745)
No.36:B20->Mo2(2.4059005642166436)
No.37:B21->Mo2(2.3718370717077089)
No.38:B22->Mo2(2.3718371565504963)
No.39:B23->Mo2(2.3914222535506569)
No.40:B24->Mo2(2.3914223390296168)
No.41:Mo5->Mo3(3.0368092914123284)
No.42:Mo5->Mo3(3.0368091606150474)
No.43:V8->Mo3(3.0357505046441733)
No.44:V8->Mo3(3.0357505033456418)
No.45:B9->Mo3(2.391422190333961)
No.46:B10->Mo3(2.3914221044973805)
No.47:B11->Mo3(2.4059006275792139)
No.48:B12->Mo3(2.4059005409306491)
No.49:B13->Mo3(2.3718370112836942)
No.50:B14->Mo3(2.3718369260859467)
No.51:B19->Mo3(2.3718369241023316)
No.52:B20->Mo3(2.371836838904581)
No.53:B21->Mo3(2.405900624866609)
No.54:B22->Mo3(2.4059005382180443)
No.55:B23->Mo3(2.3914222542659633)
No.56:B24->Mo3(2.3914221684293855)
No.57:Mo5->Mo4(3.2329158516519292)
No.58:Mo5->Mo4(3.2329158511228555)
No.59:Mo6->Mo4(3.035750445293659)
No.60:Mo6->Mo4(3.0357505626428996)
No.61:V7->Mo4(3.0357505043445192)
No.62:V7->Mo4(3.0357505036452963)
No.63:B11->Mo4(2.3718371487308803)
No.64:B12->Mo4(2.371837233573665)
No.65:B13->Mo4(2.4059006264054679)
No.66:B14->Mo4(2.4059007126930312)
No.67:B15->Mo4(2.3914221569555534)
No.68:B16->Mo4(2.391422242434516)
No.69:B17->Mo4(2.3914222648397434)
No.70:B18->Mo4(2.3914223503187024)
No.71:B19->Mo4(2.4059009046420416)
No.72:B20->Mo4(2.4059009909295952)
No.73:B21->Mo4(2.3718366271994533)
No.74:B22->Mo4(2.3718367120422572)
No.75:V8->Mo5(3.035750445293659)
No.76:V8->Mo5(3.0357505626428996)
No.77:B11->Mo5(2.4059007007992608)
No.78:B12->Mo5(2.4059006141506987)
No.79:B13->Mo5(2.3718370747110944)
No.80:B14->Mo5(2.3718369895133491)
No.81:B15->Mo5(2.3914221576708599)
No.82:B16->Mo5(2.3914220718342785)
No.83:B17->Mo5(2.3914222655550499)
No.84:B18->Mo5(2.391422179718472)
No.85:B19->Mo5(2.3718373569436109)
No.86:B20->Mo5(2.3718372717458762)
No.87:B21->Mo5(2.405900186651853)
No.88:B22->Mo5(2.4059001000032727)
No.89:V7->Mo6(3.0368092912624487)
No.90:V7->Mo6(3.036809160764927)
No.91:V8->Mo6(3.2329158516519292)
No.92:V8->Mo6(3.2329158511228555)
No.93:B9->Mo6(2.3809793638045953)
No.94:B10->Mo6(2.3809794496584624)
No.95:B13->Mo6(2.3929951797050131)
No.96:B14->Mo6(2.3929952664579264)
No.97:B15->Mo6(2.3809794265965651)
No.98:B16->Mo6(2.38097951245043)
No.99:B17->Mo6(2.380979427525812)
No.100:B18->Mo6(2.3809795133796769)
No.101:B19->Mo6(2.3929950938539974)
No.102:B20->Mo6(2.3929951806069139)
No.103:B23->Mo6(2.3809791243278378)
No.104:B24->Mo6(2.3809792101817133)
No.105:B9->V7(2.3809794270631301)
No.106:B10->V7(2.3809795129169951)
No.107:B11->V7(2.3587452300393252)
No.108:B12->V7(2.3587453153530196)
No.109:B15->V7(2.3809795012942949)
No.110:B16->V7(2.3809795871481572)
No.111:B17->V7(2.3809792884329921)
No.112:B18->V7(2.3809793742868619)
No.113:B21->V7(2.3587456431109577)
No.114:B22->V7(2.3587457284246369)
No.115:B23->V7(2.3809797075477164)
No.116:B24->V7(2.3809797934015715)
No.117:B9->V8(2.3809793645230388)
No.118:B10->V8(2.3809792783099848)
No.119:B13->V8(2.358745262830916)
No.120:B14->V8(2.3587451771602956)
No.121:B15->V8(2.3809794273150091)
No.122:B16->V8(2.3809793411019573)
No.123:B17->V8(2.380979428244256)
No.124:B18->V8(2.3809793420312042)
No.125:B19->V8(2.3587451757333096)
No.126:B20->V8(2.3587450900626861)
No.127:B23->V8(2.3809791250462817)
No.128:B24->V8(2.3809790388332188)
No.129:B10->B9(3.232915725721706)
No.130:B10->B9(3.2329159770530786)
No.131:B11->B9(3.0542815151831606)
No.132:B11->B9(3.0174654365568752)
No.133:B13->B9(3.0174654369418774)
No.134:B13->B9(3.0542815138349724)
No.135:B15->B9(3.0368091008081941)
No.136:B15->B9(3.0368093512191829)
No.137:B17->B9(1.7327135923987871)
No.138:B19->B9(1.7525373633081722)
No.139:B21->B9(1.7525383896171087)
No.140:B23->B9(3.4963557807632433)
No.141:B23->B9(3.4963566612523431)
No.142:B12->B10(3.0542815151831606)
No.143:B12->B10(3.0174654365568752)
No.144:B14->B10(3.0174654369418774)
No.145:B14->B10(3.0542815138349724)
No.146:B16->B10(3.0368091008081941)
No.147:B16->B10(3.0368093512191829)
No.148:B18->B10(1.7327135923987871)
No.149:B20->B10(1.7525373633081722)
No.150:B22->B10(1.7525383896171087)
No.151:B24->B10(3.4963557807632433)
No.152:B24->B10(3.4963566612523431)
No.153:B12->B11(3.2832562622692887)
No.154:B12->B11(3.182575440505496)
No.155:B13->B11(3.037226564342546)
No.156:B13->B11(3.0372263146653262)
No.157:B15->B11(3.0542815131357783)
No.158:B15->B11(3.0174654376410714)
No.159:B17->B11(1.7525377439667555)
No.160:B19->B11(1.7759457399109255)
No.161:B21->B11(3.4822312543368166)
No.162:B23->B11(1.7525380963044117)
No.163:B14->B12(3.037226564342546)
No.164:B14->B12(3.0372263146653262)
No.165:B16->B12(3.0542815131357783)
No.166:B16->B12(3.0174654376410714)
No.167:B18->B12(1.7525377439667555)
No.168:B20->B12(1.7759457399109255)
No.169:B22->B12(3.4822312543368166)
No.170:B24->B12(1.7525380963044117)
No.171:B14->B13(3.1825751891741239)
No.172:B14->B13(3.2832565136006613)
No.173:B15->B13(3.0174654379729771)
No.174:B15->B13(3.0542815117341928)
No.175:B17->B13(1.7525379765769842)
No.176:B19->B13(3.4822306636547573)
No.177:B21->B13(1.7759450028741499)
No.178:B23->B13(1.752537363037963)
No.179:B16->B14(3.0174654379729771)
No.180:B16->B14(3.0542815117341928)
No.181:B18->B14(1.7525379765769842)
No.182:B20->B14(3.4822306636547573)
No.183:B22->B14(1.7759450028741499)
No.184:B24->B14(1.752537363037963)
No.185:B16->B15(3.232915725721706)
No.186:B16->B15(3.2329159770530786)
No.187:B17->B15(3.4963561915286898)
No.188:B17->B15(3.4963562792333582)
No.189:B19->B15(1.7525378899140802)
No.190:B21->B15(1.7525377434252287)
No.191:B23->B15(1.7327137112577387)
No.192:B18->B16(3.4963561915286898)
No.193:B18->B16(3.4963562792333582)
No.194:B20->B16(1.7525378899140802)
No.195:B22->B16(1.7525377434252287)
No.196:B24->B16(1.7327137112577387)
No.197:B18->B17(3.232915725721706)
No.198:B18->B17(3.2329159770530786)
No.199:B19->B17(3.0174651135616295)
No.200:B19->B17(3.0542818367556048)
No.201:B21->B17(3.0542810366648738)
No.202:B21->B17(3.017465914111507)
No.203:B23->B17(3.0368088948426744)
No.204:B23->B17(3.0368095571847014)
No.205:B20->B18(3.0174651135616295)
No.206:B20->B18(3.0542818367556048)
No.207:B22->B18(3.0542810366648738)
No.208:B22->B18(3.017465914111507)
No.209:B24->B18(3.0368088948426744)
No.210:B24->B18(3.0368095571847014)
No.211:B20->B19(3.1825751891741239)
No.212:B20->B19(3.2832565136006613)
No.213:B21->B19(3.0372264130866236)
No.214:B21->B19(3.0372264659213926)
No.215:B23->B19(3.0174651992060997)
No.216:B23->B19(3.0542817515709846)
No.217:B22->B20(3.0372264130866236)
No.218:B22->B20(3.0372264659213926)
No.219:B24->B20(3.0174651992060997)
No.220:B24->B20(3.0542817515709846)
No.221:B22->B21(3.2832562622692887)
No.222:B22->B21(3.182575440505496)
No.223:B23->B21(3.05428107015759)
No.224:B23->B21(3.0174658795235083)
No.225:B24->B22(3.05428107015759)
No.226:B24->B22(3.0174658795235083)
No.227:B24->B23(3.232915725721706)
No.228:B24->B23(3.2329159770530786)
-16.03206   0.00000   0.00000   0.00000   0.00000   0.00000   0.00000   0.00000   0.00000   0.00000   0.00000   0.00000   0.00000   0.00000   0.00000   0.00000   0.00000   0.00000   0.00000   0.00000   0.00000   0.00000   0.00000   0.00000   0.00000   0.00000   0.00000   0.00000   0.00000   0.00000   0.00000   0.00000   0.00000   0.00000   0.00000   0.00000   0.00000   0.00000   0.00000   0.00000   0.00000   0.00000   0.00000   0.00000   0.00000   0.00000   0.00000   0.00000   0.00000   0.00000   0.00000   0.00000   0.00000   0.00000   0.00000   0.00000   0.00000   0.00000   0.00000   0.00000   0.00000   0.00000   0.00000   0.00000   0.00000   0.00000   0.00000   0.00000   0.00000   0.00000   0.00000   0.00000   0.00000   0.00000   0.00000   0.00000   0.00000   0.00000   0.00000   0.00000   0.00000   0.00000   0.00000   0.00000   0.00000   0.00000   0.00000   0.00000   0.00000   0.00000   0.00000   0.00000   0.00000   0.00000   0.00000   0.00000   0.00000   0.00000   0.00000   0.00000   0.00000   0.00000   0.00000   0.00000   0.00000   0.00000   0.00000   0.00000   0.00000   0.00000   0.00000   0.00000   0.00000   0.00000   0.00000   0.00000   0.00000   0.00000   0.00000   0.00000   0.00000   0.00000   0.00000   0.00000   0.00000   0.00000   0.00000   0.00000   0.00000   0.00000   0.00000   0.00000   0.00000   0.00000   0.00000   0.00000   0.00000   0.00000   0.00000   0.00000   0.00000   0.00000   0.00000   0.00000   0.00000   0.00000   0.00000   0.00000   0.00000   0.00000   0.00000   0.00000   0.00000   0.00000   0.00000   0.00000   0.00000   0.00000   0.00000   0.00000   0.00000   0.00000   0.00000   0.00000   0.00000   0.00000   0.00000   0.00000   0.00000   0.00000   0.00000   0.00000   0.00000   0.00000   0.00000   0.00000   0.00000   0.00000   0.00000   0.00000   0.00000   0.00000   0.00000   0.00000   0.00000   0.00000   0.00000   0.00000   0.00000   0.00000   0.00000   0.00000   0.00000   0.00000   0.00000   0.00000   0.00000   0.00000   0.00000   0.00000   0.00000   0.00000   0.00000   0.00000   0.00000   0.00000   0.00000   0.00000   0.00000   0.00000   0.00000   0.00000   0.00000   0.00000   0.00000   0.00000   0.00000   0.00000   0.00000   0.00000   0.00000   0.00000   0.00000   0.00000   0.00000   0.00000   0.00000   0.00000   0.00000   0.00000   0.00000   0.00000   0.00000   0.00000   0.00000   0.00000   0.00000   0.00000   0.00000   0.00000   0.00000   0.00000   0.00000   0.00000   0.00000   0.00000   0.00000   0.00000   0.00000   0.00000   0.00000   0.00000   0.00000   0.00000   0.00000   0.00000   0.00000   0.00000   0.00000   0.00000   0.00000   0.00000   0.00000   0.00000   0.00000   0.00000   0.00000   0.00000   0.00000   0.00000   0.00000   0.00000   0.00000   0.00000   0.00000   0.00000   0.00000   0.00000   0.00000   0.00000   0.00000   0.00000   0.00000   0.00000   0.00000   0.00000   0.00000   0.00000   0.00000   0.00000   0.00000   0.00000   0.00000   0.00000   0.00000   0.00000   0.00000   0.00000   0.00000   0.00000   0.00000   0.00000   0.00000   0.00000   0.00000   0.00000   0.00000   0.00000   0.00000   0.00000   0.00000   0.00000   0.00000   0.00000   0.00000   0.00000   0.00000   0.00000   0.00000   0.00000   0.00000   0.00000   0.00000   0.00000   0.00000   0.00000   0.00000   0.00000   0.00000   0.00000   0.00000   0.00000   0.00000   0.00000   0.00000   0.00000   0.00000   0.00000   0.00000   0.00000   0.00000   0.00000   0.00000   0.00000   0.00000   0.00000   0.00000   0.00000   0.00000   0.00000   0.00000   0.00000   0.00000   0.00000   0.00000   0.00000   0.00000   0.00000   0.00000   0.00000   0.00000   0.00000   0.00000   0.00000   0.00000   0.00000   0.00000   0.00000   0.00000   0.00000   0.00000   0.00000   0.00000   0.00000   0.00000   0.00000   0.00000   0.00000   0.00000   0.00000   0.00000   0.00000   0.00000   0.00000   0.00000   0.00000   0.00000   0.00000   0.00000   0.00000   0.00000   0.00000   0.00000   0.00000   0.00000   0.00000   0.00000   0.00000   0.00000   0.00000   0.00000   0.00000   0.00000   0.00000   0.00000   0.00000   0.00000   0.00000   0.00000   0.00000   0.00000   0.00000   0.00000   0.00000   0.00000   0.00000   0.00000   0.00000   0.00000   0.00000   0.00000   0.00000   0.00000   0.00000   0.00000   0.00000   0.00000   0.00000   0.00000   0.00000   0.00000   0.00000   0.00000   0.00000   0.00000   0.00000   0.00000   0.00000   0.00000   0.00000   0.00000   0.00000   0.00000   0.00000   0.00000   0.00000   0.00000   0.00000   0.00000   0.00000   0.00000   0.00000   0.00000   0.00000   0.00000   0.00000   0.00000   0.00000   0.00000
-15.98196   0.00000   0.00000   0.00000   0.00000   0.00000   0.00000   0.00000   0.00000   0.00000   0.00000   0.00000   0.00000   0.00000   0.00000   0.00000   0.00000   0.00000   0.00000   0.00000   0.00000   0.00000   0.00000   0.00000   0.00000   0.00000   0.00000   0.00000   0.00000   0.00000   0.00000   0.00000   0.00000   0.00000   0.00000   0.00000   0.00000   0.00000   0.00000   0.00000   0.00000   0.00000   0.00000   0.00000   0.00000   0.00000   0.00000   0.00000   0.00000   0.00000   0.00000   0.00000   0.00000   0.00000   0.00000   0.00000   0.00000   0.00000   0.00000   0.00000   0.00000   0.00000   0.00000   0.00000   0.00000   0.00000   0.00000   0.00000   0.00000   0.00000   0.00000   0.00000   0.00000   0.00000   0.00000   0.00000   0.00000   0.00000   0.00000   0.00000   0.00000   0.00000   0.00000   0.00000   0.00000   0.00000   0.00000   0.00000   0.00000   0.00000   0.00000   0.00000   0.00000   0.00000   0.00000   0.00000   0.00000   0.00000   0.00000   0.00000   0.00000   0.00000   0.00000   0.00000   0.00000   0.00000   0.00000   0.00000   0.00000   0.00000   0.00000   0.00000   0.00000   0.00000   0.00000   0.00000   0.00000   0.00000   0.00000   0.00000   0.00000   0.00000   0.00000   0.00000   0.00000   0.00000   0.00000   0.00000   0.00000   0.00000   0.00000   0.00000   0.00000   0.00000   0.00000   0.00000   0.00000   0.00000   0.00000   0.00000   0.00000   0.00000   0.00000   0.00000   0.00000   0.00000   0.00000   0.00000   0.00000   0.00000   0.00000   0.00000   0.00000   0.00000   0.00000   0.00000   0.00000   0.00000   0.00000   0.00000   0.00000   0.00000   0.00000   0.00000   0.00000   0.00000   0.00000   0.00000   0.00000   0.00000   0.00000   0.00000   0.00000   0.00000   0.00000   0.00000   0.00000   0.00000   0.00000   0.00000   0.00000   0.00000   0.00000   0.00000   0.00000   0.00000   0.00000   0.00000   0.00000   0.00000   0.00000   0.00000   0.00000   0.00000   0.00000   0.00000   0.00000   0.00000   0.00000   0.00000   0.00000   0.00000   0.00000   0.00000   0.00000   0.00000   0.00000   0.00000   0.00000   0.00000   0.00000   0.00000   0.00000   0.00000   0.00000   0.00000   0.00000   0.00000   0.00000   0.00000   0.00000   0.00000   0.00000   0.00000   0.00000   0.00000   0.00000   0.00000   0.00000   0.00000   0.00000   0.00000   0.00000   0.00000   0.00000   0.00000   0.00000   0.00000   0.00000   0.00000   0.00000   0.00000   0.00000   0.00000   0.00000   0.00000   0.00000   0.00000   0.00000   0.00000   0.00000   0.00000   0.00000   0.00000   0.00000   0.00000   0.00000   0.00000   0.00000   0.00000   0.00000   0.00000   0.00000   0.00000   0.00000   0.00000   0.00000   0.00000   0.00000   0.00000   0.00000   0.00000   0.00000   0.00000   0.00000   0.00000   0.00000   0.00000   0.00000   0.00000   0.00000   0.00000   0.00000   0.00000   0.00000   0.00000   0.00000   0.00000   0.00000   0.00000   0.00000   0.00000   0.00000   0.00000   0.00000   0.00000   0.00000   0.00000   0.00000   0.00000   0.00000   0.00000   0.00000   0.00000   0.00000   0.00000   0.00000   0.00000   0.00000   0.00000   0.00000   0.00000   0.00000   0.00000   0.00000   0.00000   0.00000   0.00000   0.00000   0.00000   0.00000   0.00000   0.00000   0.00000   0.00000   0.00000   0.00000   0.00000   0.00000   0.00000   0.00000   0.00000   0.00000   0.00000   0.00000   0.00000   0.00000   0.00000   0.00000   0.00000   0.00000   0.00000   0.00000   0.00000   0.00000   0.00000   0.00000   0.00000   0.00000   0.00000   0.00000   0.00000   0.00000   0.00000   0.00000   0.00000   0.00000   0.00000   0.00000   0.00000   0.00000   0.00000   0.00000   0.00000   0.00000   0.00000   0.00000   0.00000   0.00000   0.00000   0.00000   0.00000   0.00000   0.00000   0.00000   0.00000   0.00000   0.00000   0.00000   0.00000   0.00000   0.00000   0.00000   0.00000   0.00000   0.00000   0.00000   0.00000   0.00000   0.00000   0.00000   0.00000   0.00000   0.00000   0.00000   0.00000   0.00000   0.00000   0.00000   0.00000   0.00000   0.00000   0.00000   0.00000   0.00000   0.00000   0.00000   0.00000   0.00000   0.00000   0.00000   0.00000   0.00000   0.00000   0.00000   0.00000   0.00000   0.00000   0.00000   0.00000   0.00000   0.00000   0.00000   0.00000   0.00000   0.00000   0.00000   0.00000   0.00000   0.00000   0.00000   0.00000   0.00000   0.00000   0.00000   0.00000   0.00000   0.00000   0.00000   0.00000   0.00000   0.00000   0.00000   0.00000   0.00000   0.00000   0.00000   0.00000   0.00000   0.00000   0.00000   0.00000   0.00000   0.00000   0.00000   0.00000   0.00000   0.00000   0.00000
-15.93186   0.00000   0.00000   0.00000   0.00000   0.00000   0.00000   0.00000   0.00000   0.00000   0.00000   0.00000   0.00000   0.00000   0.00000   0.00000   0.00000   0.00000   0.00000   0.00000   0.00000   0.00000   0.00000   0.00000   0.00000   0.00000   0.00000   0.00000   0.00000   0.00000   0.00000   0.00000   0.00000   0.00000   0.00000   0.00000   0.00000   0.00000   0.00000   0.00000   0.00000   0.00000   0.00000   0.00000   0.00000   0.00000   0.00000   0.00000   0.00000   0.00000   0.00000   0.00000   0.00000   0.00000   0.00000   0.00000   0.00000   0.00000   0.00000   0.00000   0.00000   0.00000   0.00000   0.00000   0.00000   0.00000   0.00000   0.00000   0.00000   0.00000   0.00000   0.00000   0.00000   0.00000   0.00000   0.00000   0.00000   0.00000   0.00000   0.00000   0.00000   0.00000   0.00000   0.00000   0.00000   0.00000   0.00000   0.00000   0.00000   0.00000   0.00000   0.00000   0.00000   0.00000   0.00000   0.00000   0.00000   0.00000   0.00000   0.00000   0.00000   0.00000   0.00000   0.00000   0.00000   0.00000   0.00000   0.00000   0.00000   0.00000   0.00000   0.00000   0.00000   0.00000   0.00000   0.00000   0.00000   0.00000   0.00000   0.00000   0.00000   0.00000   0.00000   0.00000   0.00000   0.00000   0.00000   0.00000   0.00000   0.00000   0.00000   0.00000   0.00000   0.00000   0.00000   0.00000   0.00000   0.00000   0.00000   0.00000   0.00000   0.00000   0.00000   0.00000   0.00000   0.00000   0.00000   0.00000   0.00000   0.00000   0.00000   0.00000   0.00000   0.00000   0.00000   0.00000   0.00000   0.00000   0.00000   0.00000   0.00000   0.00000   0.00000   0.00000   0.00000   0.00000   0.00000   0.00000   0.00000   0.00000   0.00000   0.00000   0.00000   0.00000   0.00000   0.00000   0.00000   0.00000   0.00000   0.00000   0.00000   0.00000   0.00000   0.00000   0.00000   0.00000   0.00000   0.00000   0.00000   0.00000   0.00000   0.00000   0.00000   0.00000   0.00000   0.00000   0.00000   0.00000   0.00000   0.00000   0.00000   0.00000   0.00000   0.00000   0.00000   0.00000   0.00000   0.00000   0.00000   0.00000   0.00000   0.00000   0.00000   0.00000   0.00000   0.00000   0.00000   0.00000   0.00000   0.00000   0.00000   0.00000   0.00000   0.00000   0.00000   0.00000   0.00000   0.00000   0.00000   0.00000   0.00000   0.00000   0.00000   0.00000   0.00000   0.00000   0.00000   0.00000   0.00000   0.00000   0.00000   0.00000   0.00000   0.00000   0.00000   0.00000   0.00000   0.00000   0.00000   0.00000   0.00000   0.00000   0.00000   0.00000   0.00000   0.00000   0.00000   0.00000   0.00000   0.00000   0.00000   0.00000   0.00000   0.00000   0.00000   0.00000   0.00000   0.00000   0.00000   0.00000   0.00000   0.00000   0.00000   0.00000   0.00000   0.00000   0.00000   0.00000   0.00000   0.00000   0.00000   0.00000   0.00000   0.00000   0.00000   0.00000   0.00000   0.00000   0.00000   0.00000   0.00000   0.00000   0.00000   0.00000   0.00000   0.00000   0.00000   0.00000   0.00000   0.00000   0.00000   0.00000   0.00000   0.00000   0.00000   0.00000   0.00000   0.00000   0.00000   0.00000   0.00000   0.00000   0.00000   0.00000   0.00000   0.00000   0.00000   0.00000   0.00000   0.00000   0.00000   0.00000   0.00000   0.00000   0.00000   0.00000   0.00000   0.00000   0.00000   0.00000   0.00000   0.00000   0.00000   0.00000   0.00000   0.00000   0.00000   0.00000   0.00000   0.00000   0.00000   0.00000   0.00000   0.00000   0.00000   0.00000   0.00000   0.00000   0.00000   0.00000   0.00000   0.00000   0.00000   0.00000   0.00000   0.00000   0.00000   0.00000   0.00000   0.00000   0.00000   0.00000   0.00000   0.00000   0.00000   0.00000   0.00000   0.00000   0.00000   0.00000   0.00000   0.00000   0.00000   0.00000   0.00000   0.00000   0.00000   0.00000   0.00000   0.00000   0.00000   0.00000   0.00000   0.00000   0.00000   0.00000   0.00000   0.00000   0.00000   0.00000   0.00000   0.00000   0.00000   0.00000   0.00000   0.00000   0.00000   0.00000   0.00000   0.00000   0.00000   0.00000   0.00000   0.00000   0.00000   0.00000   0.00000   0.00000   0.00000   0.00000   0.00000   0.00000   0.00000   0.00000   0.00000   0.00000   0.00000   0.00000   0.00000   0.00000   0.00000   0.00000   0.00000   0.00000   0.00000   0.00000   0.00000   0.00000   0.00000   0.00000   0.00000   0.00000   0.00000   0.00000   0.00000   0.00000   0.00000   0.00000   0.00000   0.00000   0.00000   0.00000   0.00000   0.00000   0.00000   0.00000   0.00000   0.00000   0.00000   0.00000   0.00000   0.00000   0.00000   0.00000   0.00000   0.00000   0.00000   0.00000   0.00000
-15.88176   0.00000   0.00000   0.00000   0.00000   0.00000   0.00000   0.00000   0.00000   0.00000   0.00000   0.00000   0.00000   0.00000   0.00000   0.00000   0.00000   0.00000   0.00000   0.00000   0.00000   0.00000   0.00000   0.00000   0.00000   0.00000   0.00000   0.00000   0.00000   0.00000   0.00000   0.00000   0.00000   0.00000   0.00000   0.00000   0.00000   0.00000   0.00000   0.00000   0.00000   0.00000   0.00000   0.00000   0.00000   0.00000   0.00000   0.00000   0.00000   0.00000   0.00000   0.00000   0.00000   0.00000   0.00000   0.00000   0.00000   0.00000   0.00000   0.00000   0.00000   0.00000   0.00000   0.00000   0.00000   0.00000   0.00000   0.00000   0.00000   0.00000   0.00000   0.00000   0.00000   0.00000   0.00000   0.00000   0.00000   0.00000   0.00000   0.00000   0.00000   0.00000   0.00000   0.00000   0.00000   0.00000   0.00000   0.00000   0.00000   0.00000   0.00000   0.00000   0.00000   0.00000   0.00000   0.00000   0.00000   0.00000   0.00000   0.00000   0.00000   0.00000   0.00000   0.00000   0.00000   0.00000   0.00000   0.00000   0.00000   0.00000   0.00000   0.00000   0.00000   0.00000   0.00000   0.00000   0.00000   0.00000   0.00000   0.00000   0.00000   0.00000   0.00000   0.00000   0.00000   0.00000   0.00000   0.00000   0.00000   0.00000   0.00000   0.00000   0.00000   0.00000   0.00000   0.00000   0.00000   0.00000   0.00000   0.00000   0.00000   0.00000   0.00000   0.00000   0.00000   0.00000   0.00000   0.00000   0.00000   0.00000   0.00000   0.00000   0.00000   0.00000   0.00000   0.00000   0.00000   0.00000   0.00000   0.00000   0.00000   0.00000   0.00000   0.00000   0.00000   0.00000   0.00000   0.00000   0.00000   0.00000   0.00000   0.00000   0.00000   0.00000   0.00000   0.00000   0.00000   0.00000   0.00000   0.00000   0.00000   0.00000   0.00000   0.00000   0.00000   0.00000   0.00000   0.00000   0.00000   0.00000   0.00000   0.00000   0.00000   0.00000   0.00000   0.00000   0.00000   0.00000   0.00000   0.00000   0.00000   0.00000   0.00000   0.00000   0.00000   0.00000   0.00000   0.00000   0.00000   0.00000   0.00000   0.00000   0.00000   0.00000   0.00000   0.00000   0.00000   0.00000   0.00000   0.00000   0.00000   0.00000   0.00000   0.00000   0.00000   0.00000   0.00000   0.00000   0.00000   0.00000   0.00000   0.00000   0.00000   0.00000   0.00000   0.00000   0.00000   0.00000   0.00000   0.00000   0.00000   0.00000   0.00000   0.00000   0.00000   0.00000   0.00000   0.00000   0.00000   0.00000   0.00000   0.00000   0.00000   0.00000   0.00000   0.00000   0.00000   0.00000   0.00000   0.00000   0.00000   0.00000   0.00000   0.00000   0.00000   0.00000   0.00000   0.00000   0.00000   0.00000   0.00000   0.00000   0.00000   0.00000   0.00000   0.00000   0.00000   0.00000   0.00000   0.00000   0.00000   0.00000   0.00000   0.00000   0.00000   0.00000   0.00000   0.00000   0.00000   0.00000   0.00000   0.00000   0.00000   0.00000   0.00000   0.00000   0.00000   0.00000   0.00000   0.00000   0.00000   0.00000   0.00000   0.00000   0.00000   0.00000   0.00000   0.00000   0.00000   0.00000   0.00000   0.00000   0.00000   0.00000   0.00000   0.00000   0.00000   0.00000   0.00000   0.00000   0.00000   0.00000   0.00000   0.00000   0.00000   0.00000   0.00000   0.00000   0.00000   0.00000   0.00000   0.00000   0.00000   0.00000   0.00000   0.00000   0.00000   0.00000   0.00000   0.00000   0.00000   0.00000   0.00000   0.00000   0.00000   0.00000   0.00000   0.00000   0.00000   0.00000   0.00000   0.00000   0.00000   0.00000   0.00000   0.00000   0.00000   0.00000   0.00000   0.00000   0.00000   0.00000   0.00000   0.00000   0.00000   0.00000   0.00000   0.00000   0.00000   0.00000   0.00000   0.00000   0.00000   0.00000   0.00000   0.00000   0.00000   0.00000   0.00000   0.00000   0.00000   0.00000   0.00000   0.00000   0.00000   0.00000   0.00000   0.00000   0.00000   0.00000   0.00000   0.00000   0.00000   0.00000   0.00000   0.00000   0.00000   0.00000   0.00000   0.00000   0.00000   0.00000   0.00000   0.00000   0.00000   0.00000   0.00000   0.00000   0.00000   0.00000   0.00000   0.00000   0.00000   0.00000   0.00000   0.00000   0.00000   0.00000   0.00000   0.00000   0.00000   0.00000   0.00000   0.00000   0.00000   0.00000   0.00000   0.00000   0.00000   0.00000   0.00000   0.00000   0.00000   0.00000   0.00000   0.00000   0.00000   0.00000   0.00000   0.00000   0.00000   0.00000   0.00000   0.00000   0.00000   0.00000   0.00000   0.00000   0.00000   0.00000   0.00000   0.00000   0.00000   0.00000   0.00000   0.00000   0.00000   0.00000   0.00000