  24   24    1    1
  2.0646579e+02   6.0715010e-10   6.0715010e-10   6.4658317e-10   5.0000000e-16
            1.000000e-04
  CAR
 DOS and projected DOS file by LOBSTER. Energy is shifted such that the Fermi level lies at 0 eV. 
     18.05282716      -6.99727304   501       9.03479109       1.00000000
-16.03206   0.00000   0.00000
-15.98196   0.00000   0.00000
-15.93186   0.00000   0.00000
-15.88176   0.00000   0.00000
-15.83166   0.00000   0.00000
-15.78156   0.00000   0.00000
-15.73146   0.00000   0.00000
-15.68136   0.00000   0.00000
-15.63126   0.00000   0.00000
-15.58116   0.00000   0.00000
-15.53106   0.00000   0.00000
-15.48096   0.00000   0.00000
-15.43086   0.00000   0.00000
-15.38076   0.00000   0.00000
-15.33066   0.00000   0.00000
-15.28056   0.00000   0.00000
-15.23046   0.00000   0.00000
-15.18036   0.00000   0.00000
-15.13026   0.00000   0.00000
-15.08016   0.00000   0.00000
-15.03006   0.00000   0.00000
-14.97996   0.00000   0.00000
-14.92986   0.00000   0.00000
-14.87976   0.00000   0.00000
-14.82966   0.00000   0.00000
-14.77956   0.00000   0.00000
-14.72946   0.08379   0.00420
-14.67936   0.35545   0.02201
-14.62926   0.51869   0.04799
-14.57916   0.62787   0.07945
-14.52906   0.72497   0.11577
-14.47896   0.83700   0.15770
-14.42886   0.91460   0.20353
-14.37876   0.98551   0.25290
-14.32866   1.06724   0.30637
-14.27856   1.15627   0.36430
-14.22846   1.22250   0.42554
-14.17836   1.28524   0.48994
-14.12826   1.35492   0.55782
-14.07816   1.43051   0.62949
-14.02806   1.62118   0.71071
-13.97796   1.64713   0.79323
-13.92786   1.64466   0.87563
-13.87776   1.65148   0.95837
-13.82766   1.66771   1.04192
-13.77756   1.79534   1.13187
-13.72745   1.99596   1.23186
-13.67735   2.08378   1.33626
-13.62725   2.26034   1.44951
-13.57715   2.19354   1.55940
-13.52705   2.06034   1.66262
-13.47695   2.06443   1.76605
-13.42685   2.16701   1.87462
-13.37675   2.31018   1.99036
-13.32665   2.45210   2.11321
-13.27655   2.70725   2.24885
-13.22645   2.88739   2.39351
-13.17635   2.90730   2.53916
-13.12625   3.18074   2.69852
-13.07615   3.47695   2.87271
-13.02605   3.25958   3.03602
-12.97595   3.43711   3.20822
-12.92585   3.14958   3.36601
-12.87575   2.98432   3.51553
-12.82565   2.87380   3.65951
-12.77555   3.54501   3.83711
-12.72545   4.28895   4.05199
-12.67535   4.81091   4.29302
-12.62525   5.08686   4.54787
-12.57515   4.56553   4.77660
-12.52505   4.09122   4.98157
-12.47495   4.63945   5.21401
-12.42485   5.05906   5.46747
-12.37475   5.46125   5.74108
-12.32465   5.24010   6.00361
-12.27455   4.93429   6.25082
-12.22445   4.66921   6.48475
-12.17435   4.79497   6.72498
-12.12425   5.04935   6.97795
-12.07415   5.04095   7.23050
-12.02405   5.11043   7.48654
-11.97395   5.32971   7.75356
-11.92385   5.49005   8.02861
-11.87375   5.34878   8.29658
-11.82365   5.45113   8.56969
-11.77355   5.82325   8.86143
-11.72345   6.04485   9.16428
-11.67335   6.12576   9.47118
-11.62325   6.25930   9.78477
-11.57315   6.80563  10.12574
-11.52305   7.84116  10.51858
-11.47295   7.39757  10.88920
-11.42285   6.18721  11.19918
-11.37275   4.84324  11.44183
-11.32265   3.62152  11.62327
-11.27255   3.81008  11.81415
-11.22244   4.39642  12.03442
-11.17234   5.37791  12.30385
-11.12224   5.60799  12.58481
-11.07214   5.75382  12.87308
-11.02204   5.73107  13.16021
-10.97194   5.66735  13.44414
-10.92184   5.78650  13.73405
-10.87174   5.62033  14.01563
-10.82164   5.00896  14.26658
-10.77154   4.36951  14.48549
-10.72144   3.91009  14.68139
-10.67134   3.64121  14.86381
-10.62124   3.17874  15.02307
-10.57114   2.60769  15.15371
-10.52104   2.26273  15.26708
-10.47094   2.11353  15.37296
-10.42084   2.00880  15.47361
-10.37074   1.82966  15.56527
-10.32064   1.94605  15.66277
-10.27054   2.36609  15.78131
-10.22044   2.18992  15.89103
-10.17034   2.12116  15.99730
-10.12024   1.80627  16.08779
-10.07014   2.15109  16.19556
-10.02004   2.52854  16.32224
 -9.96994   2.43361  16.44417
 -9.91984   2.36875  16.56284
 -9.86974   2.15549  16.67083
 -9.81964   2.75257  16.80874
 -9.76954   3.01630  16.95985
 -9.71944   3.91273  17.15588
 -9.66934   4.20199  17.36640
 -9.61924   4.74816  17.60429
 -9.56914   4.78255  17.84389
 -9.51904   4.97490  18.09314
 -9.46894   5.07646  18.34747
 -9.41884   5.13094  18.60453
 -9.36874   5.15576  18.86283
 -9.31864   5.20588  19.12365
 -9.26854   5.33739  19.39105
 -9.21844   5.36333  19.65976
 -9.16834   5.57258  19.93894
 -9.11824   4.95718  20.18730
 -9.06814   4.59477  20.41750
 -9.01804   4.46579  20.64124
 -8.96794   4.38680  20.86102
 -8.91784   4.64149  21.09356
 -8.86774   4.89003  21.33855
 -8.81764   5.00695  21.58940
 -8.76754   4.41386  21.81053
 -8.71743   4.56811  22.03940
 -8.66733   4.32527  22.25609
 -8.61723   4.62686  22.48790
 -8.56713   4.95516  22.73615
 -8.51703   5.20475  22.99691
 -8.46693   5.26948  23.26091
 -8.41683   5.28749  23.52582
 -8.36673   5.29698  23.79120
 -8.31663   5.27012  24.05523
 -8.26653   5.42633  24.32709
 -8.21643   5.71330  24.61333
 -8.16633   5.81010  24.90442
 -8.11623   5.32088  25.17099
 -8.06613   4.33976  25.38842
 -8.01603   4.14832  25.59625
 -7.96593   4.11813  25.80257
 -7.91583   4.09449  26.00770
 -7.86573   4.34846  26.22556
 -7.81563   5.01867  26.47700
 -7.76553   6.49240  26.80227
 -7.71543   5.67572  27.08662
 -7.66533   5.41739  27.35804
 -7.61523   5.16838  27.61697
 -7.56513   5.34723  27.88487
 -7.51503   5.43308  28.15707
 -7.46493   5.76934  28.44611
 -7.41483   6.45480  28.76950
 -7.36473   6.97351  29.11887
 -7.31463   7.01170  29.47016
 -7.26453   7.19431  29.83060
 -7.21443   7.57245  30.20998
 -7.16433   6.66209  30.54375
 -7.11423   5.28781  30.80867
 -7.06413   5.42679  31.08056
 -7.01403   5.68031  31.36514
 -6.96393   5.46902  31.63914
 -6.91383   5.34004  31.90668
 -6.86373   6.13053  32.21382
 -6.81363   7.04667  32.56686
 -6.76353   8.58201  32.99682
 -6.71343   9.48809  33.47217
 -6.66333  10.07428  33.97690
 -6.61323  10.91646  34.52381
 -6.56313  10.79846  35.06482
 -6.51303  11.95038  35.66353
 -6.46293  12.05750  36.26762
 -6.41283  11.25358  36.83142
 -6.36273  10.63971  37.36448
 -6.31263  10.20610  37.87580
 -6.26253   9.69549  38.36155
 -6.21242   8.50770  38.78779
 -6.16232   8.46128  39.21170
 -6.11222   8.48211  39.63665
 -6.06212   9.40116  40.10765
 -6.01202   9.41479  40.57934
 -5.96192   9.82081  41.07136
 -5.91182   9.67396  41.55603
 -5.86172  10.11097  42.06259
 -5.81162  10.14577  42.57090
 -5.76152   9.76318  43.06003
 -5.71142   9.67551  43.54478
 -5.66132  10.24443  44.05803
 -5.61122  10.69811  44.59400
 -5.56112  11.40404  45.16535
 -5.51102  12.69512  45.80138
 -5.46092  12.65653  46.43547
 -5.41082  13.03191  47.08837
 -5.36072  14.78755  47.82923
 -5.31062  16.64736  48.66327
 -5.26052  18.04815  49.56748
 -5.21042  16.97768  50.41807
 -5.16032  16.84635  51.26207
 -5.11022  18.95564  52.21176
 -5.06012  17.56366  53.09170
 -5.01002  17.14258  53.95054
 -4.95992  17.27883  54.81622
 -4.90982  16.01406  55.61853
 -4.85972  15.39119  56.38963
 -4.80962  15.90438  57.18644
 -4.75952  14.57803  57.91680
 -4.70942  15.47997  58.69235
 -4.65932  15.96508  59.49221
 -4.60922  19.28479  60.45838
 -4.55912  19.13904  61.41725
 -4.50902  21.32197  62.48548
 -4.45892  18.64595  63.41965
 -4.40882  15.14832  64.17858
 -4.35872  17.49700  65.05519
 -4.30862  16.38281  65.87597
 -4.25852  13.24053  66.53932
 -4.20842  10.43413  67.06207
 -4.15832  13.13434  67.72011
 -4.10822  14.43394  68.44325
 -4.05812  10.04248  68.94638
 -4.00802   8.96749  69.39565
 -3.95792   9.05834  69.84948
 -3.90782   9.48617  70.32474
 -3.85772   9.53354  70.80237
 -3.80762   9.02797  71.25467
 -3.75752   8.45104  71.67807
 -3.70741   8.30003  72.09391
 -3.65731   8.72629  72.53109
 -3.60721   8.67431  72.96568
 -3.55711   8.67050  73.40007
 -3.50701   8.19836  73.81081
 -3.45691   6.52719  74.13783
 -3.40681   5.08407  74.39254
 -3.35671   5.19931  74.65303
 -3.30661   5.67197  74.93719
 -3.25651   5.33205  75.20433
 -3.20641   5.30114  75.46992
 -3.15631   5.42046  75.74148
 -3.10621   6.25508  76.05486
 -3.05611   6.22999  76.36699
 -3.00601   5.83867  76.65951
 -2.95591   5.32415  76.92625
 -2.90581   4.93590  77.17354
 -2.85571   4.97789  77.42293
 -2.80561   5.34203  77.69057
 -2.75551   5.50898  77.96657
 -2.70541   4.90126  78.21212
 -2.65531   4.38269  78.43170
 -2.60521   3.96810  78.63050
 -2.55511   3.58051  78.80988
 -2.50501   3.39202  78.97982
 -2.45491   3.01642  79.13095
 -2.40481   2.70833  79.26663
 -2.35471   2.44950  79.38935
 -2.30461   1.83447  79.48126
 -2.25451   1.56829  79.55983
 -2.20441   1.49153  79.63456
 -2.15431   1.52524  79.71097
 -2.10421   1.52258  79.78726
 -2.05411   1.71580  79.87322
 -2.00401   1.96782  79.97181
 -1.95391   2.08417  80.07622
 -1.90381   2.65232  80.20911
 -1.85371   3.04147  80.36148
 -1.80361   3.55715  80.53970
 -1.75351   4.43083  80.76168
 -1.70341   4.88321  81.00633
 -1.65331   5.27071  81.27040
 -1.60321   5.17661  81.52975
 -1.55311   4.98563  81.77953
 -1.50301   5.02412  82.03124
 -1.45291   4.95993  82.27973
 -1.40281   4.81483  82.52095
 -1.35271   4.80098  82.76148
 -1.30261   5.17669  83.02084
 -1.25251   5.72646  83.30773
 -1.20240   5.95189  83.60592
 -1.15230   6.33854  83.92349
 -1.10220   6.60922  84.25461
 -1.05210   6.59332  84.58494
 -1.00200   6.45641  84.90840
 -0.95190   6.12553  85.21529
 -0.90180   6.09302  85.52056
 -0.85170   6.11899  85.82712
 -0.80160   6.64384  86.15998
 -0.75150   7.19601  86.52050
 -0.70140   7.67007  86.90477
 -0.65130   9.11521  87.36144
 -0.60120  10.37765  87.88137
 -0.55110  10.80677  88.42279
 -0.50100   9.52448  88.89997
 -0.45090  10.37447  89.41973
 -0.40080   9.02925  89.87210
 -0.35070   7.47068  90.24638
 -0.30060   7.89230  90.64179
 -0.25050   9.68713  91.12711
 -0.20040  10.72133  91.66425
 -0.15030  10.82843  92.20676
 -0.10020  11.65063  92.79046
 -0.05010  11.96361  93.38984
 -0.00000  12.18466  94.00029
  0.05010  12.28602  94.61582
  0.10020  12.46718  95.24043
  0.15030  13.31547  95.90754
  0.20040  14.49599  96.63379
  0.25050  15.63704  97.41721
  0.30060  14.87103  98.16225
  0.35070  13.62015  98.84462
  0.40080  14.92502  99.59237
  0.45090  15.48763 100.36830
  0.50100  15.13433 101.12654
  0.55110  16.82026 101.96923
  0.60120  18.69100 102.90566
  0.65130  16.94686 103.75470
  0.70140  16.77438 104.59510
  0.75150  17.31388 105.46253
  0.80160  18.13506 106.37110
  0.85170  15.65302 107.15532
  0.90180  17.53268 108.03371
  0.95190  15.97699 108.83416
  1.00200  15.10838 109.59109
  1.05210  15.59991 110.37265
  1.10220  17.59785 111.25430
  1.15230  19.00681 112.20655
  1.20240  19.49061 113.18303
  1.25251  18.76920 114.12337
  1.30261  20.47274 115.14906
  1.35271  19.91509 116.14681
  1.40281  20.09819 117.15374
  1.45291  19.49277 118.13033
  1.50301  18.63249 119.06382
  1.55311  16.46732 119.88884
  1.60321  15.71647 120.67623
  1.65331  13.08661 121.33188
  1.70341  13.24758 121.99558
  1.75351  14.46231 122.72015
  1.80361  12.77424 123.36014
  1.85371  14.24712 124.07392
  1.90381  12.53079 124.70172
  1.95391  10.55391 125.23047
  2.00401   8.47284 125.65496
  2.05411   7.13699 126.01253
  2.10421   6.62816 126.34460
  2.15431   6.49356 126.66993
  2.20441   7.60025 127.05070
  2.25451   9.29939 127.51660
  2.30461   9.56338 127.99573
  2.35471  10.57861 128.52572
  2.40481  10.40014 129.04677
  2.45491   9.64562 129.53002
  2.50501   8.62671 129.96222
  2.55511   8.31506 130.37880
  2.60521   8.62038 130.81069
  2.65531   8.83389 131.25327
  2.70541   8.38016 131.67311
  2.75551   8.73365 132.11067
  2.80561   9.04317 132.56374
  2.85571   9.14313 133.02181
  2.90581  10.08898 133.52727
  2.95591  10.75073 134.06588
  3.00601   8.32551 134.48299
  3.05611   7.06928 134.83716
  3.10621   6.37058 135.15633
  3.15631   5.54843 135.43431
  3.20641   5.39798 135.70475
  3.25651   5.19902 135.96522
  3.30661   6.65876 136.29883
  3.35671   7.25096 136.66210
  3.40681   8.69539 137.09774
  3.45691   9.61987 137.57970
  3.50701   9.38436 138.04986
  3.55711   9.27855 138.51471
  3.60721   9.30432 138.98086
  3.65731   8.48233 139.40583
  3.70741   7.87415 139.80033
  3.75752   5.40113 140.07092
  3.80762   4.12693 140.27768
  3.85772   4.48055 140.50216
  3.90782   4.83837 140.74456
  3.95792   4.76278 140.98318
  4.00802   5.64821 141.26616
  4.05812   5.37807 141.53560
  4.10822   4.80200 141.77618
  4.15832   4.91209 142.02228
  4.20842   5.08464 142.27702
  4.25852   5.09558 142.53231
  4.30862   5.27444 142.79656
  4.35872   5.49563 143.07189
  4.40882   5.83159 143.36405
  4.45892   6.35873 143.68263
  4.50902   6.64005 144.01530
  4.55912   6.32791 144.33232
  4.60922   6.01726 144.63379
  4.65932   6.08220 144.93851
  4.70942   6.17381 145.24782
  4.75952   6.40698 145.56881
  4.80962   6.63701 145.90133
  4.85972   6.54060 146.22901
  4.90982   7.16221 146.58784
  4.95992   7.10151 146.94363
  5.01002   6.95630 147.29214
  5.06012   6.79479 147.63256
  5.11022   6.79847 147.97316
  5.16032   6.96326 148.32202
  5.21042   7.34726 148.69012
  5.26052   7.65648 149.07371
  5.31062   7.71339 149.46016
  5.36072   7.87249 149.85457
  5.41082   8.43902 150.27737
  5.46092   9.31142 150.74387
  5.51102   9.15303 151.20244
  5.56112   9.55600 151.68120
  5.61122   9.64064 152.16419
  5.66132   9.77716 152.65403
  5.71142   9.98951 153.15451
  5.76152  10.25441 153.66826
  5.81162  10.71547 154.20510
  5.86172  10.79398 154.74588
  5.91182  10.65157 155.27953
  5.96192  10.41576 155.80136
  6.01202  10.39322 156.32206
  6.06212  10.32124 156.83916
  6.11222  10.81844 157.38117
  6.16232  10.72794 157.91864
  6.21242  10.44706 158.44204
  6.26253  10.26903 158.95652
  6.31263   9.34610 159.42476
  6.36273   8.76810 159.86404
  6.41283   9.81278 160.35567
  6.46293   9.75313 160.84430
  6.51303   8.28035 161.25915
  6.56313   7.40597 161.63019
  6.61323   8.98209 162.08019
  6.66333   8.96423 162.52930
  6.71343   8.93357 162.97688
  6.76353   8.85360 163.42044
  6.81363   8.18421 163.83047
  6.86373   7.45927 164.20418
  6.91383   7.70013 164.58996
  6.96393   7.96508 164.98901
  7.01403   8.22257 165.40097
  7.06413   8.41842 165.82273
  7.11423   8.88499 166.26787
  7.16433   8.86589 166.71205
  7.21443   9.04031 167.16497
  7.26453   9.31815 167.63182
  7.31463   8.46143 168.05574
  7.36473   8.52263 168.48272
  7.41483   9.91382 168.97940
  7.46493  10.59499 169.51022
  7.51503  12.28947 170.12592
  7.56513  13.80941 170.81778
  7.61523  12.92301 171.46522
  7.66533  11.61339 172.04705
  7.71543  10.35352 172.56577
  7.76553   9.11676 173.02252
  7.81563   8.40870 173.44380
  7.86573   8.36514 173.86289
  7.91583   8.79022 174.30328
  7.96593   8.78260 174.74329
  8.01603   8.71526 175.17993
  8.06613   8.60406 175.61099
  8.11623   8.03287 176.01344
  8.16633   7.71900 176.40017
  8.21643   7.80291 176.79109
  8.26653   8.23499 177.20367
  8.31663   8.29593 177.61930
  8.36673   7.97786 178.01899
  8.41683   8.10241 178.42492
  8.46693   8.19346 178.83542
  8.51703   7.97342 179.23489
  8.56713   8.25761 179.64859
  8.61723   8.90879 180.09492
  8.66733   9.26534 180.55912
  8.71743   9.58892 181.03953
  8.76754   9.69742 181.52537
  8.81764   9.64157 182.00841
  8.86774   9.25644 182.47216
  8.91784   9.69477 182.95787
  8.96794  10.45255 183.48155
  9.01804  10.44816 184.00500
      9.01803607     -16.03206413   501       9.03479109       1.00000000; Z= 42; 5s 4p_y 4p_z 4p_x 4d_xy 4d_yz 4d_z^2 4d_xz 4d_x^2-y^2 
-16.03206   0.00000   0.00000   0.00000   0.00000   0.00000   0.00000   0.00000   0.00000   0.00000
-15.98196   0.00000   0.00000   0.00000   0.00000   0.00000   0.00000   0.00000   0.00000   0.00000
-15.93186   0.00000   0.00000   0.00000   0.00000   0.00000   0.00000   0.00000   0.00000   0.00000
-15.88176   0.00000   0.00000   0.00000   0.00000   0.00000   0.00000   0.00000   0.00000   0.00000
-15.83166   0.00000   0.00000   0.00000   0.00000   0.00000   0.00000   0.00000   0.00000   0.00000
-15.78156   0.00000   0.00000   0.00000   0.00000   0.00000   0.00000   0.00000   0.00000   0.00000
-15.73146   0.00000   0.00000   0.00000   0.00000   0.00000   0.00000   0.00000   0.00000   0.00000
-15.68136   0.00000   0.00000   0.00000   0.00000   0.00000   0.00000   0.00000   0.00000   0.00000
-15.63126   0.00000   0.00000   0.00000   0.00000   0.00000   0.00000   0.00000   0.00000   0.00000
-15.58116   0.00000   0.00000   0.00000   0.00000   0.00000   0.00000   0.00000   0.00000   0.00000
-15.53106   0.00000   0.00000   0.00000   0.00000   0.00000   0.00000   0.00000   0.00000   0.00000
-15.48096   0.00000   0.00000   0.00000   0.00000   0.00000   0.00000   0.00000   0.00000   0.00000
-15.43086   0.00000   0.00000   0.00000   0.00000   0.00000   0.00000   0.00000   0.00000   0.00000
-15.38076   0.00000   0.00000   0.00000   0.00000   0.00000   0.00000   0.00000   0.00000   0.00000
-15.33066   0.00000   0.00000   0.00000   0.00000   0.00000   0.00000   0.00000   0.00000   0.00000
-15.28056   0.00000   0.00000   0.00000   0.00000   0.00000   0.00000   0.00000   0.00000   0.00000
-15.23046   0.00000   0.00000   0.00000   0.00000   0.00000   0.00000   0.00000   0.00000   0.00000
-15.18036   0.00000   0.00000   0.00000   0.00000   0.00000   0.00000   0.00000   0.00000   0.00000
-15.13026   0.00000   0.00000   0.00000   0.00000   0.00000   0.00000   0.00000   0.00000   0.00000
-15.08016   0.00000   0.00000   0.00000   0.00000   0.00000   0.00000   0.00000   0.00000   0.00000
-15.03006   0.00000   0.00000   0.00000   0.00000   0.00000   0.00000   0.00000   0.00000   0.00000
-14.97996   0.00000   0.00000   0.00000   0.00000   0.00000   0.00000   0.00000   0.00000   0.00000
-14.92986   0.00000   0.00000   0.00000   0.00000   0.00000   0.00000   0.00000   0.00000   0.00000
-14.87976   0.00000   0.00000   0.00000   0.00000   0.00000   0.00000   0.00000   0.00000   0.00000
-14.82966   0.00000   0.00000   0.00000   0.00000   0.00000   0.00000   0.00000   0.00000   0.00000
-14.77956   0.00000   0.00000   0.00000   0.00000   0.00000   0.00000   0.00000   0.00000   0.00000
-14.72946   0.00182   0.00000  -0.00000   0.00000  -0.00000   0.00000   0.00012   0.00000  -0.00000
-14.67936   0.00752   0.00000  -0.00000   0.00001  -0.00000   0.00000   0.00049   0.00000   0.00000
-14.62926   0.01070   0.00001  -0.00001   0.00002   0.00000   0.00000   0.00072   0.00000   0.00000
-14.57916   0.01258   0.00001  -0.00001   0.00003   0.00000   0.00001   0.00088   0.00001   0.00000
-14.52906   0.01417   0.00002  -0.00001   0.00004   0.00001   0.00002   0.00103   0.00001   0.00001
-14.47896   0.01605   0.00002  -0.00001   0.00005   0.00001   0.00003   0.00120   0.00002   0.00001
-14.42886   0.01712   0.00002  -0.00002   0.00005   0.00002   0.00004   0.00132   0.00004   0.00002
-14.37876   0.01808   0.00003  -0.00002   0.00006   0.00002   0.00006   0.00144   0.00005   0.00003
-14.32866   0.01922   0.00003  -0.00003   0.00007   0.00003   0.00008   0.00157   0.00008   0.00004
-14.27856   0.02050   0.00004  -0.00004   0.00008   0.00004   0.00011   0.00171   0.00010   0.00005
-14.22846   0.02126   0.00005  -0.00006   0.00009   0.00006   0.00015   0.00182   0.00013   0.00006
-14.17836   0.02190   0.00006  -0.00008   0.00012   0.00007   0.00019   0.00193   0.00017   0.00008
-14.12826   0.02266   0.00008  -0.00009   0.00014   0.00009   0.00024   0.00205   0.00022   0.00010
-14.07816   0.02354   0.00010  -0.00011   0.00017   0.00011   0.00029   0.00217   0.00027   0.00012
-14.02806   0.02656   0.00011  -0.00015   0.00020   0.00013   0.00037   0.00234   0.00034   0.00014
-13.97796   0.02630   0.00013  -0.00017   0.00023   0.00015   0.00046   0.00245   0.00042   0.00016
-13.92786   0.02550   0.00015  -0.00018   0.00026   0.00018   0.00055   0.00255   0.00051   0.00019
-13.87776   0.02491   0.00017  -0.00019   0.00029   0.00020   0.00063   0.00264   0.00059   0.00022
-13.82766   0.02441   0.00019  -0.00020   0.00033   0.00023   0.00073   0.00273   0.00067   0.00026
-13.77756   0.02567   0.00021  -0.00024   0.00037   0.00026   0.00084   0.00285   0.00079   0.00029
-13.72745   0.02782   0.00024  -0.00029   0.00043   0.00031   0.00100   0.00309   0.00093   0.00035
-13.67735   0.02832   0.00024  -0.00032   0.00045   0.00033   0.00116   0.00316   0.00108   0.00038
-13.62725   0.02943   0.00029  -0.00037   0.00053   0.00040   0.00137   0.00348   0.00128   0.00049
-13.57715   0.02814   0.00025  -0.00042   0.00044   0.00039   0.00159   0.00324   0.00149   0.00049
-13.52705   0.02609   0.00021  -0.00048   0.00035   0.00036   0.00182   0.00284   0.00169   0.00046
-13.47695   0.02586   0.00020  -0.00054   0.00032   0.00038   0.00205   0.00281   0.00189   0.00050
-13.42685   0.02748   0.00021  -0.00061   0.00031   0.00047   0.00231   0.00314   0.00210   0.00058
-13.37675   0.02985   0.00021  -0.00067   0.00032   0.00061   0.00264   0.00365   0.00236   0.00068
-13.32665   0.03145   0.00023  -0.00075   0.00033   0.00072   0.00301   0.00403   0.00264   0.00079
-13.27655   0.03480   0.00026  -0.00084   0.00033   0.00094   0.00348   0.00496   0.00294   0.00091
-13.22645   0.03772   0.00026  -0.00093   0.00034   0.00109   0.00408   0.00550   0.00334   0.00101
-13.17635   0.03700   0.00024  -0.00103   0.00031   0.00110   0.00475   0.00534   0.00382   0.00105
-13.12625   0.03954   0.00023  -0.00122   0.00030   0.00119   0.00622   0.00569   0.00491   0.00119
-13.07615   0.04212   0.00023  -0.00139   0.00030   0.00127   0.00805   0.00601   0.00629   0.00135
-13.02605   0.03790   0.00022  -0.00146   0.00029   0.00120   0.00728   0.00548   0.00609   0.00126
-12.97595   0.03916   0.00022  -0.00163   0.00028   0.00124   0.00860   0.00578   0.00690   0.00136
-12.92585   0.03432   0.00025  -0.00156   0.00030   0.00123   0.00728   0.00551   0.00609   0.00132
-12.87575   0.03140   0.00028  -0.00156   0.00034   0.00131   0.00586   0.00553   0.00508   0.00134
-12.82565   0.02639   0.00024  -0.00179   0.00033   0.00132   0.00499   0.00493   0.00425   0.00128
-12.77555   0.02896   0.00026  -0.00250   0.00037   0.00156   0.00690   0.00557   0.00603   0.00148
-12.72545   0.03115   0.00026  -0.00337   0.00038   0.00170   0.00959   0.00611   0.00848   0.00164
-12.67535   0.03052   0.00025  -0.00413   0.00037   0.00177   0.01147   0.00622   0.01039   0.00180
-12.62525   0.02851   0.00025  -0.00462   0.00038   0.00193   0.01308   0.00617   0.01251   0.00194
-12.57515   0.02429   0.00023  -0.00420   0.00035   0.00188   0.01328   0.00563   0.01247   0.00187
-12.52505   0.02106   0.00019  -0.00381   0.00029   0.00183   0.01378   0.00512   0.01281   0.00181
-12.47495   0.02097   0.00022  -0.00463   0.00032   0.00214   0.01680   0.00558   0.01532   0.00214
-12.42485   0.02183   0.00030  -0.00504   0.00040   0.00254   0.01948   0.00645   0.01707   0.00264
-12.37475   0.02242   0.00040  -0.00530   0.00043   0.00316   0.02290   0.00737   0.02037   0.00308
-12.32465   0.02017   0.00033  -0.00497   0.00037   0.00305   0.02572   0.00690   0.02289   0.00299
-12.27455   0.01702   0.00021  -0.00465   0.00027   0.00284   0.02785   0.00601   0.02538   0.00276
-12.22445   0.01578   0.00016  -0.00406   0.00023   0.00290   0.02844   0.00584   0.02694   0.00282
-12.17435   0.01563   0.00014  -0.00387   0.00021   0.00315   0.03118   0.00606   0.03062   0.00304
-12.12425   0.01529   0.00015  -0.00390   0.00021   0.00332   0.03532   0.00625   0.03649   0.00324
-12.07415   0.01484   0.00015  -0.00365   0.00020   0.00344   0.03592   0.00637   0.04047   0.00339
-12.02405   0.01441   0.00015  -0.00357   0.00018   0.00362   0.03717   0.00655   0.04346   0.00352
-11.97395   0.01457   0.00015  -0.00363   0.00017   0.00393   0.03941   0.00697   0.04683   0.00381
-11.92385   0.01520   0.00017  -0.00343   0.00018   0.00432   0.04012   0.00755   0.05044   0.00425
-11.87375   0.01409   0.00013  -0.00321   0.00013   0.00435   0.03976   0.00729   0.05073   0.00430
-11.82365   0.01335   0.00010  -0.00322   0.00010   0.00446   0.04209   0.00721   0.05390   0.00443
-11.77355   0.01364   0.00009  -0.00335   0.00008   0.00489   0.04640   0.00774   0.05943   0.00488
-11.72345   0.01323   0.00005  -0.00333   0.00002   0.00516   0.04963   0.00788   0.06497   0.00524
-11.67335   0.01268   0.00002  -0.00319  -0.00005   0.00564   0.05005   0.00804   0.06861   0.00589
-11.62325   0.01229  -0.00001  -0.00312  -0.00010   0.00602   0.05127   0.00818   0.07316   0.00635
-11.57315   0.01238  -0.00000  -0.00312  -0.00012   0.00646   0.05534   0.00864   0.08293   0.00705
-11.52305   0.01434   0.00001  -0.00301  -0.00009   0.00732   0.06496   0.01034   0.10129   0.00828
-11.47295   0.01516  -0.00005  -0.00239  -0.00010   0.00767   0.07003   0.01134   0.09782   0.00887
-11.42285   0.01098  -0.00017  -0.00175  -0.00019   0.00638   0.07033   0.00899   0.09207   0.00693
-11.37275   0.00721  -0.00025  -0.00126  -0.00025   0.00506   0.06586   0.00698   0.07482   0.00471
-11.32265   0.00531  -0.00029  -0.00077  -0.00028   0.00433   0.05566   0.00603   0.05188   0.00363
-11.27255   0.00511  -0.00036  -0.00078  -0.00033   0.00437   0.06234   0.00633   0.05363   0.00373
-11.22244   0.00574  -0.00050  -0.00089  -0.00047   0.00506   0.06560   0.00755   0.05864   0.00510
-11.17234   0.00595  -0.00075  -0.00115  -0.00076   0.00597   0.08064   0.00833   0.06574   0.00661
-11.12224   0.00524  -0.00095  -0.00128  -0.00095   0.00609   0.08715   0.00767   0.06467   0.00626
-11.07214   0.00487  -0.00103  -0.00128  -0.00105   0.00657   0.09016   0.00748   0.06403   0.00632
-11.02204   0.00461  -0.00106  -0.00121  -0.00108   0.00704   0.08533   0.00753   0.06189   0.00648
-10.97194   0.00444  -0.00105  -0.00110  -0.00106   0.00748   0.08082   0.00768   0.05962   0.00672
-10.92184   0.00500  -0.00105  -0.00099  -0.00105   0.00960   0.07587   0.00980   0.05697   0.00797
-10.87174   0.00535  -0.00104  -0.00082  -0.00104   0.01127   0.06647   0.01113   0.05201   0.00887
-10.82164   0.00501  -0.00100  -0.00063  -0.00100   0.01096   0.05534   0.01013   0.04456   0.00880
-10.77154   0.00437  -0.00088  -0.00052  -0.00089   0.00972   0.04696   0.00865   0.03915   0.00804
-10.72144   0.00397  -0.00076  -0.00042  -0.00082   0.00903   0.04006   0.00805   0.03517   0.00775
-10.67134   0.00395  -0.00070  -0.00036  -0.00077   0.00936   0.03443   0.00841   0.03085   0.00822
-10.62124   0.00311  -0.00069  -0.00031  -0.00074   0.00756   0.03034   0.00646   0.02766   0.00674
-10.57114   0.00244  -0.00059  -0.00024  -0.00064   0.00595   0.02585   0.00491   0.02384   0.00537
-10.52104   0.00210  -0.00052  -0.00019  -0.00058   0.00528   0.02259   0.00424   0.02093   0.00481
-10.47094   0.00190  -0.00052  -0.00016  -0.00058   0.00505   0.02092   0.00390   0.01947   0.00462
-10.42084   0.00175  -0.00050  -0.00014  -0.00056   0.00502   0.01972   0.00372   0.01828   0.00460
-10.37074   0.00165  -0.00053  -0.00012  -0.00056   0.00534   0.01463   0.00379   0.01372   0.00489
-10.32064   0.00160  -0.00064  -0.00011  -0.00062   0.00650   0.01271   0.00446   0.01192   0.00599
-10.27054   0.00211  -0.00075  -0.00012  -0.00072   0.00930   0.01111   0.00670   0.01030   0.00844
-10.22044   0.00113  -0.00082  -0.00013  -0.00058   0.00815   0.00968   0.00524   0.00889   0.00743
-10.17034   0.00103  -0.00081  -0.00014  -0.00054   0.00838   0.00816   0.00508   0.00750   0.00767
-10.12024   0.00101  -0.00063  -0.00016  -0.00044   0.00830   0.00660   0.00493   0.00613   0.00738
-10.07014   0.00121  -0.00070  -0.00021  -0.00047   0.01057   0.00716   0.00609   0.00663   0.00937
-10.02004   0.00147  -0.00076  -0.00030  -0.00051   0.01329   0.00746   0.00755   0.00698   0.01179
 -9.96994   0.00135  -0.00068  -0.00032  -0.00048   0.01286   0.01159   0.00671   0.01077   0.01140
 -9.91984   0.00121  -0.00068  -0.00030  -0.00048   0.01281   0.01188   0.00623   0.01104   0.01144
 -9.86974   0.00125  -0.00062  -0.00034  -0.00041   0.01371   0.00694   0.00666   0.00644   0.01215
 -9.81964   0.00155  -0.00084  -0.00045  -0.00068   0.01744   0.01044   0.00795   0.00985   0.01540
 -9.76954   0.00154  -0.00081  -0.00053  -0.00064   0.01788   0.01678   0.00799   0.01588   0.01544
 -9.71944   0.00202  -0.00105  -0.00068  -0.00091   0.02261   0.02531   0.00974   0.02415   0.01960
 -9.66934   0.00209  -0.00107  -0.00084  -0.00094   0.02498   0.02853   0.01010   0.02702   0.02175
 -9.61924   0.00218  -0.00126  -0.00106  -0.00114   0.02944   0.03177   0.01059   0.03029   0.02599
 -9.56914   0.00216  -0.00130  -0.00114  -0.00118   0.03063   0.03155   0.01043   0.02988   0.02698
 -9.51904   0.00219  -0.00134  -0.00127  -0.00123   0.03215   0.03320   0.01056   0.03134   0.02841
 -9.46894   0.00212  -0.00134  -0.00140  -0.00124   0.03277   0.03482   0.01025   0.03273   0.02903
 -9.41884   0.00190  -0.00134  -0.00151  -0.00125   0.03315   0.03690   0.00938   0.03450   0.02927
 -9.36874   0.00177  -0.00128  -0.00160  -0.00120   0.03363   0.03855   0.00889   0.03593   0.02960
 -9.31864   0.00168  -0.00128  -0.00165  -0.00121   0.03401   0.03966   0.00864   0.03687   0.03020
 -9.26854   0.00163  -0.00132  -0.00172  -0.00126   0.03492   0.04085   0.00861   0.03793   0.03120
 -9.21844   0.00160  -0.00130  -0.00178  -0.00123   0.03468   0.04132   0.00868   0.03831   0.03123
 -9.16834   0.00160  -0.00140  -0.00185  -0.00133   0.03563   0.04180   0.00927   0.03849   0.03235
 -9.11824   0.00152  -0.00116  -0.00168  -0.00120   0.03268   0.03697   0.00778   0.03339   0.02939
 -9.06814   0.00147  -0.00104  -0.00158  -0.00115   0.03192   0.03346   0.00717   0.02925   0.02819
 -9.01804   0.00163  -0.00097  -0.00162  -0.00108   0.03071   0.03269   0.00727   0.02820   0.02739
 -8.96794   0.00257  -0.00089  -0.00177  -0.00097   0.02874   0.03170   0.00880   0.02704   0.02625
 -8.91784   0.00436  -0.00087  -0.00236  -0.00094   0.02799   0.03136   0.01233   0.02687   0.02623
 -8.86774   0.00480  -0.00098  -0.00230  -0.00105   0.02899   0.03160   0.01340   0.02742   0.02854
 -8.81764   0.00544  -0.00103  -0.00233  -0.00109   0.02820   0.03134   0.01425   0.02821   0.02935