   24   24    1    1
  0.8602741E+01  0.6071501E-09  0.6071501E-09  0.6465832E-09  0.5000000E-15
   1.0000000000000000E-004
  CAR 
 Name                                    
     94    666    136

  0.3742002E-15  0.3742002E-15  0.3742002E-15  0.7513148E-03
    1       -5.735276   1.000000
    2       -3.651737   1.000000
    3       -2.522763   1.000000
    4       -2.400394   1.000000
    5       -2.280928   1.000000
    6       -1.813365   1.000000
    7       -1.808086   1.000000
    8       -1.804827   1.000000
    9       -1.324624   1.000000
   10       -1.297007   1.000000
   11       -1.269874   1.000000
   12       -0.033527   1.000000
   13        0.339599   1.000000
   14        0.424260   1.000000
   15        0.493070   1.000000
   16        2.489100   1.000000
   17        2.521284   1.000000
   18        2.648506   1.000000
   19        2.807194   1.000000
   20        3.006131   1.000000
   21        3.129595   1.000000
   22        3.478666   1.000000
   23        3.794465   1.000000
   24        3.870430   1.000000
   25        4.014222   1.000000
   26        4.250375   1.000000
   27        4.395698   1.000000
   28        4.540454   1.000000
   29        4.579874   1.000000
   30        4.603222   1.000000
   31        4.610913   1.000000
   32        4.646439   1.000000
   33        4.852391   1.000000
   34        4.949978   1.000000
   35        5.010200   1.000000
   36        5.018308   1.000000
   37        5.671681   1.000000
   38        6.734196   1.000000
   39        6.808640   1.000000
   40        7.245965   1.000000
   41        7.256331   1.000000
   42        7.269524   1.000000
   43        7.292384   1.000000
   44        8.379064   1.000000
   45        8.397331   1.000000
   46        8.506996   1.000000
   47        8.855968   1.000000
   48        9.117202  -0.165921
   49        9.126492   0.000000
   50        9.813997   0.000000
   51        9.887802   0.000000
   52        9.980259   0.000000
   53       10.090703   0.000000
   54       10.118294   0.000000
   55       10.170127   0.000000
   56       10.260888   0.000000
   57       10.432443   0.000000
   58       10.513884   0.000000
   59       10.875575   0.000000
   60       10.949487   0.000000
   61       11.001360   0.000000
   62       11.048087   0.000000
   63       11.224082   0.000000
   64       11.370584   0.000000
   65       11.490843   0.000000
   66       11.549093   0.000000
   67       12.332059   0.000000
   68       12.332777   0.000000
   69       12.621979   0.000000
   70       12.628418   0.000000
   71       13.032388   0.000000
   72       13.122530   0.000000
   73       13.134033   0.000000
   74       13.194537   0.000000
   75       13.382075   0.000000
   76       13.627821   0.000000
   77       13.682869   0.000000
   78       14.077276   0.000000
   79       14.104247   0.000000
   80       14.131818   0.000000
   81       14.202962   0.000000
   82       14.523301   0.000000
   83       15.354478   0.000000
   84       15.457886   0.000000
   85       15.460235   0.000000
   86       16.097216   0.000000
   87       16.173307   0.000000
   88       16.352830   0.000000
   89       16.554288   0.000000
   90       16.567131   0.000000
   91       16.677609   0.000000
   92       17.417190   0.000000
   93       17.475888   0.000000
   94       17.590198   0.000000
   95       19.256431   0.000000
   96       19.341673   0.000000
   97       19.489644   0.000000
   98       19.499874   0.000000
   99       19.843629   0.000000
  100       20.853990   0.000000
  101       20.922759   0.000000
  102       21.243444   0.000000
  103       21.336430   0.000000
  104       21.882394   0.000000
  105       22.139351   0.000000
  106       22.143862   0.000000
  107       22.430883   0.000000
  108       22.555997   0.000000
  109       22.648963   0.000000
  110       23.382695   0.000000
  111       23.665100   0.000000
  112       23.857145   0.000000
  113       23.949539   0.000000
  114       24.110574   0.000000
  115       24.229263   0.000000
  116       24.247848   0.000000
  117       24.268376   0.000000
  118       24.300992   0.000000
  119       24.403826   0.000000
  120       25.117271   0.000000
  121       25.125224   0.000000
  122       25.206659   0.000000
  123       25.282202   0.000000
  124       25.403914   0.000000
  125       25.537383   0.000000
  126       25.615714   0.000000
  127       25.914669   0.000000
  128       26.082364   0.000000
  129       26.186828   0.000000
  130       26.429511   0.000000
  131       26.577650   0.000000
  132       26.905868   0.000000
  133       26.937257   0.000000
  134       27.434806   0.000000
  135       29.058708   0.000000
  136       29.074759   0.000000

  0.9090909E-01  0.3808283E-15  0.3742002E-15  0.1502630E-02
    1       -5.694934   1.000000
    2       -3.637865   1.000000
    3       -2.540815   1.000000
    4       -2.391964   1.000000
    5       -2.310133   1.000000
    6       -2.239240   1.000000
    7       -1.934238   1.000000
    8       -1.929882   1.000000
    9       -1.122180   1.000000
   10       -1.118374   1.000000
   11       -0.843310   1.000000
   12        0.024096   1.000000
   13        0.383663   1.000000
   14        0.409740   1.000000
   15        0.546642   1.000000
   16        2.502767   1.000000
   17        2.524038   1.000000
   18        2.670969   1.000000
   19        2.812265   1.000000
   20        3.037908   1.000000
   21        3.122827   1.000000
   22        3.510168   1.000000
   23        3.758678   1.000000
   24        3.820975   1.000000
   25        3.866914   1.000000
   26        3.882676   1.000000
   27        4.365024   1.000000
   28        4.421637   1.000000
   29        4.538831   1.000000
   30        4.569856   1.000000
   31        4.637834   1.000000
   32        4.918666   1.000000
   33        4.931263   1.000000
   34        4.987411   1.000000
   35        5.102208   1.000000
   36        5.212213   1.000000
   37        5.592208   1.000000
   38        6.238074   1.000000
   39        6.297435   1.000000
   40        7.151521   1.000000
   41        7.303055   1.000000
   42        7.740048   1.000000
   43        7.805348   1.000000
   44        8.205436   1.000000
   45        8.238357   1.000000
   46        8.478353   1.000000
   47        8.874557   1.000000
   48        9.104171  -0.094069
   49        9.237622   0.000000
   50        9.802013   0.000000
   51        9.881897   0.000000
   52        9.961285   0.000000
   53       10.037776   0.000000
   54       10.049027   0.000000
   55       10.140564   0.000000
   56       10.227737   0.000000
   57       10.428308   0.000000
   58       10.468915   0.000000
   59       10.780955   0.000000
   60       10.885799   0.000000
   61       10.905413   0.000000
   62       11.162560   0.000000
   63       11.280640   0.000000
   64       11.349709   0.000000
   65       11.453095   0.000000
   66       11.518076   0.000000
   67       12.090061   0.000000
   68       12.321175   0.000000
   69       12.376678   0.000000
   70       12.628310   0.000000
   71       12.715409   0.000000
   72       13.088929   0.000000
   73       13.364546   0.000000
   74       13.577900   0.000000
   75       13.797432   0.000000
   76       13.867750   0.000000
   77       13.921779   0.000000
   78       14.077476   0.000000
   79       14.182967   0.000000
   80       14.256174   0.000000
   81       14.335874   0.000000
   82       14.662848   0.000000
   83       15.371804   0.000000
   84       15.549170   0.000000
   85       15.575046   0.000000
   86       16.024706   0.000000
   87       16.306280   0.000000
   88       16.497718   0.000000
   89       16.501007   0.000000
   90       16.604971   0.000000
   91       16.732306   0.000000
   92       17.274422   0.000000
   93       17.551056   0.000000
   94       17.632755   0.000000
   95       18.904720   0.000000
   96       18.923882   0.000000
   97       19.225127   0.000000
   98       19.419763   0.000000
   99       19.758188   0.000000
  100       21.001756   0.000000
  101       21.366156   0.000000
  102       21.496388   0.000000
  103       21.728542   0.000000
  104       21.733985   0.000000
  105       22.104033   0.000000
  106       22.140540   0.000000
  107       22.204318   0.000000
  108       22.256306   0.000000
  109       22.414325   0.000000
  110       23.126710   0.000000
  111       23.500390   0.000000
  112       23.565489   0.000000
  113       23.609776   0.000000
  114       24.221094   0.000000
  115       24.241586   0.000000
  116       24.264697   0.000000
  117       24.329699   0.000000
  118       24.335007   0.000000
  119       24.364443   0.000000
  120       25.103281   0.000000
  121       25.192116   0.000000
  122       25.244435   0.000000
  123       25.381854   0.000000
  124       25.501394   0.000000
  125       25.685897   0.000000
  126       25.730429   0.000000
  127       25.814681   0.000000
  128       26.056843   0.000000
  129       26.093602   0.000000
  130       26.480252   0.000000
  131       26.551089   0.000000
  132       26.975836   0.000000
  133       27.170032   0.000000
  134       27.442851   0.000000
  135       28.140189   0.000000
  136       28.261858   0.000000

  0.1818182E+00  0.3821840E-15  0.3742002E-15  0.1502630E-02
    1       -5.574663   1.000000
    2       -3.596042   1.000000
    3       -2.819872   1.000000
    4       -2.626400   1.000000
    5       -2.369120   1.000000
    6       -2.344509   1.000000
    7       -2.126471   1.000000
    8       -2.123469   1.000000
    9       -0.771563   1.000000
   10       -0.766712   1.000000
   11       -0.194926   1.000000
   12        0.196214   1.000000
   13        0.371026   1.000000
   14        0.379649   1.000000
   15        0.821649   1.000000
   16        2.523117   1.000000
   17        2.529292   1.000000
   18        2.757990   1.000000
   19        2.765181   1.000000
   20        3.129336   1.000000
   21        3.130014   1.000000
   22        3.259716   1.000000
   23        3.295331   1.000000
   24        3.601156   1.000000
   25        3.900033   1.000000
   26        3.918560   1.000000
   27        4.103738   1.000000
   28        4.451514   1.000000
   29        4.534521   1.000000
   30        4.599208   1.000000
   31        4.659906   1.000000
   32        4.838618   1.000000
   33        4.880390   1.000000
   34        4.925054   1.000000
   35        5.384340   1.000000
   36        5.517714   1.000000
   37        5.628708   1.000000
   38        5.654459   1.000000
   39        5.726435   1.000000
   40        6.890432   1.000000
   41        7.447530   1.000000
   42        7.770844   1.000000
   43        7.776535   1.000000
   44        8.382882   1.000000
   45        8.439369   1.000000
   46        8.603181   1.000000
   47        8.929504   1.011113
   48        9.060513   0.148351
   49        9.548047   0.000000
   50        9.759900   0.000000
   51        9.795478   0.000000
   52        9.795754   0.000000
   53        9.876839   0.000000
   54        9.924332   0.000000
   55       10.029060   0.000000
   56       10.063244   0.000000
   57       10.379827   0.000000
   58       10.412547   0.000000
   59       10.524131   0.000000
   60       10.803704   0.000000
   61       10.812154   0.000000
   62       10.826489   0.000000
   63       10.949722   0.000000
   64       11.290018   0.000000
   65       11.652412   0.000000
   66       11.891643   0.000000
   67       11.978918   0.000000
   68       12.197248   0.000000
   69       12.282289   0.000000
   70       12.357638   0.000000
   71       12.650991   0.000000
   72       12.995921   0.000000
   73       13.965183   0.000000
   74       14.002468   0.000000
   75       14.118767   0.000000
   76       14.262906   0.000000
   77       14.298705   0.000000
   78       14.531041   0.000000
   79       14.617644   0.000000
   80       14.663528   0.000000
   81       14.678397   0.000000
   82       15.080099   0.000000
   83       15.353313   0.000000
   84       15.815530   0.000000
   85       15.839333   0.000000
   86       15.879791   0.000000
   87       16.322294   0.000000
   88       16.412305   0.000000
   89       16.665852   0.000000
   90       16.901554   0.000000
   91       16.911482   0.000000
   92       17.162471   0.000000
   93       17.736561   0.000000
   94       17.747640   0.000000
   95       18.024285   0.000000
   96       18.058146   0.000000
   97       18.838085   0.000000
   98       19.456255   0.000000
   99       20.146213   0.000000
  100       20.989583   0.000000
  101       21.135802   0.000000
  102       21.313295   0.000000
  103       21.494685   0.000000
  104       21.514188   0.000000
  105       21.533513   0.000000
  106       21.982662   0.000000
  107       22.110538   0.000000
  108       22.352519   0.000000
  109       22.836167   0.000000
  110       22.840245   0.000000
  111       22.928586   0.000000
  112       23.138211   0.000000
  113       23.205807   0.000000
  114       24.027870   0.000000
  115       24.369033   0.000000
  116       24.404256   0.000000
  117       24.406508   0.000000
  118       24.468688   0.000000
  119       24.525313   0.000000
  120       24.973958   0.000000
  121       24.987051   0.000000
  122       25.465261   0.000000
  123       25.471320   0.000000
  124       25.485169   0.000000
  125       25.543719   0.000000
  126       25.704870   0.000000
  127       25.798637   0.000000
  128       25.964026   0.000000
  129       26.539004   0.000000
  130       26.685550   0.000000
  131       26.825529   0.000000
  132       27.077410   0.000000
  133       27.169530   0.000000
  134       27.210926   0.000000
  135       27.453706   0.000000
  136       27.828752   0.000000

  0.2727273E+00  0.3502790E-15  0.3742002E-15  0.1502630E-02
    1       -5.376654   1.000000
    2       -3.525797   1.000000
    3       -3.376937   1.000000
    4       -2.785890   1.000000
    5       -2.338814   1.000000
    6       -2.338242   1.000000
    7       -2.286339   1.000000
    8       -2.284297   1.000000
    9       -0.359477   1.000000
   10       -0.352879   1.000000
   11        0.321052   1.000000
   12        0.336628   1.000000
   13        0.425082   1.000000
   14        0.524434   1.000000
   15        1.269136   1.000000
   16        2.529972   1.000000
   17        2.531297   1.000000
   18        2.532289   1.000000
   19        2.716694   1.000000
   20        2.719434   1.000000
   21        2.928802   1.000000
   22        3.230687   1.000000
   23        3.270288   1.000000
   24        3.660754   1.000000
   25        3.737816   1.000000
   26        3.962036   1.000000
   27        4.025201   1.000000
   28        4.468766   1.000000
   29        4.564085   1.000000
   30        4.654511   1.000000
   31        4.700586   1.000000
   32        4.723452   1.000000
   33        4.778045   1.000000
   34        4.833297   1.000000
   35        4.929926   1.000000
   36        5.079318   1.000000
   37        5.107342   1.000000
   38        6.141714   1.000000
   39        6.260170   1.000000
   40        6.558553   1.000000
   41        7.293141   1.000000
   42        7.308179   1.000000
   43        7.677522   1.000000
   44        8.543334   1.000000
   45        8.934752   1.000000
   46        8.992915   0.993330
   47        9.017825   0.655544
   48        9.306318  -0.033274
   49        9.364674   0.000000
   50        9.366928   0.000000
   51        9.658209   0.000000
   52        9.678606   0.000000
   53        9.842824   0.000000
   54        9.870392   0.000000
   55        9.977234   0.000000
   56        9.977588   0.000000
   57       10.037349   0.000000
   58       10.210136   0.000000
   59       10.490265   0.000000
   60       10.495934   0.000000
   61       10.579925   0.000000
   62       10.821864   0.000000
   63       10.824441   0.000000
   64       11.274846   0.000000
   65       11.360099   0.000000
   66       11.795905   0.000000
   67       11.925117   0.000000
   68       12.015496   0.000000
   69       12.555753   0.000000
   70       12.864177   0.000000
   71       12.900640   0.000000
   72       12.910726   0.000000
   73       14.143396   0.000000
   74       14.218026   0.000000
   75       14.613142   0.000000
   76       14.634677   0.000000
   77       15.057807   0.000000
   78       15.078415   0.000000
   79       15.080772   0.000000
   80       15.286247   0.000000
   81       15.313956   0.000000
   82       15.513789   0.000000
   83       15.547342   0.000000
   84       15.749995   0.000000
   85       16.014534   0.000000
   86       16.127524   0.000000
   87       16.239218   0.000000
   88       16.307461   0.000000
   89       16.427519   0.000000
   90       17.138376   0.000000
   91       17.199795   0.000000
   92       17.205221   0.000000
   93       17.492691   0.000000
   94       17.722879   0.000000
   95       17.753502   0.000000
   96       17.943711   0.000000
   97       18.662381   0.000000
   98       19.558766   0.000000
   99       20.383342   0.000000
  100       20.526109   0.000000
  101       20.566265   0.000000
  102       20.602121   0.000000
  103       20.653768   0.000000
  104       20.919347   0.000000
  105       21.182545   0.000000
  106       21.282586   0.000000
  107       21.455658   0.000000
  108       21.996509   0.000000
  109       22.747949   0.000000
  110       22.889012   0.000000
  111       22.897202   0.000000
  112       23.552834   0.000000
  113       23.833238   0.000000
  114       23.918056   0.000000
  115       24.332900   0.000000
  116       24.347194   0.000000
  117       24.507475   0.000000
  118       24.645570   0.000000
  119       24.697340   0.000000
  120       24.704099   0.000000
  121       24.885976   0.000000
  122       25.305830   0.000000
  123       25.309105   0.000000
  124       25.386701   0.000000
  125       25.487196   0.000000
  126       25.720172   0.000000
  127       25.963366   0.000000
  128       26.077169   0.000000
  129       26.240455   0.000000
  130       26.391684   0.000000
  131       26.927831   0.000000
  132       27.220301   0.000000
  133       27.481187   0.000000
  134       27.485022   0.000000
  135       27.487723   0.000000
  136       28.324379   0.000000

  0.3636364E+00  0.3710175E-15  0.3742002E-15  0.1502630E-02
    1       -5.104387   1.000000
    2       -3.892082   1.000000
    3       -3.426700   1.000000
    4       -2.969042   1.000000
    5       -2.396116   1.000000
    6       -2.394913   1.000000
    7       -2.315492   1.000000
    8       -2.310956   1.000000
    9        0.071195   1.000000
   10        0.079074   1.000000
   11        0.276633   1.000000
   12        0.290015   1.000000
   13        0.820573   1.000000
   14        1.168761   1.000000
   15        1.824613   1.000000
   16        2.096060   1.000000
   17        2.179815   1.000000
   18        2.250254   1.000000
   19        2.527401   1.000000
   20        2.531179   1.000000
   21        3.057980   1.000000
   22        3.176385   1.000000
   23        3.435626   1.000000
   24        3.451252   1.000000
   25        3.762658   1.000000
   26        3.930971   1.000000
   27        4.173250   1.000000
   28        4.234290   1.000000
   29        4.346716   1.000000
   30        4.439534   1.000000
   31        4.619895   1.000000
   32        4.726111   1.000000
   33        4.746908   1.000000
   34        4.789296   1.000000
   35        4.809714   1.000000
   36        4.811602   1.000000
   37        5.072881   1.000000
   38        6.058682   1.000000
   39        6.774542   1.000000
   40        6.784437   1.000000
   41        6.893447   1.000000
   42        6.905675   1.000000
   43        7.974799   1.000000
   44        8.624022   1.000000
   45        8.831624   1.000000
   46        8.846730   1.010153
   47        8.907756   1.035523
   48        9.134206   0.062827
   49        9.238186   0.000000
   50        9.448375   0.000000
   51        9.557872   0.000000
   52        9.701754   0.000000
   53        9.815262   0.000000
   54        9.822079   0.000000
   55        9.829449   0.000000
   56        9.916560   0.000000
   57       10.030445   0.000000
   58       10.211327   0.000000
   59       10.425228   0.000000
   60       10.507713   0.000000
   61       10.520321   0.000000
   62       10.874840   0.000000
   63       10.888607   0.000000
   64       10.891002   0.000000
   65       11.326257   0.000000
   66       11.713319   0.000000
   67       11.723227   0.000000
   68       11.739136   0.000000
   69       12.617819   0.000000
   70       12.767058   0.000000
   71       13.597466   0.000000
   72       13.643503   0.000000
   73       14.312550   0.000000
   74       14.371932   0.000000
   75       14.863331   0.000000
   76       15.206893   0.000000
   77       15.208854   0.000000
   78       15.255810   0.000000
   79       15.499223   0.000000
   80       15.505386   0.000000
   81       15.629165   0.000000
   82       15.753455   0.000000
   83       15.903859   0.000000
   84       16.046827   0.000000
   85       16.204730   0.000000
   86       16.309517   0.000000
   87       16.426406   0.000000
   88       16.579797   0.000000
   89       16.628505   0.000000
   90       16.781610   0.000000
   91       16.876985   0.000000
   92       17.304767   0.000000
   93       17.621621   0.000000
   94       17.965698   0.000000
   95       18.232404   0.000000
   96       18.282743   0.000000
   97       19.035950   0.000000
   98       19.462023   0.000000
   99       19.485132   0.000000
  100       19.490686   0.000000
  101       19.773115   0.000000
  102       19.821236   0.000000
  103       19.989265   0.000000
  104       20.193644   0.000000
  105       20.911315   0.000000
  106       21.167966   0.000000
  107       21.235719   0.000000
  108       21.692855   0.000000
  109       22.381320   0.000000
  110       22.623746   0.000000
  111       23.006633   0.000000
  112       23.794852   0.000000
  113       24.064767   0.000000
  114       24.105372   0.000000
  115       24.271061   0.000000
  116       24.429984   0.000000
  117       24.435183   0.000000
  118       24.466208   0.000000
  119       24.652328   0.000000
  120       24.667433   0.000000
  121       25.231251   0.000000
  122       25.273664   0.000000
  123       25.345857   0.000000
  124       25.361733   0.000000
  125       25.363952   0.000000
  126       25.482817   0.000000
  127       25.654810   0.000000
  128       26.165261   0.000000
  129       26.249041   0.000000
  130       26.739292   0.000000
  131       26.766170   0.000000
  132       27.540474   0.000000
  133       27.891461   0.000000
  134       27.910856   0.000000
  135       28.251333   0.000000
  136       28.329105   0.000000

  0.4545455E+00  0.3725823E-15  0.3742002E-15  0.1502630E-02
    1       -4.762440   1.000000
    2       -4.356275   1.000000
    3       -3.298984   1.000000
    4       -3.144570   1.000000
    5       -2.451434   1.000000
    6       -2.451035   1.000000
    7       -2.297596   1.000000
    8       -2.295374   1.000000
    9        0.252972   1.000000
   10        0.258195   1.000000
   11        0.425185   1.000000
   12        0.430108   1.000000
   13        1.250794   1.000000
   14        1.665175   1.000000
   15        1.753327   1.000000
   16        1.821693   1.000000
   17        1.853750   1.000000
   18        2.419369   1.000000
   19        2.474103   1.000000
   20        2.518184   1.000000
   21        2.571014   1.000000
   22        3.157308   1.000000
   23        3.485319   1.000000
   24        3.572872   1.000000
   25        3.575250   1.000000
   26        3.806600   1.000000
   27        4.237888   1.000000
   28        4.270810   1.000000
   29        4.279302   1.000000
   30        4.301713   1.000000
   31        4.396377   1.000000
   32        4.523202   1.000000
   33        4.772241   1.000000
   34        4.791633   1.000000
   35        4.823570   1.000000
   36        4.845403   1.000000
   37        5.334058   1.000000
   38        5.676561   1.000000
   39        6.661895   1.000000
   40        6.666538   1.000000
   41        7.219598   1.000000
   42        7.224142   1.000000
   43        8.224699   1.000000
   44        8.345177   1.000000
   45        8.508018   1.000000
   46        8.715584   1.000000
   47        8.812645   1.000000
   48        8.815734   1.095800
   49        9.270678   0.000000
   50        9.416397   0.000000
   51        9.527246   0.000000
   52        9.563587   0.000000
   53        9.804206   0.000000
   54        9.806689   0.000000
   55        9.916355   0.000000
   56        9.926642   0.000000
   57       10.008471   0.000000
   58       10.369518   0.000000
   59       10.514041   0.000000
   60       10.516892   0.000000
   61       10.700095   0.000000
   62       10.907220   0.000000
   63       10.943042   0.000000
   64       10.943956   0.000000
   65       11.179059   0.000000
   66       11.277049   0.000000
   67       11.657927   0.000000
   68       11.668190   0.000000
   69       12.650985   0.000000
   70       12.695937   0.000000
   71       14.292658   0.000000
   72       14.338569   0.000000
   73       14.489321   0.000000
   74       14.518976   0.000000
   75       14.956142   0.000000
   76       14.981353   0.000000
   77       15.012351   0.000000
   78       15.104197   0.000000
   79       15.456622   0.000000
   80       15.568388   0.000000
   81       15.739489   0.000000
   82       15.744182   0.000000
   83       16.051365   0.000000
   84       16.068302   0.000000
   85       16.069654   0.000000
   86       16.693504   0.000000
   87       16.953993   0.000000
   88       17.024396   0.000000
   89       17.037269   0.000000
   90       17.070665   0.000000
   91       17.539895   0.000000
   92       17.695001   0.000000
   93       17.952310   0.000000
   94       18.106049   0.000000
   95       18.474829   0.000000
   96       18.517982   0.000000
   97       18.532389   0.000000
   98       18.728903   0.000000
   99       18.735472   0.000000
  100       18.848142   0.000000
  101       19.332247   0.000000
  102       19.351146   0.000000
  103       19.657256   0.000000
  104       20.036248   0.000000
  105       20.372122   0.000000
  106       20.431579   0.000000
  107       21.513348   0.000000
  108       21.947868   0.000000
  109       22.410944   0.000000
  110       22.548174   0.000000
  111       22.674537   0.000000
  112       23.621474   0.000000
  113       23.853656   0.000000
  114       23.854510   0.000000
  115       24.332833   0.000000
  116       24.341693   0.000000
  117       24.560679   0.000000
  118       24.578614   0.000000
  119       24.839238   0.000000
  120       24.896593   0.000000
  121       24.976662   0.000000
  122       25.128401   0.000000
  123       25.252692   0.000000
  124       25.421363   0.000000
  125       25.430403   0.000000
  126       25.824283   0.000000
  127       25.844763   0.000000
  128       25.930167   0.000000
  129       26.431229   0.000000
  130       26.441499   0.000000
  131       27.339566   0.000000
  132       27.562028   0.000000
  133       27.999734   0.000000
  134       28.311589   0.000000
  135       28.410932   0.000000
  136       28.950395   0.000000

  0.3741969E-15  0.9090909E-01  0.3742002E-15  0.1502630E-02
    1       -5.694934   1.000000
    2       -3.637865   1.000000
    3       -2.540815   1.000000
    4       -2.391964   1.000000
    5       -2.310133   1.000000
    6       -2.239241   1.000000
    7       -1.934237   1.000000
    8       -1.929882   1.000000
    9       -1.122180   1.000000
   10       -1.118374   1.000000
   11       -0.843310   1.000000
   12        0.024096   1.000000
   13        0.383664   1.000000
   14        0.409740   1.000000
   15        0.546641   1.000000
   16        2.502767   1.000000
   17        2.524038   1.000000
   18        2.670969   1.000000
   19        2.812265   1.000000
   20        3.037908   1.000000
   21        3.122827   1.000000
   22        3.510168   1.000000
   23        3.758678   1.000000
   24        3.820975   1.000000
   25        3.866913   1.000000
   26        3.882676   1.000000
   27        4.365024   1.000000
   28        4.421635   1.000000
   29        4.538831   1.000000
   30        4.569858   1.000000
   31        4.637836   1.000000
   32        4.918666   1.000000
   33        4.931263   1.000000
   34        4.987411   1.000000
   35        5.102207   1.000000
   36        5.212213   1.000000
   37        5.592208   1.000000
   38        6.238075   1.000000
   39        6.297434   1.000000
   40        7.151521   1.000000
   41        7.303055   1.000000
   42        7.740047   1.000000
   43        7.805349   1.000000
   44        8.205436   1.000000
   45        8.238358   1.000000
   46        8.478352   1.000000
   47        8.874557   1.000000
   48        9.104170  -0.094067
   49        9.237622   0.000000
   50        9.802013   0.000000
   51        9.881897   0.000000
   52        9.961285   0.000000
   53       10.037776   0.000000
   54       10.049028   0.000000
   55       10.140565   0.000000
   56       10.227737   0.000000
   57       10.428308   0.000000
   58       10.468915   0.000000
   59       10.780955   0.000000
   60       10.885799   0.000000
   61       10.905413   0.000000
   62       11.162558   0.000000
   63       11.280640   0.000000
   64       11.349709   0.000000
   65       11.453095   0.000000
   66       11.518078   0.000000
   67       12.090061   0.000000
   68       12.321175   0.000000
   69       12.376679   0.000000
   70       12.628309   0.000000
   71       12.715409   0.000000
   72       13.088930   0.000000
   73       13.364546   0.000000
   74       13.577900   0.000000