  COHP#       atomMU       atomNU     distance     translation      ICOHP (at) eF   for spin  1
      1          Mo3          Mo1      3.03575       1   0   0           -0.57963 
      2          Mo3          Mo1      3.03575       1   1   0           -0.57992 
      3          Mo5          Mo1      3.03575       0   0   0           -0.57965 
      4          Mo5          Mo1      3.03575       1   0   0           -0.57991 
      5           V7          Mo1      3.23292       0   0  -1           -0.24400 
      6           V7          Mo1      3.23292       0   0   0           -0.24375 
      7           V8          Mo1      3.03681       0   0   0           -0.42453 
      8           V8          Mo1      3.03681       1   1   0           -0.42486 
      9           B9          Mo1      2.38098       0   0   0           -1.71444 
     10          B10          Mo1      2.38098       0   0   0           -1.71444 
     11          B11          Mo1      2.39300       0   1   0           -1.63997 
     12          B12          Mo1      2.39300       0   1   0           -1.64076 
     13          B15          Mo1      2.38098       1   1   0           -1.71501 
     14          B16          Mo1      2.38098       1   1   0           -1.71434 
     15          B17          Mo1      2.38098       0   0   0           -1.71417 
     16          B18          Mo1      2.38098       0   0   0           -1.71505 
     17          B21          Mo1      2.39300       1   0   0           -1.64053 
     18          B22          Mo1      2.39300       1   0   0           -1.64012 
     19          B23          Mo1      2.38098       1   1   0           -1.71469 
     20          B24          Mo1      2.38098       1   1   0           -1.71441 
     21          Mo3          Mo2      3.23292       0   0   0           -0.34790 
     22          Mo3          Mo2      3.23292       0   0   1           -0.34782 
     23          Mo4          Mo2      3.03681      -1  -1   0           -0.57655 
     24          Mo4          Mo2      3.03681       0   0   0           -0.57626 
     25          Mo6          Mo2      3.03575      -1   0   0           -0.57987 
     26          Mo6          Mo2      3.03575       0   0   0           -0.57980 
     27           V7          Mo2      3.03575      -1  -1   0           -0.41358 
     28           V7          Mo2      3.03575      -1   0   0           -0.41338 
     29           B9          Mo2      2.39142      -1   0   0           -1.66783 
     30          B10          Mo2      2.39142      -1   0   1           -1.66747 
     31          B11          Mo2      2.37184      -1   0   0           -1.76813 
     32          B12          Mo2      2.37184      -1   0   1           -1.76798 
     33          B13          Mo2      2.40590       0   0   0           -1.58116 
     34          B14          Mo2      2.40590       0   0   1           -1.58139 
     35          B19          Mo2      2.40590      -1   0   0           -1.58142 
     36          B20          Mo2      2.40590      -1   0   1           -1.58092 
     37          B21          Mo2      2.37184       0   0   0           -1.76771 
     38          B22          Mo2      2.37184       0   0   1           -1.76808 
     39          B23          Mo2      2.39142       0   0   0           -1.66761 
     40          B24          Mo2      2.39142       0   0   1           -1.66759 
     41          Mo5          Mo3      3.03681      -1  -1   0           -0.57602 
     42          Mo5          Mo3      3.03681       0   0   0           -0.57564 
     43           V8          Mo3      3.03575      -1   0   0           -0.41254 
     44           V8          Mo3      3.03575       0   0   0           -0.41222 
     45           B9          Mo3      2.39142      -1   0   0           -1.66776 
     46          B10          Mo3      2.39142      -1   0   0           -1.66823 
     47          B11          Mo3      2.40590      -1   0   0           -1.58161 
     48          B12          Mo3      2.40590      -1   0   0           -1.58155 
     49          B13          Mo3      2.37184       0   0   0           -1.76831 
     50          B14          Mo3      2.37184       0   0   0           -1.76818 
     51          B19          Mo3      2.37184      -1   0   0           -1.76796 
     52          B20          Mo3      2.37184      -1   0   0           -1.76817 
     53          B21          Mo3      2.40590       0   0   0           -1.58150 
     54          B22          Mo3      2.40590       0   0   0           -1.58154 
     55          B23          Mo3      2.39142       0   0   0           -1.66801 
     56          B24          Mo3      2.39142       0   0   0           -1.66788 
     57          Mo5          Mo4      3.23292       0   0   0           -0.34780 
     58          Mo5          Mo4      3.23292       0   0   1           -0.34773 
     59          Mo6          Mo4      3.03575       0   0   0           -0.57884 
     60          Mo6          Mo4      3.03575       0   1   0           -0.57928 
     61           V7          Mo4      3.03575      -1   0   0           -0.41330 
     62           V7          Mo4      3.03575       0   0   0           -0.41292 
     63          B11          Mo4      2.37184       0   1   0           -1.76804 
     64          B12          Mo4      2.37184       0   1   1           -1.76833 
     65          B13          Mo4      2.40590       0   0   0           -1.58147 
     66          B14          Mo4      2.40590       0   0   1           -1.58124 
     67          B15          Mo4      2.39142       0   1   0           -1.66792 
     68          B16          Mo4      2.39142       0   1   1           -1.66794 
     69          B17          Mo4      2.39142       0   0   0           -1.66773 
     70          B18          Mo4      2.39142       0   0   1           -1.66800 
     71          B19          Mo4      2.40590       0   1   0           -1.58136 
     72          B20          Mo4      2.40590       0   1   1           -1.58150 
     73          B21          Mo4      2.37184       0   0   0           -1.76839 
     74          B22          Mo4      2.37184       0   0   1           -1.76823 
     75           V8          Mo5      3.03575       0   0   0           -0.41191 
     76           V8          Mo5      3.03575       0   1   0           -0.41199 
     77          B11          Mo5      2.40590       0   1   0           -1.58186 
     78          B12          Mo5      2.40590       0   1   0           -1.58137 
     79          B13          Mo5      2.37184       0   0   0           -1.76757 
     80          B14          Mo5      2.37184       0   0   0           -1.76815 
     81          B15          Mo5      2.39142       0   1   0           -1.66772 
     82          B16          Mo5      2.39142       0   1   0           -1.66783 
     83          B17          Mo5      2.39142       0   0   0           -1.66803 
     84          B18          Mo5      2.39142       0   0   0           -1.66760 
     85          B19          Mo5      2.37184       0   1   0           -1.76822 
     86          B20          Mo5      2.37184       0   1   0           -1.76778 
     87          B21          Mo5      2.40590       0   0   0           -1.58152 
     88          B22          Mo5      2.40590       0   0   0           -1.58181 
     89           V7          Mo6      3.03681      -1  -1   0           -0.42563 
     90           V7          Mo6      3.03681       0   0   0           -0.42540 
     91           V8          Mo6      3.23292       0   0   0           -0.24341 
     92           V8          Mo6      3.23292       0   0   1           -0.24360 
     93           B9          Mo6      2.38098       0   0   0           -1.71448 
     94          B10          Mo6      2.38098       0   0   1           -1.71527 
     95          B13          Mo6      2.39300       0   0   0           -1.64038 
     96          B14          Mo6      2.39300       0   0   1           -1.63974 
     97          B15          Mo6      2.38098       0   0   0           -1.71471 
     98          B16          Mo6      2.38098       0   0   1           -1.71433 
     99          B17          Mo6      2.38098       0   0   0           -1.71428 
    100          B18          Mo6      2.38098       0   0   1           -1.71447 
    101          B19          Mo6      2.39300       0   0   0           -1.63970 
    102          B20          Mo6      2.39300       0   0   1           -1.64054 
    103          B23          Mo6      2.38098       0   0   0           -1.71520 
    104          B24          Mo6      2.38098       0   0   1           -1.71468 
    105           B9           V7      2.38098       0   0   0           -1.10030 
    106          B10           V7      2.38098       0   0   1           -1.10040 
    107          B11           V7      2.35875       0   1   0           -1.17402 
    108          B12           V7      2.35875       0   1   1           -1.17384 
    109          B15           V7      2.38098       1   1   0           -1.10021 
    110          B16           V7      2.38098       1   1   1           -1.10037 
    111          B17           V7      2.38098       0   0   0           -1.10047 
    112          B18           V7      2.38098       0   0   1           -1.10028 
    113          B21           V7      2.35875       1   0   0           -1.17388 
    114          B22           V7      2.35875       1   0   1           -1.17402 
    115          B23           V7      2.38098       1   1   0           -1.10032 
    116          B24           V7      2.38098       1   1   1           -1.10021 
    117           B9           V8      2.38098       0   0   0           -1.10060 
    118          B10           V8      2.38098       0   0   0           -1.10044 
    119          B13           V8      2.35875       0   0   0           -1.17427 
    120          B14           V8      2.35875       0   0   0           -1.17457 
    121          B15           V8      2.38098       0   0   0           -1.10058 
    122          B16           V8      2.38098       0   0   0           -1.10043 
    123          B17           V8      2.38098       0   0   0           -1.10051 
    124          B18           V8      2.38098       0   0   0           -1.10065 
    125          B19           V8      2.35875       0   0   0           -1.17449 
    126          B20           V8      2.35875       0   0   0           -1.17419 
    127          B23           V8      2.38098       0   0   0           -1.10045 
    128          B24           V8      2.38098       0   0   0           -1.10056 
    129          B10           B9      3.23292       0   0   0           -0.09799 
    130          B10           B9      3.23292       0   0   1           -0.09795 
    131          B11           B9      3.05428       0   0   0           -0.06299 
    132          B11           B9      3.01747       0   1   0           -0.08770 
    133          B13           B9      3.01747       0   0   0           -0.08762 
    134          B13           B9      3.05428       1   0   0           -0.06306 
    135          B15           B9      3.03681       0   0   0           -0.08015 
    136          B15           B9      3.03681       1   1   0           -0.08009 
    137          B17           B9      1.73271       0   0   0           -7.22998 
    138          B19           B9      1.75254       0   0   0           -6.83990 
    139          B21           B9      1.75254       1   0   0           -6.84002 
    140          B23           B9      3.49636       0   0   0            0.00823 
    141          B23           B9      3.49636       1   1   0            0.00821 
    142          B12          B10      3.05428       0   0   0           -0.06304 
    143          B12          B10      3.01747       0   1   0           -0.08765 
    144          B14          B10      3.01747       0   0   0           -0.08766 
    145          B14          B10      3.05428       1   0   0           -0.06302 
    146          B16          B10      3.03681       0   0   0           -0.08013 
    147          B16          B10      3.03681       1   1   0           -0.08013 
    148          B18          B10      1.73271       0   0   0           -7.22980 
    149          B20          B10      1.75254       0   0   0           -6.83989 
    150          B22          B10      1.75254       1   0   0           -6.83982 
    151          B24          B10      3.49636       0   0   0            0.00823 
    152          B24          B10      3.49636       1   1   0            0.00821 
    153          B12          B11      3.28326       0   0   0           -0.07976 
    154          B12          B11      3.18258       0   0   1           -0.11453 
    155          B13          B11      3.03723       0  -1   0           -0.06912 
    156          B13          B11      3.03723       1   0   0           -0.06913 
    157          B15          B11      3.05428       0   0   0           -0.06298 
    158          B15          B11      3.01747       1   0   0           -0.08772 
    159          B17          B11      1.75254       0  -1   0           -6.83969 
    160          B19          B11      1.77595       0   0   0           -6.38999 
    161          B21          B11      3.48223       1  -1   0            0.00965 
    162          B23          B11      1.75254       1   0   0           -6.83980 
    163          B14          B12      3.03723       0  -1   0           -0.06912 
    164          B14          B12      3.03723       1   0   0           -0.06914 
    165          B16          B12      3.05428       0   0   0           -0.06301 
    166          B16          B12      3.01747       1   0   0           -0.08768 
    167          B18          B12      1.75254       0  -1   0           -6.83960 
    168          B20          B12      1.77595       0   0   0           -6.39000 
    169          B22          B12      3.48223       1  -1   0            0.00965 
    170          B24          B12      1.75254       1   0   0           -6.83997 
    171          B14          B13      3.18258       0   0   0           -0.11459 
    172          B14          B13      3.28326       0   0   1           -0.07974 
    173          B15          B13      3.01747       0   0   0           -0.08765 
    174          B15          B13      3.05428       0   1   0           -0.06303 
    175          B17          B13      1.75254       0   0   0           -6.84012 
    176          B19          B13      3.48223       0   0   0            0.00967 
    177          B21          B13      1.77595       0   0   0           -6.38990 
    178          B23          B13      1.75254       0   0   0           -6.84003 
    179          B16          B14      3.01747       0   0   0           -0.08768 
    180          B16          B14      3.05428       0   1   0           -0.06300 
    181          B18          B14      1.75254       0   0   0           -6.84008 
    182          B20          B14      3.48223       0   0   0            0.00966 
    183          B22          B14      1.77595       0   0   0           -6.38994 
    184          B24          B14      1.75254       0   0   0           -6.84003 
    185          B16          B15      3.23292       0   0   0           -0.09802 
    186          B16          B15      3.23292       0   0   1           -0.09796 
    187          B17          B15      3.49636      -1  -1   0            0.00822 
    188          B17          B15      3.49636       0   0   0            0.00823 
    189          B19          B15      1.75254       0   0   0           -6.84000 
    190          B21          B15      1.75254       0  -1   0           -6.83964 
    191          B23          B15      1.73271       0   0   0           -7.22976 
    192          B18          B16      3.49636      -1  -1   0            0.00822 
    193          B18          B16      3.49636       0   0   0            0.00823 
    194          B20          B16      1.75254       0   0   0           -6.83998 
    195          B22          B16      1.75254       0  -1   0           -6.83976 
    196          B24          B16      1.73271       0   0   0           -7.22992 
    197          B18          B17      3.23292       0   0   0           -0.09805 
    198          B18          B17      3.23292       0   0   1           -0.09799 
    199          B19          B17      3.01747       0   0   0           -0.08769 
    200          B19          B17      3.05428       0   1   0           -0.06300 
    201          B21          B17      3.05428       0   0   0           -0.06302 
    202          B21          B17      3.01747       1   0   0           -0.08769 
    203          B23          B17      3.03681       0   0   0           -0.08010 
    204          B23          B17      3.03681       1   1   0           -0.08014 
    205          B20          B18      3.01747       0   0   0           -0.08765 
    206          B20          B18      3.05428       0   1   0           -0.06304 
    207          B22          B18      3.05428       0   0   0           -0.06298 
    208          B22          B18      3.01747       1   0   0           -0.08772 
    209          B24          B18      3.03681       0   0   0           -0.08014 
    210          B24          B18      3.03681       1   1   0           -0.08010 
    211          B20          B19      3.18258       0   0   0           -0.11457 
    212          B20          B19      3.28326       0   0   1           -0.07974 
    213          B21          B19      3.03723       0  -1   0           -0.06913 
    214          B21          B19      3.03723       1   0   0           -0.06913 
    215          B23          B19      3.01747       0   0   0           -0.08768 
    216          B23          B19      3.05428       1   0   0           -0.06302 
    217          B22          B20      3.03723       0  -1   0           -0.06913 
    218          B22          B20      3.03723       1   0   0           -0.06913 
    219          B24          B20      3.01747       0   0   0           -0.08762 
    220          B24          B20      3.05428       1   0   0           -0.06304 
    221          B22          B21      3.28326       0   0   0           -0.07975 
    222          B22          B21      3.18258       0   0   1           -0.11454 
    223          B23          B21      3.05428       0   0   0           -0.06303 
    224          B23          B21      3.01747       0   1   0           -0.08766 
    225          B24          B22      3.05428       0   0   0           -0.06299 
    226          B24          B22      3.01747       0   1   0           -0.08770 
    227          B24          B23      3.23292       0   0   0           -0.09800 
    228          B24          B23      3.23292       0   0   1           -0.09794 
