    3    3   60    1
  0.7818830E+01  0.2980000E-09  0.2980000E-09  0.3050000E-09  0.5000000E-15
   1.0000000000000000E-004
  CAR 
 Name                                    
     11    216     10

  0.3742002E-15  0.3742002E-15  0.3742002E-15  0.2962963E-03
    1       -5.635747   1.000000
    2        5.443301   1.000000
    3        5.443303   1.000000
    4        6.583006   1.000000
    5        6.595714   1.000000
    6        9.448975  -0.008961
    7        9.448975  -0.008961
    8       12.200419   0.000000
    9       12.200419   0.000000
   10       14.150769   0.000000

  0.6666667E-01  0.3777220E-15  0.3742002E-15  0.1777778E-02
    1       -5.549342   1.000000
    2        5.209183   1.000000
    3        5.432240   1.000000
    4        6.458438   1.000000
    5        6.618796   1.000000
    6        9.429052  -0.015816
    7        9.663589  -0.000000
    8       11.775575  -0.000000
    9       11.811846  -0.000000
   10       14.604805   0.000000

  0.1333333E+00  0.3824091E-15  0.3742002E-15  0.1777778E-02
    1       -5.292504   1.000000
    2        4.563412   1.000000
    3        5.393811   1.000000
    4        6.177207   1.000000
    5        6.675243   1.000000
    6        9.373168  -0.035403
    7       10.202550  -0.000000
    8       11.093112  -0.000000
    9       11.221931  -0.000000
   10       15.289934   0.000000

  0.2000000E+00  0.3806431E-15  0.3742002E-15  0.1777778E-02
    1       -4.872178   1.000000
    2        3.640935   1.000000
    3        5.319189   1.000000
    4        5.872476   1.000000
    5        6.702493   1.000000
    6        9.292126   0.192465
    7       10.603114  -0.000000
    8       10.784523  -0.000000
    9       10.891967  -0.000000
   10       15.798659   0.000000

  0.2666667E+00  0.3859547E-15  0.3742002E-15  0.1777778E-02
    1       -4.299149   1.000000
    2        2.570775   1.000000
    3        5.210160   1.000000
    4        5.612466   1.000000
    5        6.625210   1.000000
    6        9.200831   0.879456
    7       10.456045  -0.000000
    8       10.543613  -0.000000
    9       11.584027  -0.000000
   10       16.173178   0.000000

  0.3333333E+00  0.3635107E-15  0.3742002E-15  0.1777778E-02
    1       -3.587133   1.000000
    2        1.442021   1.000000
    3        5.087011   1.000000
    4        5.420274   1.000000
    5        6.450305   1.000000
    6        9.115234   1.032703
    7       10.460517  -0.000000
    8       10.630436  -0.000000
    9       12.131181   0.000000
   10       15.730271   0.000000

  0.4000000E+00  0.3993534E-15  0.3742002E-15  0.1777778E-02
    1       -2.751897   1.000000
    2        0.312047   1.000000
    3        4.981081   1.000000
    4        5.297893   1.000000
    5        6.265784   1.000000
    6        9.049453   1.007221
    7       10.465111  -0.000000
    8       10.958510  -0.000000
    9       12.422715   0.000000
   10       15.554083   0.000000

  0.4666667E+00  0.3562316E-15  0.3742002E-15  0.1777778E-02
    1       -1.811390   1.000000
    2       -0.780210   1.000000
    3        4.920350   1.000000
    4        5.239373   1.000000
    5        6.153605   1.000000
    6        9.013846   1.001889
    7       10.488415  -0.000000
    8       11.214022  -0.000000
    9       12.505996   0.000000
   10       15.564616   0.000000

  0.6666667E-01  0.6666667E-01  0.3742002E-15  0.1777778E-02
    1       -5.377700   1.000000
    2        4.796683   1.000000
    3        5.366052   1.000000
    4        6.260259   1.000000
    5        6.673394   1.000000
    6        9.380897  -0.034970
    7       10.046320  -0.000000
    8       11.291603  -0.000000
    9       11.344514  -0.000000
   10       15.263266   0.000000

  0.1333333E+00  0.6666667E-01  0.3742002E-15  0.3555556E-02
    1       -5.039069   1.000000
    2        4.062455   1.000000
    3        5.198995   1.000000
    4        5.983398   1.000000
    5        6.783762   1.000000
    6        9.283968   0.248189
    7       10.676365  -0.000000
    8       10.720858  -0.000000
    9       10.928414  -0.000000
   10       15.864958   0.000000

  0.2000000E+00  0.6666667E-01  0.3742002E-15  0.3555556E-02
    1       -4.542293   1.000000
    2        3.105152   1.000000
    3        4.969836   1.000000
    4        5.722907   1.000000
    5        6.879557   1.000000
    6        9.155496   1.021808
    7       10.324203  -0.000000
    8       10.725359  -0.000000
    9       11.400043  -0.000000
   10       16.317496   0.000000

  0.2666667E+00  0.6666667E-01  0.3742002E-15  0.3555556E-02
    1       -3.899545   1.000000
    2        2.029266   1.000000
    3        4.724529   1.000000
    4        5.519978   1.000000
    5        6.884632   1.000000
    6        9.015847   1.002053
    7       10.193475  -0.000000
    8       10.732857  -0.000000
    9       12.074574   0.000000
   10       15.893591   0.000000

  0.3333333E+00  0.6666667E-01  0.3742002E-15  0.3555556E-02
    1       -3.125606   1.000000
    2        0.912097   1.000000
    3        4.510619   1.000000
    4        5.383895   1.000000
    5        6.804278   1.000000
    6        8.888604   1.000002
    7       10.262474  -0.000000
    8       10.892751  -0.000000
    9       12.550156   0.000000
   10       15.567661   0.000000

  0.4000000E+00  0.6666667E-01  0.3742002E-15  0.3555556E-02
    1       -2.237265   1.000000
    2       -0.193790   1.000000
    3        4.366667   1.000000
    4        5.308842   1.000000
    5        6.712989   1.000000
    6        8.798504   1.000000
    7       10.375919  -0.000000
    8       11.098278  -0.000000
    9       12.760798   0.000000
   10       15.523093   0.000000

  0.4666667E+00  0.6666667E-01  0.3742002E-15  0.1777778E-02
    1       -1.276411   1.000000
    2       -1.228925   1.000000
    3        4.316096   1.000000
    4        5.285265   1.000000
    5        6.675208   1.000000
    6        8.765782   1.000000
    7       10.424395  -0.000000
    8       11.194842  -0.000000
    9       12.805104   0.000000
   10       15.552324   0.000000

  0.1333333E+00  0.1333333E+00  0.3742002E-15  0.1777778E-02
    1       -4.623885   1.000000
    2        3.391684   1.000000
    3        4.721725   1.000000
    4        5.773468   1.000000
    5        7.039704   1.000000
    6        9.097037   1.025137
    7       10.272921  -0.000000
    8       10.797303  -0.000000
    9       11.369808  -0.000000
   10       16.625635   0.000000

  0.2000000E+00  0.1333333E+00  0.3742002E-15  0.3555556E-02
    1       -4.057097   1.000000
    2        2.540922   1.000000
    3        4.194180   1.000000
    4        5.607032   1.000000
    5        7.318360   1.000000
    6        8.849761   1.000000
    7        9.939203  -0.000000
    8       10.834697  -0.000000
    9       12.142375   0.000000
   10       16.002061   0.000000

  0.2666667E+00  0.1333333E+00  0.3742002E-15  0.3555556E-02
    1       -3.352011   1.000000
    2        1.542888   1.000000
    3        3.769524   1.000000
    4        5.504119   1.000000
    5        7.491619   1.000000
    6        8.587089   1.000000
    7        9.856640  -0.000000
    8       10.941918  -0.000000
    9       12.842376   0.000000
   10       15.575082   0.000000

  0.3333333E+00  0.1333333E+00  0.3742002E-15  0.3555556E-02
    1       -2.524613   1.000000
    2        0.478673   1.000000
    3        3.484645   1.000000
    4        5.457282   1.000000
    5        7.526301   1.000000
    6        8.362262   1.000000
    7       10.012910  -0.000000
    8       11.020821  -0.000000
    9       13.300526   0.000000
   10       15.433627   0.000000

  0.4000000E+00  0.1333333E+00  0.3742002E-15  0.3555556E-02
    1       -1.593869   1.000000
    2       -0.581921   1.000000
    3        3.342236   1.000000
    4        5.444014   1.000000
    5        7.506473   1.000000
    6        8.230726   1.000000
    7       10.210665  -0.000000
    8       11.030246  -0.000000
    9       13.472364   0.000000
   10       15.483574   0.000000

  0.2000000E+00  0.2000000E+00  0.3742002E-15  0.1777778E-02
    1       -3.427815   1.000000
    2        1.912797   1.000000
    3        3.351745   1.000000
    4        5.562937   1.000000
    5        7.810235   1.000000
    6        8.447443   1.000000
    7        9.631171  -0.000001
    8       10.967004  -0.000000
    9       12.978543   0.000000
   10       15.576556   0.000000

  0.2666667E+00  0.2000000E+00  0.3742002E-15  0.3555556E-02
    1       -2.669175   1.000000
    2        1.114666   1.000000
    3        2.721774   1.000000
    4        5.593092   1.000000
    5        8.035128   1.000000
    6        8.177421   1.000000
    7        9.562621  -0.000053
    8       11.002254  -0.000000
    9       13.731500   0.000000
   10       15.329361   0.000000

  0.3333333E+00  0.2000000E+00  0.3742002E-15  0.3555556E-02
    1       -1.800714   1.000000
    2        0.157483   1.000000
    3        2.386747   1.000000
    4        5.662440   1.000000
    5        7.710914   1.000000
    6        8.300092   1.000000
    7        9.800161  -0.000000
    8       10.885120  -0.000000
    9       14.170556   0.000000
   10       15.336217   0.000000

  0.4000000E+00  0.2000000E+00  0.3742002E-15  0.1777778E-02
    1       -0.920073   1.000000
    2       -0.765681   1.000000
    3        2.284836   1.000000
    4        5.700679   1.000000
    5        7.583464   1.000000
    6        8.309229   1.000000
    7       10.007113  -0.000000
    8       10.756354  -0.000000
    9       14.273282   0.000000
   10       15.417898   0.000000

  0.2666667E+00  0.2666667E+00  0.3742002E-15  0.1777778E-02
    1       -1.869989   1.000000
    2        0.654509   1.000000
    3        1.813914   1.000000
    4        5.783862   1.000000
    5        7.478983   1.000000
    6        8.813571   1.000000
    7        9.405107  -0.026503
    8       10.837653  -0.000000
    9       14.539359   0.000000
   10       15.190798   0.000000

  0.3333333E+00  0.2666667E+00  0.3742002E-15  0.3555556E-02
    1       -0.993246   1.000000
    2       -0.053577   1.000000
    3        1.351092   1.000000
    4        6.004991   1.000000
    5        7.059293   1.000000
    6        9.046704   1.006586
    7        9.658353  -0.000000
    8       10.502742  -0.000000
    9       14.909716   0.000000
   10       15.276630   0.000000

  0.3333333E+00  0.3333333E+00  0.3742002E-15  0.5925926E-03
    1       -0.294671   1.000000
    2       -0.294669   1.000000
    3        0.744042   1.000000
    4        6.477554   1.000000
    5        6.477555   1.000000
    6        9.570618  -0.000033
    7        9.570619  -0.000033
    8       10.132184  -0.000000
    9       15.235407   0.000000
   10       15.235408   0.000000

  0.3742002E-15  0.3742002E-15  0.6666667E-01  0.5925926E-03
    1       -5.570957   1.000000
    2        5.496127   1.000000
    3        5.496128   1.000000
    4        5.651261   1.000000
    5        7.430162   1.000000
    6        9.301040   0.138375
    7        9.301040   0.138372
    8       12.091390   0.000000
    9       12.091394   0.000000
   10       14.382888   0.000000

  0.6666667E-01  0.3777220E-15  0.6666667E-01  0.3555556E-02
    1       -5.485240   1.000000
    2        5.256248   1.000000
    3        5.478527   1.000000
    4        5.640632   1.000000
    5        7.310333   1.000000
    6        9.277534   0.295796
    7        9.534790  -0.000244
    8       11.755426  -0.000000
    9       11.794055  -0.000000
   10       14.772368   0.000000

  0.1333333E+00  0.3824091E-15  0.6666667E-01  0.3555556E-02
    1       -5.230504   1.000000
    2        4.597207   1.000000
    3        5.420683   1.000000
    4        5.596956   1.000000
    5        7.099633   1.000000
    6        9.221912   0.746364
    7       10.045820  -0.000000
    8       11.207351  -0.000000
    9       11.303188  -0.000000
   10       15.341893   0.000000

  0.2000000E+00  0.3806431E-15  0.6666667E-01  0.3555556E-02
    1       -4.813719   1.000000
    2        3.661617   1.000000
    3        5.315756   1.000000
    4        5.510164   1.000000
    5        6.909516   1.000000
    6        9.169616   0.997204
    7       10.389394  -0.000000
    8       10.913798  -0.000000
    9       11.096356  -0.000000
   10       15.777273   0.000000

  0.2666667E+00  0.3859547E-15  0.6666667E-01  0.3555556E-02
    1       -4.245670   1.000000
    2        2.584080   1.000000
    3        5.172058   1.000000
    4        5.402582   1.000000
    5        6.705489   1.000000
    6        9.148048   1.029199
    7       10.402810  -0.000000
    8       10.666423  -0.000000
    9       11.603536  -0.000000
   10       15.857863   0.000000

  0.3333333E+00  0.3635107E-15  0.6666667E-01  0.3555556E-02
    1       -3.539979   1.000000
    2        1.454316   1.000000
    3        5.018131   1.000000
    4        5.307791   1.000000
    5        6.473018   1.000000
    6        9.153211   1.024440
    7       10.541441  -0.000000
    8       10.582301  -0.000000
    9       12.093653   0.000000
   10       15.462332   0.000000

  0.4000000E+00  0.3993534E-15  0.6666667E-01  0.3555556E-02
    1       -2.712101   1.000000
    2        0.327967   1.000000
    3        4.890571   1.000000
    4        5.243889   1.000000
    5        6.266254   1.000000
    6        9.164077   1.008684
    7       10.501964  -0.000000
    8       10.873991  -0.000000
    9       12.393457   0.000000
   10       15.168530   0.000000

  0.4666667E+00  0.3562316E-15  0.6666667E-01  0.3555556E-02
    1       -1.778848   1.000000
    2       -0.758486   1.000000
    3        4.818988   1.000000
    4        5.213346   1.000000
    5        6.146559   1.000000
    6        9.169419   0.997656
    7       10.500383  -0.000000
    8       11.085936  -0.000000
    9       12.527985   0.000000
   10       15.018044   0.000000

  0.6666667E-01  0.6666667E-01  0.6666667E-01  0.3555556E-02
    1       -5.315008   1.000000
    2        4.835761   1.000000
    3        5.398021   1.000000
    4        5.613547   1.000000
    5        7.174547   1.000000
    6        9.211274   0.818573
    7        9.924030  -0.000000
    8       11.343181  -0.000000
    9       11.421474  -0.000000
   10       15.331460   0.000000

  0.1333333E+00  0.6666667E-01  0.6666667E-01  0.7111111E-02
    1       -4.979204   1.000000
    2        4.090104   1.000000
    3        5.204373   1.000000
    4        5.548124   1.000000
    5        7.082121   1.000000
    6        9.093755   1.023618
    7       10.434145  -0.000000
    8       10.895893  -0.000000
    9       11.129451  -0.000000
   10       15.886159   0.000000

  0.2000000E+00  0.6666667E-01  0.6666667E-01  0.7111111E-02
    1       -4.486708   1.000000
    2        3.122296   1.000000
    3        4.948506   1.000000
    4        5.456094   1.000000
    5        7.027278   1.000000
    6        8.992878   1.000743
    7       10.428823  -0.000000
    8       10.738835  -0.000000
    9       11.441746  -0.000000
   10       16.101757   0.000000

  0.2666667E+00  0.6666667E-01  0.6666667E-01  0.7111111E-02
    1       -3.849685   1.000000
    2        2.041605   1.000000
    3        4.686117   1.000000
    4        5.367072   1.000000
    5        6.920126   1.000000
    6        8.957211   1.000121
    7       10.329168  -0.000000
    8       10.725925  -0.000000
    9       12.028794   0.000000
   10       15.671333   0.000000

  0.3333333E+00  0.6666667E-01  0.6666667E-01  0.7111111E-02
    1       -3.082748   1.000000
    2        0.925628   1.000000
    3        4.464184   1.000000
    4        5.303249   1.000000
    5        6.761388   1.000000
    6        8.962906   1.000165
    7       10.347239  -0.000000
    8       10.854400  -0.000000
    9       12.477242   0.000000
   10       15.290942   0.000000

  0.4000000E+00  0.6666667E-01  0.6666667E-01  0.7111111E-02
    1       -2.202272   1.000000
    2       -0.175029   1.000000
    3        4.317203   1.000000
    4        5.269427   1.000000
    5        6.625364   1.000000
    6        8.964868   1.000183
    7       10.408513  -0.000000
    8       11.029891  -0.000000
    9       12.718907   0.000000
   10       15.089023   0.000000

  0.4666667E+00  0.6666667E-01  0.6666667E-01  0.3555556E-02
    1       -1.237487   1.000000
    2       -1.214801   1.000000
    3        4.265939   1.000000
    4        5.259570   1.000000
    5        6.573115   1.000000
    6        8.962607   1.000162
    7       10.438730  -0.000000
    8       11.110182  -0.000000
    9       12.793132   0.000000
   10       15.021541   0.000000

  0.1333333E+00  0.1333333E+00  0.6666667E-01  0.3555556E-02
    1       -4.567617   1.000000
    2        3.414114   1.000000
    3        4.701555   1.000000
    4        5.480076   1.000000
    5        7.254913   1.000000
    6        8.836409   1.000000
    7       10.493661  -0.000000
    8       10.736935  -0.000000
    9       11.413710  -0.000000
   10       16.443363   0.000000

  0.2000000E+00  0.1333333E+00  0.6666667E-01  0.7111111E-02
    1       -4.005926   1.000000
    2        2.556440   1.000000
    3        4.167284   1.000000
    4        5.420285   1.000000
    5        7.448905   1.000000
    6        8.601368   1.000000
    7       10.200460  -0.000000
    8       10.828735  -0.000000
    9       12.076419   0.000000
   10       15.865039   0.000000

  0.2666667E+00  0.1333333E+00  0.6666667E-01  0.7111111E-02
    1       -3.307406   1.000000
    2        1.554948   1.000000
    3        3.747673   1.000000
    4        5.390646   1.000000
    5        7.450694   1.000000
    6        8.546524   1.000000
    7       10.064434  -0.000000
    8       10.930711  -0.000000
    9       12.721911   0.000000
   10       15.414785   0.000000

  0.3333333E+00  0.1333333E+00  0.6666667E-01  0.7111111E-02
    1       -2.487956   1.000000
    2        0.493538   1.000000
    3        3.468395   1.000000
    4        5.392398   1.000000
    5        7.296048   1.000000
    6        8.594782   1.000000
    7       10.117473  -0.000000
    8       11.001407  -0.000000
    9       13.180262   0.000000
   10       15.166128   0.000000

  0.4000000E+00  0.1333333E+00  0.6666667E-01  0.7111111E-02
    1       -1.567025   1.000000
    2       -0.559072   1.000000
    3        3.329010   1.000000
    4        5.405294   1.000000
    5        7.173450   1.000000
    6        8.611710   1.000000
    7       10.249651  -0.000000
    8       11.009962  -0.000000
    9       13.394000   0.000000
   10       15.078411   0.000000

  0.2000000E+00  0.2000000E+00  0.6666667E-01  0.3555556E-02
    1       -3.382651   1.000000
    2        1.925423   1.000000
    3        3.335020   1.000000
    4        5.432626   1.000000
    5        7.948796   1.000000
    6        8.148030   1.000000
    7        9.931076  -0.000000
    8       10.962862  -0.000000
    9       12.838178   0.000000
   10       15.473040   0.000000

  0.2666667E+00  0.2000000E+00  0.6666667E-01  0.7111111E-02
    1       -2.631692   1.000000
    2        1.124864   1.000000
    3        2.720473   1.000000
    4        5.501650   1.000000
    5        7.686345   1.000000
    6        8.419827   1.000000
    7        9.797799  -0.000000
    8       10.997467  -0.000000
    9       13.546997   0.000000
   10       15.202826   0.000000

  0.3333333E+00  0.2000000E+00  0.6666667E-01  0.7111111E-02
    1       -1.772976   1.000000
    2        0.172812   1.000000
    3        2.394518   1.000000
    4        5.598532   1.000000
    5        7.347778   1.000000
    6        8.659964   1.000000
    7        9.909986  -0.000000
    8       10.889107  -0.000000
    9       14.021519   0.000000
   10       15.099627   0.000000

  0.4000000E+00  0.2000000E+00  0.6666667E-01  0.3555556E-02
    1       -0.925739   1.000000
    2       -0.717847   1.000000
    3        2.295105   1.000000
    4        5.648835   1.000000
    5        7.213916   1.000000
    6        8.709837   1.000000
    7       10.061940  -0.000000
    8       10.773254  -0.000000
    9       14.169707   0.000000
   10       15.098682   0.000000

  0.2666667E+00  0.2666667E+00  0.6666667E-01  0.3555556E-02
    1       -1.841925   1.000000
    2        0.660040   1.000000
    3        1.835177   1.000000
    4        5.701766   1.000000
    5        7.271060   1.000000
    6        8.921870   1.000015
    7        9.631210  -0.000001
    8       10.845491  -0.000000
    9       14.313464   0.000000
   10       15.077644   0.000000

  0.3333333E+00  0.2666667E+00  0.6666667E-01  0.7111111E-02
    1       -0.979293   1.000000
    2       -0.041372   1.000000
    3        1.384088   1.000000
    4        5.927151   1.000000
    5        6.882083   1.000000
    6        9.225132   0.722729
    7        9.768565  -0.000000
    8       10.531441  -0.000000
    9       14.752908   0.000000
   10       15.073129   0.000000

  0.3333333E+00  0.3333333E+00  0.6666667E-01  0.1185185E-02
    1       -0.295291   1.000000
    2       -0.295290   1.000000
    3        0.807112   1.000000
    4        6.367163   1.000000
    5        6.367164   1.000000
    6        9.697504  -0.000000
    7        9.697504  -0.000000
    8       10.166945  -0.000000
    9       15.062885   0.000000
   10       15.062886   0.000000

  0.3742002E-15  0.3742002E-15  0.1333333E+00  0.5925926E-03
    1       -5.379636   1.000000
    2        4.640134   1.000000
    3        5.653839   1.000000
    4        5.653841   1.000000
    5        8.174025   1.000000
    6        8.937515   1.000039
    7        8.937516   1.000039
    8       11.777594  -0.000000
    9       11.777594  -0.000000
   10       14.996136   0.000000

  0.6666667E-01  0.3777220E-15  0.1333333E+00  0.3555556E-02
    1       -5.296072   1.000000
    2        4.660885   1.000000
    3        5.395163   1.000000
    4        5.614616   1.000000
    5        7.898238   1.000000
    6        8.917955   1.000012
    7        9.285923   0.234334
    8       11.601555  -0.000000
    9       11.654989  -0.000000
   10       15.252788   0.000000

  0.1333333E+00  0.3824091E-15  0.1333333E+00  0.3555556E-02
    1       -5.047807   1.000000
    2        4.638157   1.000000
    3        4.777130   1.000000
    4        5.494514   1.000000
    5        7.519361   1.000000
    6        8.895614   1.000003
    7        9.803825  -0.000000
    8       11.313454  -0.000000
    9       11.404739  -0.000000
   10       15.531252   0.000000

  0.2000000E+00  0.3806431E-15  0.1333333E+00  0.3555556E-02
    1       -4.641969   1.000000
    2        3.711560   1.000000
    3        4.818909   1.000000
    4        5.299921   1.000000
    5        7.173228   1.000000
    6        8.936217   1.000036
    7       10.119848  -0.000000
    8       11.155627  -0.000000
    9       11.328816  -0.000000
   10       15.669511   0.000000

  0.2666667E+00  0.3859547E-15  0.1333333E+00  0.3555556E-02
    1       -4.089375   1.000000
    2        2.619539   1.000000
    3        4.913475   1.000000
    4        5.063477   1.000000
    5        6.831885   1.000000
    6        9.066335   1.012155
    7       10.251045  -0.000000
    8       10.940999  -0.000000
    9       11.689290  -0.000000
   10       15.383651   0.000000

  0.3333333E+00  0.3635107E-15  0.1333333E+00  0.3555556E-02
    1       -3.403466   1.000000
    2        1.491391   1.000000
    3        4.834563   1.000000
    4        5.007913   1.000000
    5        6.507717   1.000000
    6        9.258534   0.449557
    7       10.433879  -0.000000
    8       10.762455  -0.000000
    9       12.079424   0.000000
   10       14.935215   0.000000

  0.4000000E+00  0.3993534E-15  0.1333333E+00  0.3555556E-02
    1       -2.599479   1.000000
    2        0.379356   1.000000
    3        4.657641   1.000000
    4        5.089288   1.000000
    5        6.248330   1.000000
    6        9.454433  -0.007522
    7       10.622550  -0.000000
    8       10.654104  -0.000000
    9       12.380149   0.000000
   10       14.543609   0.000000

  0.4666667E+00  0.3562316E-15  0.1333333E+00  0.3555556E-02
    1       -1.697490   1.000000
    2       -0.679789   1.000000
    3        4.562199   1.000000
    4        5.139645   1.000000
    5        6.102423   1.000000
    6        9.583370  -0.000015
    7       10.538013  -0.000000
    8       10.793054  -0.000000
    9       12.588158   0.000000
   10       14.272284   0.000000

  0.6666667E-01  0.6666667E-01  0.1333333E+00  0.3555556E-02
    1       -5.130153   1.000000
    2        4.697314   1.000000
    3        4.949346   1.000000
    4        5.489195   1.000000
    5        7.662568   1.000000
    6        8.830619   1.000000
    7        9.718596  -0.000000
    8       11.349715  -0.000000
    9       11.492167  -0.000000
   10       15.602787   0.000000

  0.1333333E+00  0.6666667E-01  0.1333333E+00  0.7111111E-02
    1       -4.803103   1.000000
    2        4.163681   1.000000
    3        4.759889   1.000000
    4        5.235067   1.000000
    5        7.470604   1.000000
    6        8.714637   1.000000
    7       10.184663  -0.000000
    8       11.091171  -0.000000
    9       11.367078  -0.000000
   10       15.943641   0.000000

  0.2000000E+00  0.6666667E-01  0.1333333E+00  0.7111111E-02
    1       -4.323850   1.000000
    2        3.167283   1.000000
    3        4.777174   1.000000
    4        4.991694   1.000000
    5        7.245519   1.000000
    6        8.732976   1.000000
    7       10.381861  -0.000000
    8       10.948154  -0.000000
    9       11.558743  -0.000000
   10       15.731532   0.000000

  0.2666667E+00  0.6666667E-01  0.1333333E+00  0.7111111E-02
    1       -3.704595   1.000000
    2        2.076795   1.000000
    3        4.564436   1.000000
    4        4.999365   1.000000
    5        6.944312   1.000000
    6        8.913107   1.000009
    7       10.473190  -0.000000
    8       10.814167  -0.000000
    9       11.988166   0.000000
   10       15.224996   0.000000

  0.3333333E+00  0.6666667E-01  0.1333333E+00  0.7111111E-02
    1       -2.959752   1.000000
    2        0.967773   1.000000
    3        4.331505   1.000000
    4        5.082770   1.000000
    5        6.642574   1.000000
    6        9.161197   1.013690
    7       10.556516  -0.000000
    8       10.756377  -0.000000
    9       12.374657   0.000000
   10       14.769271   0.000000

  0.4000000E+00  0.6666667E-01  0.1333333E+00  0.7111111E-02
    1       -2.106168   1.000000
    2       -0.113028   1.000000
    3        4.176498   1.000000
    4        5.157129   1.000000
    5        6.421558   1.000000
    6        9.368256  -0.034682
    7       10.511825  -0.000000
    8       10.852667  -0.000000
    9       12.659256   0.000000
   10       14.424068   0.000000

  0.4666667E+00  0.6666667E-01  0.1333333E+00  0.3555556E-02
    1       -1.261907   1.000000
    2       -1.034273   1.000000
    3        4.122665   1.000000
    4        5.188106   1.000000
    5        6.339490   1.000000
    6        9.449204  -0.008897
    7       10.479450  -0.000000
    8       10.905648  -0.000000
    9       12.786496   0.000000
   10       14.270760   0.000000

  0.1333333E+00  0.1333333E+00  0.1333333E+00  0.3555556E-02
    1       -4.402607   1.000000
    2        3.478049   1.000000
    3        4.560212   1.000000
    4        4.952982   1.000000
    5        7.652519   1.000000
    6        8.356227   1.000000
    7       10.588037  -0.000000
    8       10.828991  -0.000000
    9       11.536793  -0.000000
   10       16.099365   0.000000

  0.2000000E+00  0.1333333E+00  0.1333333E+00  0.7111111E-02
    1       -3.856673   1.000000
    2        2.600019   1.000000
    3        4.074315   1.000000
    4        4.999594   1.000000
    5        7.614399   1.000000
    6        8.301751   1.000000
    7       10.606503  -0.000000
    8       10.808055  -0.000000
    9       11.979175  -0.000000
   10       15.568289   0.000000

  0.2666667E+00  0.1333333E+00  0.1333333E+00  0.7111111E-02
    1       -3.178579   1.000000
    2        1.590498   1.000000
    3        3.682245   1.000000
    4        5.101234   1.000000
    5        7.235342   1.000000
    6        8.654807   1.000000
    7       10.480337  -0.000000
    8       10.890384  -0.000000
    9       12.497235   0.000000
   10       15.065914   0.000000

  0.3333333E+00  0.1333333E+00  0.1333333E+00  0.7111111E-02
    1       -2.384434   1.000000
    2        0.540266   1.000000
    3        3.420123   1.000000
    4        5.214435   1.000000
    5        6.886664   1.000000
    6        9.015958   1.002063
    7       10.395476  -0.000000
    8       10.942498  -0.000000
    9       12.935454   0.000000
   10       14.674700   0.000000

  0.4000000E+00  0.1333333E+00  0.1333333E+00  0.7111111E-02
    1       -1.500278   1.000000
    2       -0.480696   1.000000
    3        3.288615   1.000000
    4        5.298222   1.000000
    5        6.677824   1.000000
    6        9.235091   0.645379
    7       10.362257  -0.000000
    8       10.956714  -0.000000
    9       13.223753   0.000000
   10       14.413832   0.000000

  0.2000000E+00  0.2000000E+00  0.1333333E+00  0.3555556E-02
    1       -3.251933   1.000000
    2        1.961203   1.000000
    3        3.285013   1.000000
    4        5.111710   1.000000
    5        7.619678   1.000000
    6        8.294159   1.000000
    7       10.444867  -0.000000
    8       10.941239  -0.000000
    9       12.561239   0.000000
   10       15.228080   0.000000

  0.2666667E+00  0.2000000E+00  0.1333333E+00  0.7111111E-02
    1       -2.524774   1.000000
    2        1.154665   1.000000
    3        2.717731   1.000000
    4        5.263961   1.000000
    5        7.184036   1.000000
    6        8.771422   1.000000
    7       10.283520  -0.000000
    8       10.981408  -0.000000
    9       13.163803   0.000000
   10       14.910363   0.000000
