   23   23    1    1
  0.8580923E+01  0.6077656E-09  0.6077611E-09  0.6175024E-09  0.5000000E-15
   1.0000000000000000E-004
  CAR 
 Name                                    
     87    365     56

  0.3742002E-15  0.3742002E-15  0.3742002E-15  0.1371742E-02
    1       -6.118238   1.000000
    2       -3.830114   1.000000
    3       -3.054209   1.000000
    4       -2.529703   1.000000
    5       -2.257977   1.000000
    6       -2.237961   1.000000
    7       -2.196590   1.000000
    8       -1.900409   1.000000
    9       -1.879762   1.000000
   10       -1.709641   1.000000
   11       -1.604173   1.000000
   12       -0.258982   1.000000
   13        0.023533   1.000000
   14        0.270006   1.000000
   15        0.355233   1.000000
   16        1.970441   1.000000
   17        2.283998   1.000000
   18        2.449329   1.000000
   19        2.769968   1.000000
   20        2.889484   1.000000
   21        3.179889   1.000000
   22        3.353812   1.000000
   23        3.376117   1.000000
   24        3.862563   1.000000
   25        4.142548   1.000000
   26        4.162402   1.000000
   27        4.179036   1.000000
   28        4.233663   1.000000
   29        4.267019   1.000000
   30        4.337702   1.000000
   31        4.592719   1.000000
   32        4.619890   1.000000
   33        4.627660   1.000000
   34        4.806267   1.000000
   35        4.910708   1.000000
   36        5.926471   1.000000
   37        5.980789   1.000000
   38        6.535076   1.000000
   39        6.654441   1.000000
   40        6.920009   1.000000
   41        7.051012   1.000000
   42        7.259425   1.000000
   43        7.564592   1.000000
   44        7.942918   1.000096
   45        8.156216   1.004165
   46        8.271340   0.265890
   47        9.040504  -0.000000
   48        9.275920  -0.000000
   49        9.336004  -0.000000
   50        9.450911  -0.000000
   51        9.952052  -0.000000
   52       10.994805   0.000000
   53       11.599898   0.000000
   54       11.956716   0.000000
   55       12.595632   0.000000
   56       13.242538   0.000000

  0.1111111E+00  0.3753815E-15  0.3742002E-15  0.2743484E-02
    1       -6.059288   1.000000
    2       -3.811322   1.000000
    3       -3.055305   1.000000
    4       -2.782209   1.000000
    5       -2.521407   1.000000
    6       -2.395743   1.000000
    7       -2.271329   1.000000
    8       -2.220692   1.000000
    9       -1.514791   1.000000
   10       -1.408546   1.000000
   11       -1.074668   1.000000
   12       -0.176024   1.000000
   13        0.068916   1.000000
   14        0.266490   1.000000
   15        0.439220   1.000000
   16        1.998284   1.000000
   17        2.290523   1.000000
   18        2.457555   1.000000
   19        2.795577   1.000000
   20        2.888537   1.000000
   21        3.014203   1.000000
   22        3.212924   1.000000
   23        3.405098   1.000000
   24        3.531873   1.000000
   25        3.971024   1.000000
   26        4.175541   1.000000
   27        4.192835   1.000000
   28        4.249538   1.000000
   29        4.250703   1.000000
   30        4.369294   1.000000
   31        4.502711   1.000000
   32        4.569206   1.000000
   33        4.677537   1.000000
   34        4.919964   1.000000
   35        5.244061   1.000000
   36        5.784076   1.000000
   37        5.979821   1.000000
   38        6.070597   1.000000
   39        6.076170   1.000000
   40        7.190199   1.000000
   41        7.486604   1.000000
   42        7.586290   1.000000
   43        7.631859   1.000000
   44        7.796391   1.000000
   45        8.208507   0.769188
   46        8.277495   0.222118
   47        9.054055  -0.000000
   48        9.248813  -0.000000
   49        9.302540  -0.000000
   50        9.397451  -0.000000
   51        9.708056  -0.000000
   52       10.701190  -0.000000
   53       11.119617   0.000000
   54       11.833889   0.000000
   55       11.976361   0.000000
   56       12.757337   0.000000

  0.2222222E+00  0.3572070E-15  0.3742000E-15  0.2743484E-02
    1       -5.884324   1.000000
    2       -3.754163   1.000000
    3       -3.469654   1.000000
    4       -3.078505   1.000000
    5       -2.616044   1.000000
    6       -2.538155   1.000000
    7       -2.492373   1.000000
    8       -2.378949   1.000000
    9       -1.012358   1.000000
   10       -0.955230   1.000000
   11       -0.291593   1.000000
   12        0.031087   1.000000
   13        0.075035   1.000000
   14        0.233973   1.000000
   15        0.839711   1.000000
   16        2.068301   1.000000
   17        2.304277   1.000000
   18        2.380963   1.000000
   19        2.530516   1.000000
   20        2.669540   1.000000
   21        2.882887   1.000000
   22        2.943703   1.000000
   23        3.202055   1.000000
   24        3.554976   1.000000
   25        3.584919   1.000000
   26        4.150413   1.000000
   27        4.183644   1.000000
   28        4.236687   1.000000
   29        4.277129   1.000000
   30        4.307710   1.000000
   31        4.470970   1.000000
   32        4.562316   1.000000
   33        4.691890   1.000000
   34        5.086779   1.000000
   35        5.088893   1.000000
   36        5.454480   1.000000
   37        5.562846   1.000000
   38        5.834435   1.000000
   39        6.403884   1.000000
   40        6.973482   1.000000
   41        7.409771   1.000000
   42        7.693858   1.000000
   43        7.877571   1.000002
   44        8.203071   0.805828
   45        8.410931  -0.019180
   46        8.572780  -0.000015
   47        9.047401  -0.000000
   48        9.086015  -0.000000
   49        9.114718  -0.000000
   50        9.207469  -0.000000
   51        9.579423  -0.000000
   52        9.684964  -0.000000
   53        9.883314  -0.000000
   54       10.296195  -0.000000
   55       10.462740  -0.000000
   56       11.432193   0.000000

  0.3333333E+00  0.3638783E-15  0.3742005E-15  0.2743484E-02
    1       -5.599692   1.000000
    2       -4.110786   1.000000
    3       -3.658014   1.000000
    4       -3.170782   1.000000
    5       -2.778344   1.000000
    6       -2.670008   1.000000
    7       -2.613637   1.000000
    8       -2.371372   1.000000
    9       -0.474056   1.000000
   10       -0.436120   1.000000
   11       -0.058736   1.000000
   12        0.186775   1.000000
   13        0.379682   1.000000
   14        0.598881   1.000000
   15        1.451900   1.000000
   16        1.890109   1.000000
   17        1.976082   1.000000
   18        2.125356   1.000000
   19        2.148471   1.000000
   20        2.320508   1.000000
   21        2.839936   1.000000
   22        3.053650   1.000000
   23        3.060070   1.000000
   24        3.215838   1.000000
   25        3.759347   1.000000
   26        3.968274   1.000000
   27        4.034783   1.000000
   28        4.164647   1.000000
   29        4.167638   1.000000
   30        4.285802   1.000000
   31        4.395748   1.000000
   32        4.569131   1.000000
   33        4.636363   1.000000
   34        4.826716   1.000000
   35        5.050856   1.000000
   36        5.236764   1.000000
   37        5.243309   1.000000
   38        6.376670   1.000000
   39        6.478003   1.000000
   40        6.978291   1.000000
   41        7.022880   1.000000
   42        7.831279   1.000000
   43        7.901221   1.000008
   44        8.225321   0.642006
   45        8.641577  -0.000000
   46        8.683818  -0.000000
   47        9.020214  -0.000000
   48        9.042591  -0.000000
   49        9.122671  -0.000000
   50        9.131117  -0.000000
   51        9.400891  -0.000000
   52        9.632016  -0.000000
   53        9.823982  -0.000000
   54       10.009016  -0.000000
   55       10.175664  -0.000000
   56       11.318865   0.000000

  0.4444444E+00  0.3837194E-15  0.3741998E-15  0.2743484E-02
    1       -5.227988   1.000000
    2       -4.663400   1.000000
    3       -3.532922   1.000000
    4       -3.318741   1.000000
    5       -2.861800   1.000000
    6       -2.758309   1.000000
    7       -2.643543   1.000000
    8       -2.344582   1.000000
    9       -0.121980   1.000000
   10        0.000559   1.000000
   11        0.020364   1.000000
   12        0.153827   1.000000
   13        0.876994   1.000000
   14        1.288133   1.000000
   15        1.391607   1.000000
   16        1.481627   1.000000
   17        1.610926   1.000000
   18        2.026091   1.000000
   19        2.223241   1.000000
   20        2.226223   1.000000
   21        2.440244   1.000000
   22        3.036593   1.000000
   23        3.157942   1.000000
   24        3.273667   1.000000
   25        3.305140   1.000000
   26        3.838636   1.000000
   27        3.945351   1.000000
   28        4.074800   1.000000
   29        4.094316   1.000000
   30        4.293898   1.000000
   31        4.479234   1.000000
   32        4.489465   1.000000
   33        4.673359   1.000000
   34        4.676662   1.000000
   35        5.015802   1.000000
   36        5.200428   1.000000
   37        5.304336   1.000000
   38        6.222863   1.000000
   39        6.683955   1.000000
   40        6.824046   1.000000
   41        7.389256   1.000000
   42        7.846470   1.000000
   43        7.965336   1.000318
   44        8.214291   0.727579
   45        8.230771   0.597453
   46        8.243202   0.492981
   47        8.964674  -0.000000
   48        9.136570  -0.000000
   49        9.342028  -0.000000
   50        9.367526  -0.000000
   51        9.450009  -0.000000
   52        9.512570  -0.000000
   53        9.567052  -0.000000
   54        9.628470  -0.000000
   55       10.220083  -0.000000
   56       10.417025  -0.000000

  0.3742245E-15  0.1111111E+00  0.3742002E-15  0.2743484E-02
    1       -6.059287   1.000000
    2       -3.811320   1.000000
    3       -3.055304   1.000000
    4       -2.782264   1.000000
    5       -2.521380   1.000000
    6       -2.395674   1.000000
    7       -2.271376   1.000000
    8       -2.220666   1.000000
    9       -1.514792   1.000000
   10       -1.408669   1.000000
   11       -1.074578   1.000000
   12       -0.176025   1.000000
   13        0.068997   1.000000
   14        0.266481   1.000000
   15        0.439180   1.000000
   16        1.998279   1.000000
   17        2.290522   1.000000
   18        2.457545   1.000000
   19        2.795565   1.000000
   20        2.888527   1.000000
   21        3.014196   1.000000
   22        3.212953   1.000000
   23        3.405100   1.000000
   24        3.531809   1.000000
   25        3.970977   1.000000
   26        4.175556   1.000000
   27        4.192874   1.000000
   28        4.249498   1.000000
   29        4.250735   1.000000
   30        4.369406   1.000000
   31        4.502795   1.000000
   32        4.569181   1.000000
   33        4.677464   1.000000
   34        4.919932   1.000000
   35        5.244044   1.000000
   36        5.784116   1.000000
   37        5.979872   1.000000
   38        6.070471   1.000000
   39        6.076177   1.000000
   40        7.190186   1.000000
   41        7.486581   1.000000
   42        7.586290   1.000000
   43        7.631934   1.000000
   44        7.796409   1.000000
   45        8.208470   0.769443
   46        8.277531   0.221870
   47        9.052282  -0.000000
   48        9.234429  -0.000000
   49        9.314355  -0.000000
   50        9.424289  -0.000000
   51        9.699624  -0.000000
   52        9.970641  -0.000000
   53       11.144689   0.000000
   54       11.756407   0.000000
   55       11.979447   0.000000
   56       12.829101   0.000000

  0.1111111E+00  0.1111111E+00  0.3742001E-15  0.2743484E-02
    1       -5.941164   1.000000
    2       -3.769116   1.000000
    3       -3.182058   1.000000
    4       -3.046967   1.000000
    5       -2.937386   1.000000
    6       -2.499649   1.000000
    7       -2.416252   1.000000
    8       -1.886618   1.000000
    9       -1.688762   1.000000
   10       -0.674794   1.000000
   11       -0.643693   1.000000
   12       -0.065988   1.000000
   13       -0.006306   1.000000
   14        0.396139   1.000000
   15        0.699434   1.000000
   16        1.997734   1.000000
   17        2.259878   1.000000
   18        2.375066   1.000000
   19        2.522804   1.000000
   20        2.920429   1.000000
   21        3.007346   1.000000
   22        3.089721   1.000000
   23        3.320813   1.000000
   24        3.530101   1.000000
   25        3.762651   1.000000
   26        3.815711   1.000000
   27        4.209764   1.000000
   28        4.223926   1.000000
   29        4.267777   1.000000
   30        4.419430   1.000000
   31        4.470480   1.000000
   32        4.607840   1.000000
   33        4.689052   1.000000
   34        5.257653   1.000000
   35        5.333795   1.000000
   36        5.373953   1.000000
   37        5.463032   1.000000
   38        5.667511   1.000000
   39        6.388774   1.000000
   40        7.016145   1.000000
   41        7.512158   1.000000
   42        7.684955   1.000000
   43        7.916380   1.000020
   44        8.068278   1.016800
   45        8.180146   0.929756
   46        8.560911  -0.000032
   47        9.072560  -0.000000
   48        9.174621  -0.000000
   49        9.212904  -0.000000
   50        9.225548  -0.000000
   51        9.539469  -0.000000
   52        9.617934  -0.000000
   53       10.464186  -0.000000
   54       11.373688   0.000000
   55       11.910933   0.000000
   56       13.041587   0.000000

  0.2222222E+00  0.1111111E+00  0.3742003E-15  0.2743484E-02
    1       -5.710251   1.000000
    2       -3.782111   1.000000
    3       -3.691618   1.000000
    4       -3.236355   1.000000
    5       -3.069410   1.000000
    6       -2.724878   1.000000
    7       -2.293153   1.000000
    8       -1.996076   1.000000
    9       -1.233314   1.000000
   10       -0.284206   1.000000
   11       -0.180901   1.000000
   12        0.121951   1.000000
   13        0.340826   1.000000
   14        0.495808   1.000000
   15        1.237493   1.000000
   16        1.787974   1.000000
   17        2.038478   1.000000
   18        2.249480   1.000000
   19        2.335948   1.000000
   20        2.648160   1.000000
   21        2.824153   1.000000
   22        3.068861   1.000000
   23        3.269049   1.000000
   24        3.295812   1.000000
   25        3.732516   1.000000
   26        3.757741   1.000000
   27        4.082411   1.000000
   28        4.105986   1.000000
   29        4.178855   1.000000
   30        4.304642   1.000000
   31        4.464816   1.000000
   32        4.675313   1.000000
   33        4.807086   1.000000
   34        4.852355   1.000000
   35        5.098816   1.000000
   36        5.204723   1.000000
   37        5.341878   1.000000
   38        5.860548   1.000000
   39        6.694023   1.000000
   40        6.879769   1.000000
   41        7.114222   1.000000
   42        7.819922   1.000000
   43        7.992406   1.001160
   44        8.243737   0.488452
   45        8.548782  -0.000065
   46        8.846102  -0.000000
   47        8.914334  -0.000000
   48        9.080277  -0.000000
   49        9.110477  -0.000000
   50        9.181255  -0.000000
   51        9.374039  -0.000000
   52        9.589027  -0.000000
   53        9.888886  -0.000000
   54        9.983833  -0.000000
   55       10.053234  -0.000000
   56       10.145825  -0.000000

  0.3333333E+00  0.1111111E+00  0.3742004E-15  0.2743484E-02
    1       -5.376824   1.000000
    2       -4.375349   1.000000
    3       -3.582646   1.000000
    4       -3.383745   1.000000
    5       -3.201909   1.000000
    6       -2.813506   1.000000
    7       -2.185752   1.000000
    8       -2.118004   1.000000
    9       -0.657592   1.000000
   10       -0.455593   1.000000
   11        0.287991   1.000000
   12        0.547714   1.000000
   13        0.692021   1.000000
   14        1.011452   1.000000
   15        1.130466   1.000000
   16        1.855064   1.000000
   17        1.920274   1.000000
   18        2.088095   1.000000
   19        2.186017   1.000000
   20        2.270414   1.000000
   21        2.520084   1.000000
   22        2.760054   1.000000
   23        3.179054   1.000000
   24        3.481570   1.000000
   25        3.510579   1.000000
   26        3.785949   1.000000
   27        3.962157   1.000000
   28        3.985973   1.000000
   29        4.065835   1.000000
   30        4.130031   1.000000
   31        4.432839   1.000000
   32        4.519562   1.000000
   33        4.764606   1.000000
   34        4.857543   1.000000
   35        5.019378   1.000000
   36        5.111426   1.000000
   37        5.352418   1.000000
   38        6.250360   1.000000
   39        6.536709   1.000000
   40        6.741116   1.000000
   41        7.319519   1.000000
   42        7.879029   1.000002
   43        7.970811   1.000419
   44        8.288989   0.149047
   45        8.454904  -0.005223
   46        8.483758  -0.001687
   47        8.953844  -0.000000
   48        9.004363  -0.000000
   49        9.161011  -0.000000
   50        9.281169  -0.000000
   51        9.491782  -0.000000
   52        9.568880  -0.000000
   53        9.716284  -0.000000
   54       10.148233  -0.000000
   55       10.245071  -0.000000
   56       10.957824  -0.000000

  0.4444444E+00  0.1111111E+00  0.3742004E-15  0.2743484E-02
    1       -5.053750   1.000000
    2       -4.787126   1.000000
    3       -3.489511   1.000000
    4       -3.430643   1.000000
    5       -3.345240   1.000000
    6       -2.803835   1.000000
    7       -2.162772   1.000000
    8       -2.139324   1.000000
    9       -0.507166   1.000000
   10       -0.291031   1.000000
   11        0.524672   1.000000
   12        0.566518   1.000000
   13        0.732494   1.000000
   14        1.089790   1.000000
   15        1.412112   1.000000
   16        1.708886   1.000000
   17        1.823290   1.000000
   18        2.009096   1.000000
   19        2.052636   1.000000
   20        2.304574   1.000000
   21        2.603167   1.000000
   22        2.726114   1.000000
   23        2.781089   1.000000
   24        3.392462   1.000000
   25        3.465889   1.000000
   26        3.716445   1.000000
   27        3.801333   1.000000
   28        4.034645   1.000000
   29        4.076733   1.000000
   30        4.181188   1.000000
   31        4.402148   1.000000
   32        4.452675   1.000000
   33        4.558945   1.000000
   34        4.929675   1.000000
   35        5.154927   1.000000
   36        5.250424   1.000000
   37        5.353940   1.000000
   38        6.163355   1.000000
   39        6.560310   1.000000
   40        6.716480   1.000000
   41        7.684108   1.000000
   42        7.803632   1.000000
   43        8.060342   1.013663
   44        8.164256   0.985070
   45        8.215358   0.719633
   46        8.302357   0.080057
   47        8.891443  -0.000000
   48        9.217019  -0.000000
   49        9.223655  -0.000000
   50        9.278565  -0.000000
   51        9.455273  -0.000000
   52        9.547769  -0.000000
   53        9.894916  -0.000000
   54       10.035339  -0.000000
   55       10.482811  -0.000000
   56       10.847183  -0.000000

 -0.4444444E+00  0.1111111E+00  0.3742008E-15  0.2743484E-02
    1       -5.383683   1.000000
    2       -4.368162   1.000000
    3       -3.595092   1.000000
    4       -3.381227   1.000000
    5       -3.253729   1.000000
    6       -2.768670   1.000000
    7       -2.159186   1.000000
    8       -2.127110   1.000000
    9       -0.637428   1.000000
   10       -0.420806   1.000000
   11        0.258705   1.000000
   12        0.558018   1.000000
   13        0.665920   1.000000
   14        0.907912   1.000000
   15        1.281974   1.000000
   16        1.674610   1.000000
   17        1.855161   1.000000
   18        2.137791   1.000000
   19        2.282478   1.000000
   20        2.376444   1.000000
   21        2.555165   1.000000
   22        2.758899   1.000000
   23        3.049415   1.000000
   24        3.294554   1.000000
   25        3.541860   1.000000
   26        3.831723   1.000000
   27        3.910769   1.000000
   28        3.948774   1.000000
   29        4.059622   1.000000
   30        4.115370   1.000000
   31        4.423709   1.000000
   32        4.443530   1.000000
   33        4.791511   1.000000
   34        4.894295   1.000000
   35        5.105068   1.000000
   36        5.308586   1.000000
   37        5.394149   1.000000
   38        6.246026   1.000000
   39        6.658481   1.000000
   40        6.713883   1.000000
   41        7.298640   1.000000
   42        7.807034   1.000000
   43        7.960746   1.000251
   44        8.299219   0.094642
   45        8.462604  -0.003941
   46        8.500138  -0.000813
   47        8.918297  -0.000000
   48        9.054137  -0.000000
   49        9.153075  -0.000000
   50        9.304225  -0.000000
   51        9.407407  -0.000000
   52        9.581896  -0.000000
   53        9.624988  -0.000000
   54        9.679656  -0.000000
   55       10.087758  -0.000000
   56       10.403573  -0.000000

 -0.3333333E+00  0.1111111E+00  0.3742005E-15  0.2743484E-02
    1       -5.716044   1.000000
    2       -3.775769   1.000000
    3       -3.711010   1.000000
    4       -3.231750   1.000000
    5       -3.137907   1.000000
    6       -2.714836   1.000000
    7       -2.188481   1.000000
    8       -2.015927   1.000000
    9       -1.201925   1.000000
   10       -0.244874   1.000000
   11       -0.222989   1.000000
   12        0.106081   1.000000
   13        0.325932   1.000000
   14        0.507034   1.000000
   15        1.075958   1.000000
   16        1.909821   1.000000
   17        2.213569   1.000000
   18        2.340696   1.000000
   19        2.388967   1.000000
   20        2.605131   1.000000
   21        2.699633   1.000000
   22        2.804108   1.000000
   23        3.194641   1.000000
   24        3.257622   1.000000
   25        3.624382   1.000000
   26        3.748020   1.000000
   27        4.090670   1.000000
   28        4.133477   1.000000
   29        4.190615   1.000000
   30        4.265985   1.000000
   31        4.480925   1.000000
   32        4.588332   1.000000
   33        4.751403   1.000000
   34        4.949044   1.000000
   35        5.166394   1.000000
   36        5.345978   1.000000
   37        5.475126   1.000000
   38        6.195026   1.000000
   39        6.589670   1.000000
   40        6.882568   1.000000
   41        7.116544   1.000000
   42        7.775047   1.000000
   43        7.864880   1.000001
   44        8.261550   0.340973
   45        8.609944  -0.000001
   46        8.872838  -0.000000
   47        8.904292  -0.000000
   48        9.078473  -0.000000
   49        9.123542  -0.000000
   50        9.129605  -0.000000
   51        9.395752  -0.000000
   52        9.582583  -0.000000
   53       10.036774  -0.000000
   54       10.079983  -0.000000
   55       10.117733  -0.000000
   56       11.340189   0.000000

 -0.2222222E+00  0.1111111E+00  0.3742002E-15  0.2743484E-02
    1       -5.945012   1.000000
    2       -3.785067   1.000000
    3       -3.176322   1.000000
    4       -3.080100   1.000000
    5       -2.935137   1.000000
    6       -2.652162   1.000000
    7       -2.172514   1.000000
    8       -1.918586   1.000000
    9       -1.641376   1.000000
   10       -0.764925   1.000000
   11       -0.594202   1.000000
   12       -0.042571   1.000000
   13       -0.020629   1.000000
   14        0.332716   1.000000
   15        0.667273   1.000000
   16        2.131525   1.000000
   17        2.382882   1.000000
   18        2.527800   1.000000
   19        2.648042   1.000000
   20        2.687132   1.000000
   21        2.742832   1.000000
   22        3.014722   1.000000
   23        3.289161   1.000000
   24        3.454098   1.000000
   25        3.566630   1.000000
   26        3.893909   1.000000
   27        4.109801   1.000000
   28        4.203745   1.000000
   29        4.261441   1.000000
   30        4.397324   1.000000
   31        4.571824   1.000000
   32        4.589023   1.000000
   33        4.782889   1.000000
   34        5.252823   1.000000
   35        5.317091   1.000000
   36        5.536538   1.000000
   37        5.734270   1.000000
   38        5.805286   1.000000
   39        6.249950   1.000000
   40        7.121267   1.000000
   41        7.556111   1.000000
   42        7.570431   1.000000
   43        7.894564   1.000005
   44        8.041453   1.007760
   45        8.152178   1.011733
   46        8.544321  -0.000084
   47        9.072784  -0.000000
   48        9.136573  -0.000000
   49        9.193192  -0.000000
   50        9.242683  -0.000000
   51        9.548318  -0.000000
   52        9.996858  -0.000000
   53       10.322937  -0.000000
   54       10.521367  -0.000000
   55       11.401802   0.000000
   56       11.871970   0.000000

 -0.1111111E+00  0.1111111E+00  0.3742003E-15  0.2743484E-02
    1       -6.060636   1.000000
    2       -3.817372   1.000000
    3       -3.063154   1.000000
    4       -2.769456   1.000000
    5       -2.594745   1.000000
    6       -2.457277   1.000000
    7       -2.160790   1.000000
    8       -2.143874   1.000000
    9       -1.537963   1.000000
   10       -1.425452   1.000000
   11       -1.068154   1.000000
   12       -0.181539   1.000000
   13        0.097910   1.000000
   14        0.156424   1.000000
   15        0.491177   1.000000
   16        2.047447   1.000000
   17        2.338127   1.000000
   18        2.496062   1.000000
   19        2.705845   1.000000
   20        2.809971   1.000000
   21        3.182335   1.000000
   22        3.182766   1.000000
   23        3.378654   1.000000
   24        3.555669   1.000000
   25        3.617111   1.000000
   26        4.127601   1.000000
   27        4.183685   1.000000
   28        4.243659   1.000000
   29        4.288733   1.000000
   30        4.335308   1.000000
   31        4.602729   1.000000
   32        4.622977   1.000000
   33        4.672080   1.000000
   34        5.097730   1.000000
   35        5.303122   1.000000
   36        5.770609   1.000000
   37        6.008324   1.000000
   38        6.048943   1.000000
   39        6.055802   1.000000
   40        7.307679   1.000000
   41        7.469251   1.000000
   42        7.561892   1.000000
   43        7.567902   1.000000
   44        7.859908   1.000000
   45        8.085730   1.024620
   46        8.319978   0.016337
   47        9.052318  -0.000000
   48        9.261345  -0.000000
   49        9.291435  -0.000000
   50        9.374370  -0.000000
   51        9.734143  -0.000000
   52        9.926127  -0.000000
   53       11.147841   0.000000
   54       11.516835   0.000000
   55       12.043878   0.000000
   56       12.974113   0.000000

  0.3742254E-15  0.2222222E+00  0.3742001E-15  0.2743484E-02
    1       -5.884320   1.000000
    2       -3.754157   1.000000
    3       -3.469684   1.000000
    4       -3.078499   1.000000
    5       -2.616024   1.000000
    6       -2.538026   1.000000
    7       -2.492361   1.000000
    8       -2.379141   1.000000
    9       -1.012330   1.000000
   10       -0.955283   1.000000
   11       -0.291525   1.000000
   12        0.031221   1.000000
   13        0.075022   1.000000
   14        0.234002   1.000000
   15        0.839655   1.000000
   16        2.068284   1.000000
   17        2.304265   1.000000
   18        2.380906   1.000000
   19        2.530521   1.000000
   20        2.669520   1.000000
   21        2.882855   1.000000
   22        2.943708   1.000000
   23        3.201982   1.000000
   24        3.554982   1.000000
   25        3.584897   1.000000
   26        4.150361   1.000000
   27        4.183710   1.000000
   28        4.236667   1.000000
   29        4.277220   1.000000
   30        4.307834   1.000000
   31        4.470864   1.000000
   32        4.562276   1.000000
   33        4.692065   1.000000
   34        5.086782   1.000000
   35        5.088870   1.000000
   36        5.454397   1.000000
   37        5.562863   1.000000
   38        5.834366   1.000000
   39        6.403881   1.000000
   40        6.973454   1.000000
   41        7.409833   1.000000
   42        7.693857   1.000000
   43        7.877507   1.000002
   44        8.203085   0.805740
   45        8.411070  -0.019118
   46        8.572763  -0.000015
   47        9.047491  -0.000000
   48        9.085714  -0.000000
   49        9.114938  -0.000000
   50        9.207496  -0.000000
   51        9.601443  -0.000000
   52        9.805612  -0.000000
   53        9.944296  -0.000000
   54       10.275733  -0.000000
   55       10.386295  -0.000000
   56       11.409881   0.000000

  0.1111111E+00  0.2222222E+00  0.3742001E-15  0.2743484E-02
    1       -5.710247   1.000000
    2       -3.782126   1.000000
    3       -3.691613   1.000000
    4       -3.236349   1.000000
    5       -3.069397   1.000000
    6       -2.724876   1.000000
    7       -2.293205   1.000000
    8       -1.996090   1.000000
    9       -1.233283   1.000000
   10       -0.284170   1.000000
   11       -0.180919   1.000000
   12        0.122025   1.000000
   13        0.340789   1.000000
   14        0.495891   1.000000
   15        1.237442   1.000000
   16        1.787939   1.000000
   17        2.038467   1.000000
   18        2.249471   1.000000
   19        2.335976   1.000000
   20        2.648130   1.000000
   21        2.824098   1.000000
   22        3.068845   1.000000
   23        3.269068   1.000000
   24        3.295742   1.000000
   25        3.732521   1.000000
   26        3.757746   1.000000
   27        4.082463   1.000000
   28        4.106098   1.000000
   29        4.178852   1.000000
   30        4.304545   1.000000
   31        4.464758   1.000000
   32        4.675436   1.000000
   33        4.807102   1.000000