   59   59    1    1
  0.1289690E+02  0.6088057E-09  0.6088057E-09  0.2372246E-08  0.5000000E-15
   1.0000000000000000E-004
  CAR 
 Name                                    
    205     41    132

  0.3742002E-15  0.3742002E-15  0.1262379E-14  0.1234568E-01
    1      -11.281772   1.000000
    2      -10.782108   1.000000
    3      -10.291324   1.000000
    4       -9.625257   1.000000
    5       -8.496398   1.000000
    6       -8.398513   1.000000
    7       -8.137472   1.000000
    8       -7.908014   1.000000
    9       -7.819419   1.000000
   10       -7.693159   1.000000
   11       -7.557029   1.000000
   12       -7.510698   1.000000
   13       -7.418438   1.000000
   14       -7.411358   1.000000
   15       -7.378496   1.000000
   16       -7.163258   1.000000
   17       -7.160051   1.000000
   18       -7.088673   1.000000
   19       -7.073309   1.000000
   20       -6.859700   1.000000
   21       -6.798102   1.000000
   22       -6.628966   1.000000
   23       -6.575207   1.000000
   24       -6.409690   1.000000
   25       -5.821042   1.000000
   26       -5.809491   1.000000
   27       -5.784074   1.000000
   28       -5.657411   1.000000
   29       -5.656141   1.000000
   30       -5.645999   1.000000
   31       -5.299513   1.000000
   32       -4.727631   1.000000
   33       -4.611316   1.000000
   34       -4.362452   1.000000
   35       -4.352637   1.000000
   36       -4.311206   1.000000
   37       -4.177765   1.000000
   38       -3.364552   1.000000
   39       -3.210775   1.000000
   40       -2.856502   1.000000
   41       -2.836675   1.000000
   42       -2.683197   1.000000
   43       -2.484889   1.000000
   44       -2.397737   1.000000
   45       -2.344708   1.000000
   46       -2.224098   1.000000
   47       -2.178774   1.000000
   48       -2.159192   1.000000
   49       -1.983821   1.000000
   50       -1.971615   1.000000
   51       -1.840262   1.000000
   52       -1.743171   1.000000
   53       -1.663411   1.000000
   54       -1.639273   1.000000
   55       -1.581709   1.000000
   56       -1.537110   1.000000
   57       -1.534091   1.000000
   58       -1.472124   1.000000
   59       -1.409538   1.000000
   60       -1.390517   1.000000
   61       -1.284134   1.000000
   62       -1.192845   1.000000
   63       -1.139463   1.000000
   64       -1.046886   1.000000
   65       -0.972653   1.000000
   66       -0.960387   1.000000
   67       -0.897450   1.000000
   68       -0.827082   1.000000
   69       -0.823511   1.000000
   70       -0.552723   1.000000
   71       -0.541966   1.000000
   72       -0.510942   1.000000
   73       -0.501347   1.000000
   74       -0.379202   1.000000
   75       -0.353486   1.000000
   76       -0.343458   1.000000
   77       -0.228405   1.000000
   78       -0.114821   1.000000
   79        0.098324   1.000000
   80        0.175533   1.000000
   81        0.182654   1.000000
   82        0.299372   1.000000
   83        0.545693   1.000000
   84        0.735500   1.000000
   85        0.780270   1.000000
   86        0.993295   1.000000
   87        1.261958   1.000000
   88        1.363868   1.000000
   89        1.461769   1.000000
   90        1.464169   1.000000
   91        1.616361   1.000000
   92        1.661352   1.000000
   93        1.769803   1.000000
   94        1.782398   1.000000
   95        1.855053   1.000000
   96        1.861824   1.000000
   97        1.897123   1.000000
   98        2.302365   1.000022
   99        2.548745   1.007555
  100        2.920131   0.633853
  101        2.947050   0.521861
  102        2.986916   0.355604
  103        3.038961   0.168448
  104        3.195724  -0.035450
  105        3.302020  -0.016466
  106        3.335794  -0.010329
  107        3.437884  -0.001585
  108        3.541271  -0.000126
  109        3.711974  -0.000001
  110        3.862015  -0.000000
  111        3.902448  -0.000000
  112        3.958141  -0.000000
  113        4.013380  -0.000000
  114        4.116317  -0.000000
  115        4.134273  -0.000000
  116        4.160080  -0.000000
  117        4.207373  -0.000000
  118        4.254847  -0.000000
  119        4.307165  -0.000000
  120        4.321273  -0.000000
  121        4.416289  -0.000000
  122        4.477898  -0.000000
  123        4.525243  -0.000000
  124        4.596953  -0.000000
  125        4.813618  -0.000000
  126        4.827646  -0.000000
  127        5.126360  -0.000000
  128        5.171155  -0.000000
  129        5.724052  -0.000000
  130        6.055066  -0.000000
  131        6.218323  -0.000000
  132        6.345239  -0.000000

  0.1111111E+00  0.3857958E-15  0.1262379E-14  0.2469136E-01
    1      -11.224337   1.000000
    2      -10.729999   1.000000
    3      -10.246432   1.000000
    4       -9.592770   1.000000
    5       -8.460599   1.000000
    6       -8.416094   1.000000
    7       -8.223954   1.000000
    8       -8.117467   1.000000
    9       -7.980890   1.000000
   10       -7.854910   1.000000
   11       -7.759517   1.000000
   12       -7.730348   1.000000
   13       -7.676731   1.000000
   14       -7.567179   1.000000
   15       -7.512925   1.000000
   16       -7.262066   1.000000
   17       -6.930521   1.000000
   18       -6.901723   1.000000
   19       -6.832529   1.000000
   20       -6.659362   1.000000
   21       -6.573700   1.000000
   22       -6.515286   1.000000
   23       -6.341454   1.000000
   24       -6.266641   1.000000
   25       -5.872213   1.000000
   26       -5.805885   1.000000
   27       -5.756417   1.000000
   28       -5.632078   1.000000
   29       -5.572307   1.000000
   30       -5.475314   1.000000
   31       -5.221569   1.000000
   32       -4.643982   1.000000
   33       -4.470186   1.000000
   34       -4.315462   1.000000
   35       -4.279722   1.000000
   36       -4.121005   1.000000
   37       -4.078206   1.000000
   38       -3.342300   1.000000
   39       -3.171570   1.000000
   40       -2.906096   1.000000
   41       -2.875210   1.000000
   42       -2.668470   1.000000
   43       -2.556893   1.000000
   44       -2.447577   1.000000
   45       -2.387988   1.000000
   46       -2.360379   1.000000
   47       -2.278044   1.000000
   48       -2.177841   1.000000
   49       -2.119936   1.000000
   50       -1.970114   1.000000
   51       -1.873109   1.000000
   52       -1.847380   1.000000
   53       -1.646356   1.000000
   54       -1.620356   1.000000
   55       -1.585571   1.000000
   56       -1.537923   1.000000
   57       -1.506254   1.000000
   58       -1.461662   1.000000
   59       -1.419298   1.000000
   60       -1.380247   1.000000
   61       -1.308055   1.000000
   62       -1.211426   1.000000
   63       -1.164594   1.000000
   64       -1.100946   1.000000
   65       -1.017424   1.000000
   66       -0.971925   1.000000
   67       -0.951707   1.000000
   68       -0.871236   1.000000
   69       -0.834882   1.000000
   70       -0.695350   1.000000
   71       -0.603724   1.000000
   72       -0.551868   1.000000
   73       -0.499099   1.000000
   74       -0.436049   1.000000
   75       -0.354695   1.000000
   76       -0.306309   1.000000
   77       -0.238856   1.000000
   78       -0.075660   1.000000
   79        0.058011   1.000000
   80        0.148333   1.000000
   81        0.208201   1.000000
   82        0.284639   1.000000
   83        0.386695   1.000000
   84        0.566917   1.000000
   85        0.724133   1.000000
   86        0.879167   1.000000
   87        1.162897   1.000000
   88        1.177204   1.000000
   89        1.260476   1.000000
   90        1.391808   1.000000
   91        1.488336   1.000000
   92        1.666106   1.000000
   93        1.692553   1.000000
   94        1.735772   1.000000
   95        1.875246   1.000000
   96        1.987532   1.000000
   97        2.104805   1.000000
   98        2.422488   1.000581
   99        2.666852   1.030751
  100        2.829467   0.926091
  101        2.896722   0.725100
  102        3.017448   0.239590
  103        3.059032   0.111766
  104        3.138392  -0.016386
  105        3.166674  -0.031094
  106        3.433576  -0.001738
  107        3.534680  -0.000151
  108        3.653281  -0.000004
  109        3.735945  -0.000000
  110        3.838929  -0.000000
  111        3.906263  -0.000000
  112        3.944559  -0.000000
  113        3.999116  -0.000000
  114        4.068263  -0.000000
  115        4.080249  -0.000000
  116        4.122286  -0.000000
  117        4.148541  -0.000000
  118        4.195217  -0.000000
  119        4.236022  -0.000000
  120        4.284443  -0.000000
  121        4.358424  -0.000000
  122        4.379468  -0.000000
  123        4.413306  -0.000000
  124        4.491840  -0.000000
  125        4.667315  -0.000000
  126        4.741833  -0.000000
  127        5.108300  -0.000000
  128        5.213703  -0.000000
  129        5.876668  -0.000000
  130        6.155783  -0.000000
  131        6.287313  -0.000000
  132        6.484967  -0.000000

  0.2222222E+00  0.3935346E-15  0.1262379E-14  0.2469136E-01
    1      -11.054155   1.000000
    2      -10.576119   1.000000
    3      -10.114504   1.000000
    4       -9.497947   1.000000
    5       -8.728324   1.000000
    6       -8.537261   1.000000
    7       -8.494077   1.000000
    8       -8.417950   1.000000
    9       -8.350534   1.000000
   10       -8.004379   1.000000
   11       -7.941910   1.000000
   12       -7.905035   1.000000
   13       -7.770741   1.000000
   14       -7.766303   1.000000
   15       -7.727195   1.000000
   16       -7.445725   1.000000
   17       -6.957540   1.000000
   18       -6.832846   1.000000
   19       -6.525080   1.000000
   20       -6.506332   1.000000
   21       -6.274474   1.000000
   22       -6.209263   1.000000
   23       -6.002834   1.000000
   24       -5.800498   1.000000
   25       -5.746492   1.000000
   26       -5.635120   1.000000
   27       -5.538524   1.000000
   28       -5.472727   1.000000
   29       -5.403949   1.000000
   30       -5.015998   1.000000
   31       -4.982090   1.000000
   32       -4.446066   1.000000
   33       -4.219152   1.000000
   34       -4.187284   1.000000
   35       -4.108192   1.000000
   36       -3.777617   1.000000
   37       -3.604828   1.000000
   38       -3.296271   1.000000
   39       -3.121463   1.000000
   40       -3.048081   1.000000
   41       -2.990788   1.000000
   42       -2.893178   1.000000
   43       -2.856019   1.000000
   44       -2.786589   1.000000
   45       -2.607310   1.000000
   46       -2.446633   1.000000
   47       -2.325273   1.000000
   48       -2.270784   1.000000
   49       -2.149673   1.000000
   50       -1.966924   1.000000
   51       -1.892770   1.000000
   52       -1.863858   1.000000
   53       -1.821050   1.000000
   54       -1.713296   1.000000
   55       -1.672186   1.000000
   56       -1.628555   1.000000
   57       -1.560248   1.000000
   58       -1.494558   1.000000
   59       -1.456943   1.000000
   60       -1.408598   1.000000
   61       -1.360376   1.000000
   62       -1.265849   1.000000
   63       -1.190395   1.000000
   64       -1.178763   1.000000
   65       -1.145715   1.000000
   66       -1.103058   1.000000
   67       -1.033448   1.000000
   68       -0.983479   1.000000
   69       -0.926686   1.000000
   70       -0.790807   1.000000
   71       -0.726390   1.000000
   72       -0.692217   1.000000
   73       -0.662441   1.000000
   74       -0.481190   1.000000
   75       -0.442026   1.000000
   76       -0.302929   1.000000
   77       -0.208838   1.000000
   78       -0.139593   1.000000
   79       -0.015204   1.000000
   80        0.071576   1.000000
   81        0.125155   1.000000
   82        0.200892   1.000000
   83        0.338857   1.000000
   84        0.462987   1.000000
   85        0.569007   1.000000
   86        0.792649   1.000000
   87        0.828161   1.000000
   88        0.999879   1.000000
   89        1.092726   1.000000
   90        1.260557   1.000000
   91        1.356405   1.000000
   92        1.469406   1.000000
   93        1.619236   1.000000
   94        1.649900   1.000000
   95        1.938205   1.000000
   96        2.027603   1.000000
   97        2.140061   1.000000
   98        2.243871   1.000003
   99        2.539720   1.006499
  100        2.698900   1.035203
  101        2.908204   0.681330
  102        3.021896   0.224065
  103        3.204437  -0.035264
  104        3.308776  -0.015102
  105        3.350077  -0.008275
  106        3.466856  -0.000830
  107        3.584860  -0.000036
  108        3.630782  -0.000009
  109        3.686406  -0.000001
  110        3.723634  -0.000000
  111        3.733211  -0.000000
  112        3.791963  -0.000000
  113        3.914361  -0.000000
  114        3.984735  -0.000000
  115        4.022391  -0.000000
  116        4.061732  -0.000000
  117        4.096131  -0.000000
  118        4.129590  -0.000000
  119        4.167542  -0.000000
  120        4.204728  -0.000000
  121        4.267730  -0.000000
  122        4.312007  -0.000000
  123        4.363031  -0.000000
  124        4.443801  -0.000000
  125        4.516356  -0.000000
  126        4.587453  -0.000000
  127        4.665505  -0.000000
  128        4.802230  -0.000000
  129        5.155794  -0.000000
  130        5.173024  -0.000000
  131        5.914766  -0.000000
  132        6.505014  -0.000000

  0.3333333E+00  0.3939838E-15  0.1262379E-14  0.2469136E-01
    1      -10.778473   1.000000
    2      -10.328952   1.000000
    3       -9.905949   1.000000
    4       -9.366201   1.000000
    5       -9.317260   1.000000
    6       -9.030378   1.000000
    7       -8.811409   1.000000
    8       -8.646034   1.000000
    9       -8.173760   1.000000
   10       -8.109081   1.000000
   11       -8.070765   1.000000
   12       -8.060622   1.000000
   13       -7.922710   1.000000
   14       -7.853463   1.000000
   15       -7.757826   1.000000
   16       -7.587104   1.000000
   17       -7.203534   1.000000
   18       -7.036821   1.000000
   19       -6.357768   1.000000
   20       -6.298644   1.000000
   21       -5.837200   1.000000
   22       -5.769646   1.000000
   23       -5.682240   1.000000
   24       -5.654046   1.000000
   25       -5.580993   1.000000
   26       -5.566238   1.000000
   27       -5.360427   1.000000
   28       -4.866166   1.000000
   29       -4.727719   1.000000
   30       -4.650216   1.000000
   31       -4.383484   1.000000
   32       -4.196514   1.000000
   33       -3.970704   1.000000
   34       -3.927385   1.000000
   35       -3.879875   1.000000
   36       -3.486134   1.000000
   37       -3.460633   1.000000
   38       -3.374720   1.000000
   39       -3.358957   1.000000
   40       -3.309868   1.000000
   41       -3.267561   1.000000
   42       -3.142172   1.000000
   43       -3.052237   1.000000
   44       -2.884714   1.000000
   45       -2.677207   1.000000
   46       -2.500744   1.000000
   47       -2.446465   1.000000
   48       -2.332892   1.000000
   49       -2.230281   1.000000
   50       -2.193138   1.000000
   51       -2.054265   1.000000
   52       -2.005027   1.000000
   53       -1.875164   1.000000
   54       -1.847564   1.000000
   55       -1.808503   1.000000
   56       -1.745282   1.000000
   57       -1.700799   1.000000
   58       -1.652436   1.000000
   59       -1.555116   1.000000
   60       -1.517907   1.000000
   61       -1.455007   1.000000
   62       -1.389604   1.000000
   63       -1.337604   1.000000
   64       -1.274170   1.000000
   65       -1.213391   1.000000
   66       -1.172898   1.000000
   67       -1.131406   1.000000
   68       -1.064443   1.000000
   69       -0.973879   1.000000
   70       -0.895042   1.000000
   71       -0.833349   1.000000
   72       -0.777639   1.000000
   73       -0.748353   1.000000
   74       -0.488832   1.000000
   75       -0.474829   1.000000
   76       -0.341584   1.000000
   77       -0.273531   1.000000
   78       -0.231581   1.000000
   79       -0.154535   1.000000
   80       -0.041085   1.000000
   81        0.068435   1.000000
   82        0.190921   1.000000
   83        0.304309   1.000000
   84        0.382881   1.000000
   85        0.517411   1.000000
   86        0.680329   1.000000
   87        0.717941   1.000000
   88        0.994098   1.000000
   89        1.111385   1.000000
   90        1.175963   1.000000
   91        1.287914   1.000000
   92        1.331068   1.000000
   93        1.495415   1.000000
   94        1.598392   1.000000
   95        1.674549   1.000000
   96        1.843035   1.000000
   97        1.997673   1.000000
   98        2.391669   1.000270
   99        2.462009   1.001437
  100        2.547611   1.007416
  101        2.784393   0.999391
  102        2.920522   0.632268
  103        3.034367   0.182779
  104        3.175124  -0.033294
  105        3.254314  -0.027182
  106        3.339156  -0.009816
  107        3.381541  -0.004839
  108        3.512995  -0.000268
  109        3.596900  -0.000025
  110        3.609343  -0.000017
  111        3.668347  -0.000003
  112        3.706423  -0.000001
  113        3.817132  -0.000000
  114        3.901256  -0.000000
  115        3.963353  -0.000000
  116        4.000800  -0.000000
  117        4.072730  -0.000000
  118        4.120853  -0.000000
  119        4.147850  -0.000000
  120        4.238893  -0.000000
  121        4.278048  -0.000000
  122        4.367289  -0.000000
  123        4.426129  -0.000000
  124        4.461036  -0.000000
  125        4.512771  -0.000000
  126        4.584505  -0.000000
  127        4.785506  -0.000000
  128        4.881388  -0.000000
  129        4.954701  -0.000000
  130        5.096211  -0.000000
  131        5.755946  -0.000000
  132        6.187507  -0.000000

  0.4444444E+00  0.3881204E-15  0.1262379E-14  0.2469136E-01
    1      -10.423488   1.000000
    2      -10.019765   1.000000
    3       -9.862586   1.000000
    4       -9.659183   1.000000
    5       -9.479663   1.000000
    6       -9.200858   1.000000
    7       -9.098014   1.000000
    8       -8.876191   1.000000
    9       -8.155779   1.000000
   10       -8.149504   1.000000
   11       -8.126985   1.000000
   12       -7.995170   1.000000
   13       -7.924920   1.000000
   14       -7.904469   1.000000
   15       -7.761280   1.000000
   16       -7.648812   1.000000
   17       -7.580645   1.000000
   18       -7.079397   1.000000
   19       -6.317319   1.000000
   20       -6.196537   1.000000
   21       -5.648523   1.000000
   22       -5.531507   1.000000
   23       -5.437957   1.000000
   24       -5.424541   1.000000
   25       -5.393432   1.000000
   26       -5.325441   1.000000
   27       -5.272055   1.000000
   28       -4.352146   1.000000
   29       -4.134687   1.000000
   30       -4.069625   1.000000
   31       -3.994527   1.000000
   32       -3.940102   1.000000
   33       -3.857849   1.000000
   34       -3.801610   1.000000
   35       -3.742282   1.000000
   36       -3.691972   1.000000
   37       -3.625652   1.000000
   38       -3.595488   1.000000
   39       -3.561029   1.000000
   40       -3.439434   1.000000
   41       -3.362630   1.000000
   42       -3.286026   1.000000
   43       -3.187719   1.000000
   44       -3.045150   1.000000
   45       -2.848470   1.000000
   46       -2.674925   1.000000
   47       -2.533632   1.000000
   48       -2.419553   1.000000
   49       -2.292894   1.000000
   50       -2.253033   1.000000
   51       -2.166715   1.000000
   52       -2.126980   1.000000
   53       -1.998132   1.000000
   54       -1.891165   1.000000
   55       -1.846508   1.000000
   56       -1.794818   1.000000
   57       -1.737069   1.000000
   58       -1.710368   1.000000
   59       -1.657881   1.000000
   60       -1.555914   1.000000
   61       -1.527747   1.000000
   62       -1.478556   1.000000
   63       -1.429331   1.000000
   64       -1.339446   1.000000
   65       -1.264939   1.000000
   66       -1.247514   1.000000
   67       -1.213191   1.000000
   68       -1.123682   1.000000
   69       -1.029438   1.000000
   70       -0.992445   1.000000
   71       -0.878506   1.000000
   72       -0.830275   1.000000
   73       -0.731052   1.000000
   74       -0.516590   1.000000
   75       -0.429684   1.000000
   76       -0.394818   1.000000
   77       -0.347215   1.000000
   78       -0.307614   1.000000
   79       -0.199660   1.000000
   80       -0.101428   1.000000
   81       -0.005495   1.000000
   82        0.196788   1.000000
   83        0.317986   1.000000
   84        0.384842   1.000000
   85        0.417997   1.000000
   86        0.604386   1.000000
   87        0.857843   1.000000
   88        0.995506   1.000000
   89        1.049830   1.000000
   90        1.144248   1.000000
   91        1.254793   1.000000
   92        1.335032   1.000000
   93        1.392138   1.000000
   94        1.528439   1.000000
   95        1.620857   1.000000
   96        1.798790   1.000000
   97        1.975716   1.000000
   98        2.410347   1.000432
   99        2.474601   1.001881
  100        2.527957   1.005298
  101        2.582686   1.012668
  102        2.764502   1.017523
  103        2.818415   0.948587
  104        2.905244   0.692813
  105        2.995962   0.319723
  106        3.126873  -0.006492
  107        3.306794  -0.015495
  108        3.426569  -0.002014
  109        3.472976  -0.000719
  110        3.532681  -0.000160
  111        3.604818  -0.000020
  112        3.640366  -0.000006
  113        3.728211  -0.000000
  114        3.851220  -0.000000
  115        3.874201  -0.000000
  116        3.939532  -0.000000
  117        3.979179  -0.000000
  118        4.031151  -0.000000
  119        4.135136  -0.000000
  120        4.227018  -0.000000
  121        4.325039  -0.000000
  122        4.384154  -0.000000
  123        4.495933  -0.000000
  124        4.576771  -0.000000
  125        4.655574  -0.000000
  126        4.758738  -0.000000
  127        4.817109  -0.000000
  128        5.028388  -0.000000
  129        5.125536  -0.000000
  130        5.252979  -0.000000
  131        5.294852  -0.000000
  132        5.645950  -0.000000

  0.3742002E-15  0.1111111E+00  0.1262379E-14  0.2469136E-01
    1      -11.224338   1.000000
    2      -10.729989   1.000000
    3      -10.246398   1.000000
    4       -9.592745   1.000000
    5       -8.460602   1.000000
    6       -8.416108   1.000000
    7       -8.224203   1.000000
    8       -8.117524   1.000000
    9       -7.980845   1.000000
   10       -7.855037   1.000000
   11       -7.759572   1.000000
   12       -7.730517   1.000000
   13       -7.676687   1.000000
   14       -7.567179   1.000000
   15       -7.513149   1.000000
   16       -7.262029   1.000000
   17       -6.930615   1.000000
   18       -6.901188   1.000000
   19       -6.832009   1.000000
   20       -6.659213   1.000000
   21       -6.573592   1.000000
   22       -6.514446   1.000000
   23       -6.342350   1.000000
   24       -6.266919   1.000000
   25       -5.871586   1.000000
   26       -5.806439   1.000000
   27       -5.757372   1.000000
   28       -5.630709   1.000000
   29       -5.572161   1.000000
   30       -5.475709   1.000000
   31       -5.221559   1.000000
   32       -4.644202   1.000000
   33       -4.470335   1.000000
   34       -4.315416   1.000000
   35       -4.279881   1.000000
   36       -4.120945   1.000000
   37       -4.078190   1.000000
   38       -3.342328   1.000000
   39       -3.171542   1.000000
   40       -2.906169   1.000000
   41       -2.875216   1.000000
   42       -2.668409   1.000000
   43       -2.557154   1.000000
   44       -2.447582   1.000000
   45       -2.388010   1.000000
   46       -2.360223   1.000000
   47       -2.277383   1.000000
   48       -2.177697   1.000000
   49       -2.121392   1.000000
   50       -1.969364   1.000000
   51       -1.873320   1.000000
   52       -1.847235   1.000000
   53       -1.646450   1.000000
   54       -1.620066   1.000000
   55       -1.586309   1.000000
   56       -1.538141   1.000000
   57       -1.506045   1.000000
   58       -1.461342   1.000000
   59       -1.419286   1.000000
   60       -1.380007   1.000000
   61       -1.308502   1.000000
   62       -1.210646   1.000000
   63       -1.165430   1.000000
   64       -1.102376   1.000000
   65       -1.016515   1.000000
   66       -0.971957   1.000000
   67       -0.950570   1.000000
   68       -0.871724   1.000000
   69       -0.834770   1.000000
   70       -0.696194   1.000000
   71       -0.603806   1.000000
   72       -0.550987   1.000000
   73       -0.499407   1.000000
   74       -0.435459   1.000000
   75       -0.354883   1.000000
   76       -0.305389   1.000000
   77       -0.239343   1.000000
   78       -0.075476   1.000000
   79        0.057311   1.000000
   80        0.148607   1.000000
   81        0.208419   1.000000
   82        0.284296   1.000000
   83        0.386015   1.000000
   84        0.567297   1.000000
   85        0.725908   1.000000
   86        0.878754   1.000000
   87        1.162884   1.000000
   88        1.177243   1.000000
   89        1.259938   1.000000
   90        1.391872   1.000000
   91        1.488805   1.000000
   92        1.666174   1.000000
   93        1.692399   1.000000
   94        1.735813   1.000000
   95        1.875761   1.000000
   96        1.986872   1.000000
   97        2.104589   1.000000
   98        2.424196   1.000605
   99        2.666057   1.030593
  100        2.828756   0.927632
  101        2.897201   0.723317
  102        3.016348   0.243490
  103        3.058489   0.113170
  104        3.139098  -0.016912
  105        3.164971  -0.030542
  106        3.432784  -0.001768
  107        3.533593  -0.000156
  108        3.656344  -0.000004
  109        3.736485  -0.000000
  110        3.838905  -0.000000
  111        3.905391  -0.000000
  112        3.945316  -0.000000
  113        3.998730  -0.000000
  114        4.067006  -0.000000
  115        4.083014  -0.000000
  116        4.122086  -0.000000
  117        4.146869  -0.000000
  118        4.196648  -0.000000
  119        4.218377  -0.000000
  120        4.281086  -0.000000
  121        4.322919  -0.000000
  122        4.374914  -0.000000
  123        4.405366  -0.000000
  124        4.498192  -0.000000
  125        4.517594  -0.000000
  126        4.650479  -0.000000
  127        4.757599  -0.000000
  128        5.130397  -0.000000
  129        5.875023  -0.000000
  130        6.189178  -0.000000
  131        6.392885  -0.000000
  132        6.452045  -0.000000

  0.1111111E+00  0.1111111E+00  0.1262379E-14  0.2469136E-01
    1      -11.109883   1.000000
    2      -10.626549   1.000000
    3      -10.158742   1.000000
    4       -9.529320   1.000000
    5       -8.478706   1.000000
    6       -8.444465   1.000000
    7       -8.387285   1.000000
    8       -8.377232   1.000000
    9       -8.257925   1.000000
   10       -8.221824   1.000000
   11       -8.051554   1.000000
   12       -8.003978   1.000000
   13       -7.743933   1.000000
   14       -7.547003   1.000000
   15       -7.491000   1.000000
   16       -7.159790   1.000000
   17       -7.095319   1.000000
   18       -6.694386   1.000000
   19       -6.677160   1.000000
   20       -6.546911   1.000000
   21       -6.510216   1.000000
   22       -6.330627   1.000000
   23       -6.060381   1.000000
   24       -5.918913   1.000000
   25       -5.756122   1.000000
   26       -5.739256   1.000000
   27       -5.610271   1.000000
   28       -5.599583   1.000000
   29       -5.378397   1.000000
   30       -5.183049   1.000000
   31       -5.068996   1.000000
   32       -4.461667   1.000000
   33       -4.440427   1.000000
   34       -4.239169   1.000000
   35       -3.927673   1.000000
   36       -3.875063   1.000000
   37       -3.842210   1.000000
   38       -3.330327   1.000000
   39       -3.132065   1.000000
   40       -3.038707   1.000000
   41       -2.996008   1.000000
   42       -2.878785   1.000000
   43       -2.757137   1.000000
   44       -2.589533   1.000000
   45       -2.408633   1.000000
   46       -2.399915   1.000000
   47       -2.303679   1.000000
   48       -2.172809   1.000000
   49       -2.170831   1.000000
   50       -2.060338   1.000000
   51       -1.896312   1.000000
   52       -1.882094   1.000000
   53       -1.807909   1.000000
   54       -1.616203   1.000000
   55       -1.600146   1.000000
   56       -1.565889   1.000000
   57       -1.529428   1.000000
   58       -1.512424   1.000000
   59       -1.456145   1.000000
   60       -1.355946   1.000000
   61       -1.323123   1.000000
   62       -1.289252   1.000000
   63       -1.231842   1.000000
   64       -1.109267   1.000000
   65       -1.097131   1.000000
   66       -1.024595   1.000000
   67       -1.018684   1.000000
   68       -0.919297   1.000000
   69       -0.917169   1.000000
   70       -0.771939   1.000000
   71       -0.750519   1.000000
   72       -0.622238   1.000000
   73       -0.569944   1.000000
   74       -0.511604   1.000000
   75       -0.381702   1.000000
   76       -0.363386   1.000000
   77       -0.232038   1.000000
   78       -0.163595   1.000000
   79        0.006402   1.000000
   80        0.079874   1.000000
   81        0.217565   1.000000
   82        0.327085   1.000000
   83        0.332896   1.000000
   84        0.386363   1.000000
   85        0.642158   1.000000
   86        0.715488   1.000000
   87        0.838741   1.000000
   88        1.084072   1.000000
   89        1.231582   1.000000
   90        1.238140   1.000000
   91        1.497757   1.000000
   92        1.548553   1.000000
   93        1.599822   1.000000
   94        1.641770   1.000000
   95        1.775526   1.000000
   96        1.987824   1.000000
   97        2.293254   1.000016
   98        2.371277   1.000158