   36   36    1    1
  0.8359552E+01  0.6080955E-09  0.6080955E-09  0.9404337E-09  0.5000000E-15
   1.0000000000000000E-004
  CAR 
 Name                                    
    138    125     90

  0.3742002E-15  0.3742002E-15  0.3742002E-15  0.1371742E-02
    1       -5.703090   1.000000
    2       -4.285237   1.000000
    3       -4.285229   1.000000
    4       -2.169463   1.000000
    5       -2.169447   1.000000
    6       -1.994752   1.000000
    7       -1.994734   1.000000
    8       -1.796450   1.000000
    9       -1.796430   1.000000
   10       -1.742338   1.000000
   11       -1.734910   1.000000
   12       -1.719982   1.000000
   13       -1.398389   1.000000
   14       -1.343243   1.000000
   15       -1.235141   1.000000
   16       -0.419008   1.000000
   17       -0.418999   1.000000
   18       -0.250617   1.000000
   19       -0.250610   1.000000
   20       -0.128650   1.000000
   21       -0.128642   1.000000
   22        1.234084   1.000000
   23        1.234092   1.000000
   24        2.840813   1.000000
   25        2.840824   1.000000
   26        3.047139   1.000000
   27        3.047151   1.000000
   28        3.336856   1.000000
   29        3.336869   1.000000
   30        3.809764   1.000000
   31        3.809777   1.000000
   32        3.865020   1.000000
   33        3.909420   1.000000
   34        3.993907   1.000000
   35        3.993921   1.000000
   36        4.212418   1.000000
   37        4.442793   1.000000
   38        4.442810   1.000000
   39        4.557707   1.000000
   40        4.586183   1.000000
   41        4.613072   1.000000
   42        4.637602   1.000000
   43        4.656225   1.000000
   44        4.656233   1.000000
   45        4.667453   1.000000
   46        4.710162   1.000000
   47        4.742903   1.000000
   48        4.742910   1.000000
   49        4.765303   1.000000
   50        4.829027   1.000000
   51        4.829034   1.000000
   52        4.876510   1.000000
   53        5.682013   1.000000
   54        5.900033   1.000000
   55        5.900040   1.000000
   56        6.088850   1.000000
   57        6.088858   1.000000
   58        6.097097   1.000000
   59        7.290900   1.000000
   60        7.290918   1.000000
   61        7.301586   1.000000
   62        7.301604   1.000000
   63        8.571776   1.000000
   64        8.578842   1.000000
   65        8.666931   1.000000
   66        8.666940   1.000000
   67        8.758711   1.000010
   68        9.235963  -0.031539
   69        9.271422  -0.015979
   70        9.299160  -0.007051
   71        9.299163  -0.007050
   72        9.326795  -0.002546
   73        9.326798  -0.002545
   74        9.564209  -0.000000
   75        9.565316  -0.000000
   76        9.587087  -0.000000
   77        9.587092  -0.000000
   78        9.592207  -0.000000
   79        9.592215  -0.000000
   80        9.986323  -0.000000
   81       10.054727  -0.000000
   82       10.144045  -0.000000
   83       10.272691  -0.000000
   84       10.345489  -0.000000
   85       10.501060  -0.000000
   86       11.289219  -0.000000
   87       11.717453  -0.000000
   88       12.022897   0.000000
   89       12.344029   0.000000
   90       13.132097   0.000000

  0.1111111E+00  0.3606770E-15  0.3742002E-15  0.5486968E-02
    1       -5.643320   1.000000
    2       -4.243791   1.000000
    3       -4.243782   1.000000
    4       -2.333952   1.000000
    5       -2.254944   1.000000
    6       -2.254928   1.000000
    7       -2.013153   1.000000
    8       -2.013135   1.000000
    9       -1.933274   1.000000
   10       -1.924790   1.000000
   11       -1.923976   1.000000
   12       -1.923959   1.000000
   13       -1.058308   1.000000
   14       -1.049749   1.000000
   15       -0.674488   1.000000
   16       -0.230313   1.000000
   17       -0.230306   1.000000
   18       -0.181204   1.000000
   19       -0.181197   1.000000
   20        0.003577   1.000000
   21        0.003585   1.000000
   22        1.290111   1.000000
   23        1.290119   1.000000
   24        2.810375   1.000000
   25        2.810386   1.000000
   26        2.958786   1.000000
   27        2.958797   1.000000
   28        3.329365   1.000000
   29        3.329379   1.000000
   30        3.634961   1.000000
   31        3.798222   1.000000
   32        3.798234   1.000000
   33        3.907122   1.000000
   34        3.916846   1.000000
   35        4.005361   1.000000
   36        4.005373   1.000000
   37        4.254468   1.000000
   38        4.322337   1.000000
   39        4.322349   1.000000
   40        4.424920   1.000000
   41        4.616273   1.000000
   42        4.616281   1.000000
   43        4.630313   1.000000
   44        4.636156   1.000000
   45        4.676275   1.000000
   46        4.774917   1.000000
   47        4.774924   1.000000
   48        4.778607   1.000000
   49        4.859404   1.000000
   50        4.878343   1.000000
   51        4.878352   1.000000
   52        5.461310   1.000000
   53        5.633148   1.000000
   54        5.633152   1.000000
   55        5.893527   1.000000
   56        5.893532   1.000000
   57        5.925473   1.000000
   58        5.982614   1.000000
   59        7.246056   1.000000
   60        7.246066   1.000000
   61        7.372411   1.000000
   62        7.372421   1.000000
   63        8.363292   1.000000
   64        8.402170   1.000000
   65        8.715510   1.000001
   66        8.763364   1.000014
   67        8.763371   1.000014
   68        9.224857  -0.034763
   69        9.392952  -0.000107
   70        9.392965  -0.000107
   71        9.418165  -0.000025
   72        9.509779  -0.000000
   73        9.509792  -0.000000
   74        9.541423  -0.000000
   75        9.568668  -0.000000
   76        9.619399  -0.000000
   77        9.629124  -0.000000
   78        9.629169  -0.000000
   79        9.873250  -0.000000
   80        9.940091  -0.000000
   81       10.040060  -0.000000
   82       10.129767  -0.000000
   83       10.202927  -0.000000
   84       10.299315  -0.000000
   85       11.169329  -0.000000
   86       11.464709  -0.000000
   87       11.964706   0.000000
   88       12.156158   0.000000
   89       12.469074   0.000000
   90       12.526073   0.000000

  0.2222222E+00  0.3624062E-15  0.3742002E-15  0.5486968E-02
    1       -5.465553   1.000000
    2       -4.121259   1.000000
    3       -4.121250   1.000000
    4       -3.044189   1.000000
    5       -2.560376   1.000000
    6       -2.560363   1.000000
    7       -2.175402   1.000000
    8       -2.169715   1.000000
    9       -2.055804   1.000000
   10       -2.055787   1.000000
   11       -2.046234   1.000000
   12       -2.046218   1.000000
   13       -0.578509   1.000000
   14       -0.565295   1.000000
   15        0.002619   1.000000
   16        0.002627   1.000000
   17        0.005587   1.000000
   18        0.005595   1.000000
   19        0.144122   1.000000
   20        0.504543   1.000000
   21        0.504551   1.000000
   22        1.456078   1.000000
   23        1.456087   1.000000
   24        2.667949   1.000000
   25        2.667959   1.000000
   26        2.721152   1.000000
   27        2.721163   1.000000
   28        3.048345   1.000000
   29        3.151606   1.000000
   30        3.386243   1.000000
   31        3.386254   1.000000
   32        3.673975   1.000000
   33        3.673985   1.000000
   34        3.991016   1.000000
   35        4.004028   1.000000
   36        4.004039   1.000000
   37        4.068509   1.000000
   38        4.135756   1.000000
   39        4.135764   1.000000
   40        4.371887   1.000000
   41        4.526973   1.000000
   42        4.526980   1.000000
   43        4.662779   1.000000
   44        4.677139   1.000000
   45        4.703217   1.000000
   46        4.789963   1.000000
   47        4.789971   1.000000
   48        4.902768   1.000000
   49        4.985525   1.000000
   50        4.990603   1.000000
   51        4.990608   1.000000
   52        5.066818   1.000000
   53        5.066829   1.000000
   54        5.514281   1.000000
   55        5.514286   1.000000
   56        5.698952   1.000000
   57        6.177922   1.000000
   58        6.430480   1.000000
   59        7.021738   1.000000
   60        7.021738   1.000000
   61        7.579894   1.000000
   62        7.579895   1.000000
   63        7.893570   1.000000
   64        7.940112   1.000000
   65        8.742843   1.000004
   66        8.854765   1.001747
   67        8.854773   1.001747
   68        9.172203   0.018396
   69        9.441249  -0.000006
   70        9.448047  -0.000004
   71        9.649835  -0.000000
   72        9.659441  -0.000000
   73        9.659483  -0.000000
   74        9.673978  -0.000000
   75        9.681982  -0.000000
   76        9.688765  -0.000000
   77        9.697703  -0.000000
   78        9.749788  -0.000000
   79        9.750670  -0.000000
   80        9.830794  -0.000000
   81        9.930196  -0.000000
   82        9.967446  -0.000000
   83        9.970569  -0.000000
   84       10.048371  -0.000000
   85       10.301012  -0.000000
   86       10.811354  -0.000000
   87       10.914792  -0.000000
   88       11.685529  -0.000000
   89       12.657801   0.000000
   90       12.838593   0.000000

  0.3333333E+00  0.3408617E-15  0.3742002E-15  0.5486968E-02
    1       -5.174268   1.000000
    2       -3.922627   1.000000
    3       -3.922617   1.000000
    4       -3.699679   1.000000
    5       -2.952907   1.000000
    6       -2.952895   1.000000
    7       -2.345021   1.000000
    8       -2.341244   1.000000
    9       -2.101000   1.000000
   10       -2.100985   1.000000
   11       -2.098867   1.000000
   12       -2.098852   1.000000
   13       -0.041543   1.000000
   14       -0.026350   1.000000
   15        0.234177   1.000000
   16        0.234188   1.000000
   17        0.235729   1.000000
   18        0.235740   1.000000
   19        0.981537   1.000000
   20        1.174320   1.000000
   21        1.174328   1.000000
   22        1.719382   1.000000
   23        1.719390   1.000000
   24        2.393645   1.000000
   25        2.413040   1.000000
   26        2.413049   1.000000
   27        2.430559   1.000000
   28        2.430568   1.000000
   29        2.431808   1.000000
   30        3.326514   1.000000
   31        3.326522   1.000000
   32        3.369081   1.000000
   33        3.562001   1.000000
   34        3.562009   1.000000
   35        3.843315   1.000000
   36        3.843319   1.000000
   37        4.100815   1.000000
   38        4.100820   1.000000
   39        4.215345   1.000000
   40        4.215348   1.000000
   41        4.308158   1.000000
   42        4.534340   1.000000
   43        4.562077   1.000000
   44        4.562077   1.000000
   45        4.708454   1.000000
   46        4.733494   1.000000
   47        4.733791   1.000000
   48        4.824394   1.000000
   49        4.824403   1.000000
   50        5.060522   1.000000
   51        5.117523   1.000000
   52        5.125370   1.000000
   53        5.125373   1.000000
   54        5.342468   1.000000
   55        5.353528   1.000000
   56        5.353539   1.000000
   57        6.633830   1.000000
   58        6.633836   1.000000
   59        6.855962   1.000000
   60        6.979555   1.000000
   61        7.438101   1.000000
   62        7.474581   1.000000
   63        7.893601   1.000000
   64        7.893609   1.000000
   65        8.811288   1.000222
   66        8.906312   1.011213
   67        8.906319   1.011215
   68        9.093204   0.518003
   69        9.189427  -0.017865
   70        9.209063  -0.034135
   71        9.217396  -0.035455
   72        9.217409  -0.035455
   73        9.294677  -0.008165
   74        9.294685  -0.008163
   75        9.607571  -0.000000
   76        9.607641  -0.000000
   77        9.610017  -0.000000
   78        9.610043  -0.000000
   79        9.927919  -0.000000
   80        9.998455  -0.000000
   81       10.198522  -0.000000
   82       10.220861  -0.000000
   83       10.270606  -0.000000
   84       10.351054  -0.000000
   85       10.393360  -0.000000
   86       10.423920  -0.000000
   87       10.452073  -0.000000
   88       10.492082  -0.000000
   89       10.507402  -0.000000
   90       11.680338  -0.000000

  0.4444444E+00  0.3253957E-15  0.3742002E-15  0.5486968E-02
    1       -4.776502   1.000000
    2       -4.281370   1.000000
    3       -3.655109   1.000000
    4       -3.655099   1.000000
    5       -3.327619   1.000000
    6       -3.327608   1.000000
    7       -2.430205   1.000000
    8       -2.428855   1.000000
    9       -2.126155   1.000000
   10       -2.126140   1.000000
   11       -2.124926   1.000000
   12       -2.124911   1.000000
   13        0.409978   1.000000
   14        0.409991   1.000000
   15        0.412478   1.000000
   16        0.412491   1.000000
   17        0.439533   1.000000
   18        0.449159   1.000000
   19        1.745008   1.000000
   20        1.799514   1.000000
   21        1.799519   1.000000
   22        1.844316   1.000000
   23        1.930475   1.000000
   24        2.008936   1.000000
   25        2.008942   1.000000
   26        2.159744   1.000000
   27        2.159753   1.000000
   28        2.240560   1.000000
   29        2.240567   1.000000
   30        2.633213   1.000000
   31        3.008346   1.000000
   32        3.008351   1.000000
   33        3.259364   1.000000
   34        3.259368   1.000000
   35        3.796468   1.000000
   36        3.796470   1.000000
   37        3.988291   1.000000
   38        3.988296   1.000000
   39        4.183774   1.000000
   40        4.183777   1.000000
   41        4.378913   1.000000
   42        4.378919   1.000000
   43        4.613864   1.000000
   44        4.682138   1.000000
   45        4.742786   1.000000
   46        4.750912   1.000000
   47        4.757135   1.000000
   48        4.859206   1.000000
   49        4.859216   1.000000
   50        4.911710   1.000000
   51        4.911716   1.000000
   52        4.973163   1.000000
   53        5.182200   1.000000
   54        5.202332   1.000000
   55        5.731546   1.000000
   56        5.731557   1.000000
   57        6.176079   1.000000
   58        6.176088   1.000000
   59        7.166842   1.000000
   60        7.180767   1.000000
   61        7.402664   1.000000
   62        7.435475   1.000000
   63        8.287148   1.000000
   64        8.287159   1.000000
   65        8.716649   1.000001
   66        8.736700   1.000002
   67        8.736994   1.000002
   68        8.737007   1.000002
   69        8.900588   1.009439
   70        8.994927   1.025542
   71        8.994934   1.025535
   72        8.998637   1.021348
   73        9.130838   0.219492
   74        9.130844   0.219446
   75        9.549269  -0.000000
   76        9.549279  -0.000000
   77        9.549652  -0.000000
   78        9.549662  -0.000000
   79        9.755491  -0.000000
   80        9.836600  -0.000000
   81        9.991346  -0.000000
   82       10.150383  -0.000000
   83       10.386308  -0.000000
   84       10.397107  -0.000000
   85       10.588400  -0.000000
   86       10.801565  -0.000000
   87       10.887934  -0.000000
   88       10.957229  -0.000000
   89       11.057625  -0.000000
   90       11.441183  -0.000000

  0.1111111E+00  0.1111111E+00  0.3742002E-15  0.2743484E-02
    1       -5.524265   1.000000
    2       -4.160847   1.000000
    3       -4.160838   1.000000
    4       -2.655912   1.000000
    5       -2.651593   1.000000
    6       -2.383054   1.000000
    7       -2.383038   1.000000
    8       -2.262767   1.000000
    9       -2.262754   1.000000
   10       -1.872907   1.000000
   11       -1.872889   1.000000
   12       -1.524140   1.000000
   13       -1.256987   1.000000
   14       -0.312930   1.000000
   15       -0.238865   1.000000
   16       -0.238857   1.000000
   17       -0.175727   1.000000
   18        0.230189   1.000000
   19        0.230198   1.000000
   20        0.241367   1.000000
   21        0.241374   1.000000
   22        1.400755   1.000000
   23        1.400763   1.000000
   24        2.689624   1.000000
   25        2.689634   1.000000
   26        2.779548   1.000000
   27        2.779558   1.000000
   28        3.005375   1.000000
   29        3.405590   1.000000
   30        3.405603   1.000000
   31        3.737124   1.000000
   32        3.737135   1.000000
   33        3.805063   1.000000
   34        4.039175   1.000000
   35        4.096457   1.000000
   36        4.096466   1.000000
   37        4.116235   1.000000
   38        4.116247   1.000000
   39        4.151787   1.000000
   40        4.178848   1.000000
   41        4.366270   1.000000
   42        4.469135   1.000000
   43        4.469142   1.000000
   44        4.581121   1.000000
   45        4.616813   1.000000
   46        4.868427   1.000000
   47        4.868434   1.000000
   48        4.942428   1.000000
   49        4.942440   1.000000
   50        5.007074   1.000000
   51        5.281650   1.000000
   52        5.281652   1.000000
   53        5.471508   1.000000
   54        5.508726   1.000000
   55        5.525880   1.000000
   56        5.525886   1.000000
   57        5.764039   1.000000
   58        6.420003   1.000000
   59        7.210470   1.000000
   60        7.210474   1.000000
   61        7.384161   1.000000
   62        7.384162   1.000000
   63        7.847406   1.000000
   64        8.404420   1.000000
   65        8.580658   1.000000
   66        8.904209   1.010537
   67        8.904218   1.010540
   68        9.175988   0.008293
   69        9.486127  -0.000000
   70        9.486143  -0.000000
   71        9.524528  -0.000000
   72        9.524545  -0.000000
   73        9.534609  -0.000000
   74        9.717790  -0.000000
   75        9.738634  -0.000000
   76        9.740193  -0.000000
   77        9.791749  -0.000000
   78        9.834662  -0.000000
   79        9.866265  -0.000000
   80        9.906632  -0.000000
   81        9.906981  -0.000000
   82        9.926144  -0.000000
   83        9.988517  -0.000000
   84       10.022228  -0.000000
   85       10.976875  -0.000000
   86       11.057788  -0.000000
   87       11.747855  -0.000000
   88       12.227533   0.000000
   89       12.742429   0.000000
   90       12.751319   0.000000

  0.2222222E+00  0.1111111E+00  0.3742002E-15  0.5486968E-02
    1       -5.289579   1.000000
    2       -3.999636   1.000000
    3       -3.999627   1.000000
    4       -3.340197   1.000000
    5       -2.885126   1.000000
    6       -2.723970   1.000000
    7       -2.723957   1.000000
    8       -2.437491   1.000000
    9       -2.437477   1.000000
   10       -1.775523   1.000000
   11       -1.775505   1.000000
   12       -1.607847   1.000000
   13       -0.821773   1.000000
   14       -0.194634   1.000000
   15       -0.194624   1.000000
   16        0.238018   1.000000
   17        0.526904   1.000000
   18        0.526913   1.000000
   19        0.599676   1.000000
   20        0.888182   1.000000
   21        0.888190   1.000000
   22        1.615570   1.000000
   23        1.615578   1.000000
   24        2.276261   1.000000
   25        2.370566   1.000000
   26        2.370575   1.000000
   27        2.651452   1.000000
   28        2.651460   1.000000
   29        3.233375   1.000000
   30        3.460383   1.000000
   31        3.460392   1.000000
   32        3.592000   1.000000
   33        3.592005   1.000000
   34        3.645388   1.000000
   35        3.838412   1.000000
   36        3.838420   1.000000
   37        4.061662   1.000000
   38        4.061665   1.000000
   39        4.181275   1.000000
   40        4.250827   1.000000
   41        4.275572   1.000000
   42        4.275581   1.000000
   43        4.553417   1.000000
   44        4.564632   1.000000
   45        4.624388   1.000000
   46        4.813225   1.000000
   47        4.813227   1.000000
   48        4.984522   1.000000
   49        4.984531   1.000000
   50        5.082211   1.000000
   51        5.082217   1.000000
   52        5.156618   1.000000
   53        5.156629   1.000000
   54        5.175729   1.000000
   55        5.436243   1.000000
   56        5.536005   1.000000
   57        6.178082   1.000000
   58        6.888603   1.000000
   59        6.888607   1.000000
   60        6.998353   1.000000
   61        7.289764   1.000000
   62        7.622407   1.000000
   63        7.622414   1.000000
   64        8.086964   1.000000
   65        8.598238   1.000000
   66        9.027576   0.951793
   67        9.027584   0.951762
   68        9.092272   0.525885
   69        9.212487  -0.034990
   70        9.212496  -0.034991
   71        9.412041  -0.000036
   72        9.412057  -0.000036
   73        9.419667  -0.000022
   74        9.490440  -0.000000
   75        9.669349  -0.000000
   76        9.670066  -0.000000
   77        9.710739  -0.000000
   78        9.796635  -0.000000
   79        9.802353  -0.000000
   80        9.878916  -0.000000
   81        9.879295  -0.000000
   82       10.032082  -0.000000
   83       10.128723  -0.000000
   84       10.237436  -0.000000
   85       10.292713  -0.000000
   86       10.398242  -0.000000
   87       10.428509  -0.000000
   88       10.436797  -0.000000
   89       10.617352  -0.000000
   90       11.946241   0.000000

  0.3333333E+00  0.1111111E+00  0.3742002E-15  0.5486968E-02
    1       -4.944993   1.000000
    2       -3.960238   1.000000
    3       -3.766468   1.000000
    4       -3.766458   1.000000
    5       -3.120065   1.000000
    6       -3.120054   1.000000
    7       -3.024121   1.000000
    8       -2.504727   1.000000
    9       -2.504713   1.000000
   10       -1.726412   1.000000
   11       -1.725420   1.000000
   12       -1.725403   1.000000
   13       -0.240551   1.000000
   14       -0.102873   1.000000
   15       -0.102860   1.000000
   16        0.731681   1.000000
   17        0.824384   1.000000
   18        0.824395   1.000000
   19        1.422749   1.000000
   20        1.567494   1.000000
   21        1.585861   1.000000
   22        1.585868   1.000000
   23        1.902760   1.000000
   24        1.902766   1.000000
   25        2.096679   1.000000
   26        2.096687   1.000000
   27        2.448808   1.000000
   28        2.448816   1.000000
   29        2.642204   1.000000
   30        2.986457   1.000000
   31        3.123191   1.000000
   32        3.123196   1.000000
   33        3.460449   1.000000
   34        3.460453   1.000000
   35        3.659187   1.000000
   36        3.659190   1.000000
   37        3.855150   1.000000
   38        3.855151   1.000000
   39        4.267916   1.000000
   40        4.267921   1.000000
   41        4.309446   1.000000
   42        4.462818   1.000000
   43        4.462820   1.000000
   44        4.524894   1.000000
   45        4.531080   1.000000
   46        4.632482   1.000000
   47        4.774547   1.000000
   48        4.800299   1.000000
   49        4.800301   1.000000
   50        5.060433   1.000000
   51        5.060443   1.000000
   52        5.075150   1.000000
   53        5.347214   1.000000
   54        5.516968   1.000000
   55        5.516978   1.000000
   56        5.545776   1.000000
   57        6.444931   1.000000
   58        6.444939   1.000000
   59        6.749346   1.000000
   60        6.851664   1.000000
   61        7.593700   1.000000
   62        7.746608   1.000000
   63        7.982508   1.000000
   64        7.982518   1.000000
   65        8.716617   1.000001
   66        8.821145   1.000367
   67        8.821156   1.000368
   68        8.947528   1.028619
   69        8.977326   1.035131
   70        9.018376   0.981844
   71        9.118188   0.312065
   72        9.118196   0.312005
   73        9.262468  -0.019812
   74        9.262479  -0.019807
   75        9.441356  -0.000006
   76        9.441366  -0.000006
   77        9.598823  -0.000000
   78        9.771960  -0.000000
   79        9.772099  -0.000000
   80        9.905826  -0.000000
   81       10.135644  -0.000000
   82       10.146217  -0.000000
   83       10.153341  -0.000000
   84       10.243642  -0.000000
   85       10.318982  -0.000000
   86       10.359016  -0.000000
   87       10.363047  -0.000000
   88       10.624805  -0.000000
   89       10.811681  -0.000000
   90       11.490673  -0.000000

  0.4444444E+00  0.1111111E+00  0.3742002E-15  0.5486968E-02
    1       -4.499465   1.000000
    2       -4.498503   1.000000
    3       -3.474353   1.000000
    4       -3.474343   1.000000
    5       -3.469655   1.000000
    6       -3.469644   1.000000
    7       -3.069940   1.000000
    8       -2.526536   1.000000
    9       -2.526522   1.000000
   10       -1.769168   1.000000
   11       -1.710784   1.000000
   12       -1.710768   1.000000
   13       -0.055735   1.000000
   14       -0.055720   1.000000
   15        0.136053   1.000000
   16        0.976669   1.000000
   17        0.976682   1.000000
   18        0.985159   1.000000
   19        1.144014   1.000000
   20        1.914383   1.000000
   21        1.914391   1.000000
   22        2.068746   1.000000
   23        2.068749   1.000000
   24        2.118138   1.000000
   25        2.118139   1.000000
   26        2.223393   1.000000
   27        2.241958   1.000000
   28        2.323953   1.000000
   29        2.323959   1.000000
   30        2.351185   1.000000
   31        2.941868   1.000000
   32        2.941870   1.000000
   33        2.992565   1.000000
   34        2.992567   1.000000
   35        3.729487   1.000000
   36        3.729493   1.000000
   37        3.934098   1.000000
   38        3.934102   1.000000
   39        4.086441   1.000000
   40        4.086449   1.000000
   41        4.398573   1.000000
   42        4.398576   1.000000
   43        4.434729   1.000000
   44        4.440134   1.000000
   45        4.598433   1.000000
   46        4.702992   1.000000
   47        4.703001   1.000000
   48        4.718356   1.000000
   49        4.861837   1.000000
   50        4.940321   1.000000
   51        5.099604   1.000000
   52        5.099613   1.000000
   53        5.464486   1.000000
   54        5.473472   1.000000
   55        5.965267   1.000000
   56        5.965276   1.000000
   57        5.994883   1.000000
   58        5.994893   1.000000
   59        6.672702   1.000000
   60        7.044688   1.000000
   61        7.596349   1.000000
   62        8.010341   1.000000
   63        8.394895   1.000000
   64        8.394906   1.000000
   65        8.408277   1.000000
   66        8.408288   1.000000
   67        8.610837   1.000000
   68        8.743771   1.000004
   69        8.844306   1.001106
   70        8.853508   1.001656
   71        9.153263   0.089484
   72        9.153271   0.089446
   73        9.243485  -0.028467
   74        9.243492  -0.028464
   75        9.304598  -0.005859
   76        9.304610  -0.005857
   77        9.619379  -0.000000
   78        9.649619  -0.000000
   79        9.750213  -0.000000
   80        9.750258  -0.000000
   81       10.102011  -0.000000
   82       10.121963  -0.000000
   83       10.155251  -0.000000
   84       10.220853  -0.000000
   85       10.696002  -0.000000
   86       10.749193  -0.000000
   87       10.821400  -0.000000
   88       10.954860  -0.000000
   89       11.096835  -0.000000
   90       11.306573  -0.000000

 -0.4444444E+00  0.1111111E+00  0.3742002E-15  0.5486968E-02
    1       -4.946319   1.000000
    2       -3.959953   1.000000
    3       -3.772116   1.000000
    4       -3.772106   1.000000
    5       -3.120107   1.000000
    6       -3.120096   1.000000
    7       -3.022519   1.000000
    8       -2.501794   1.000000
    9       -2.501780   1.000000
   10       -1.731261   1.000000
   11       -1.722460   1.000000
   12       -1.722444   1.000000
   13       -0.224541   1.000000
   14       -0.104146   1.000000
   15       -0.104133   1.000000
   16        0.715399   1.000000
   17        0.843238   1.000000
   18        0.843249   1.000000
   19        1.321751   1.000000
   20        1.489492   1.000000
   21        1.489499   1.000000
   22        1.676298   1.000000
   23        1.919052   1.000000
   24        1.919059   1.000000
   25        2.172830   1.000000
   26        2.172839   1.000000
   27        2.469581   1.000000
   28        2.469589   1.000000
   29        2.633581   1.000000
   30        2.983185   1.000000
   31        3.068610   1.000000
   32        3.068614   1.000000
   33        3.535068   1.000000
   34        3.535070   1.000000
   35        3.613660   1.000000
   36        3.613666   1.000000
   37        3.835318   1.000000
   38        3.835320   1.000000
   39        4.298965   1.000000
   40        4.317213   1.000000
   41        4.317218   1.000000
   42        4.378061   1.000000
   43        4.378066   1.000000
   44        4.402779   1.000000
   45        4.511771   1.000000
   46        4.540950   1.000000
   47        4.692510   1.000000
   48        4.692519   1.000000
   49        4.948703   1.000000
   50        5.141374   1.000000
   51        5.141378   1.000000
   52        5.205218   1.000000
   53        5.291949   1.000000
   54        5.519206   1.000000
   55        5.597740   1.000000
   56        5.597752   1.000000
   57        6.458439   1.000000
   58        6.458446   1.000000
   59        6.848975   1.000000
   60        6.884376   1.000000
   61        7.557269   1.000000
   62        7.702101   1.000000
   63        7.979465   1.000000
   64        7.979475   1.000000
   65        8.708773   1.000000
   66        8.860600   1.002229
   67        8.860612   1.002230
   68        8.983267   1.033542
   69        8.989101   1.030443
   70        9.002868   1.015435
   71        9.079396   0.632979
   72        9.079403   0.632926
   73        9.298796  -0.007136
   74        9.298808  -0.007134