   70   70   85    1
  0.2230945E+02  0.1053953E-08  0.6141200E-09  0.2412750E-08  0.5000000E-15
   1.0000000000000000E-004
  CAR 
 Name                                    
    265     23    168

  0.3742002E-15  0.3742002E-15  0.1262379E-14  0.2222222E-01
    1      -14.019488   1.000000
    2      -12.930617   1.000000
    3      -12.744865   1.000000
    4      -12.583926   1.000000
    5      -12.017935   1.000000
    6      -11.778541   1.000000
    7      -11.727548   1.000000
    8      -11.457190   1.000000
    9      -11.448194   1.000000
   10      -11.331586   1.000000
   11      -11.137416   1.000000
   12      -11.063715   1.000000
   13      -10.821723   1.000000
   14      -10.475085   1.000000
   15      -10.281324   1.000000
   16      -10.226150   1.000000
   17      -10.172855   1.000000
   18      -10.042000   1.000000
   19       -9.859608   1.000000
   20       -9.842063   1.000000
   21       -9.599925   1.000000
   22       -9.589365   1.000000
   23       -9.369399   1.000000
   24       -9.310303   1.000000
   25       -9.046903   1.000000
   26       -8.936859   1.000000
   27       -8.560034   1.000000
   28       -8.369332   1.000000
   29       -8.275587   1.000000
   30       -8.260535   1.000000
   31       -8.110753   1.000000
   32       -7.982588   1.000000
   33       -7.709192   1.000000
   34       -7.410264   1.000000
   35       -7.262961   1.000000
   36       -7.201130   1.000000
   37       -7.140065   1.000000
   38       -6.941899   1.000000
   39       -6.857807   1.000000
   40       -6.793745   1.000000
   41       -6.716601   1.000000
   42       -6.661456   1.000000
   43       -6.601495   1.000000
   44       -6.410855   1.000000
   45       -6.372608   1.000000
   46       -6.274508   1.000000
   47       -6.262523   1.000000
   48       -6.144710   1.000000
   49       -6.070318   1.000000
   50       -5.967425   1.000000
   51       -5.806309   1.000000
   52       -5.713636   1.000000
   53       -5.688191   1.000000
   54       -5.640545   1.000000
   55       -5.514720   1.000000
   56       -5.440839   1.000000
   57       -5.365930   1.000000
   58       -5.278443   1.000000
   59       -5.254094   1.000000
   60       -5.228011   1.000000
   61       -5.119351   1.000000
   62       -4.935119   1.000000
   63       -4.908522   1.000000
   64       -4.815542   1.000000
   65       -4.745463   1.000000
   66       -4.735077   1.000000
   67       -4.604560   1.000000
   68       -4.580893   1.000000
   69       -4.563152   1.000000
   70       -4.429552   1.000000
   71       -4.336117   1.000000
   72       -4.279468   1.000000
   73       -4.244629   1.000000
   74       -4.130518   1.000000
   75       -4.127347   1.000000
   76       -4.068681   1.000000
   77       -4.002980   1.000000
   78       -3.963573   1.000000
   79       -3.922276   1.000000
   80       -3.804228   1.000000
   81       -3.785920   1.000000
   82       -3.738316   1.000000
   83       -3.682732   1.000000
   84       -3.615596   1.000000
   85       -3.523514   1.000000
   86       -3.506517   1.000000
   87       -3.458706   1.000000
   88       -3.335541   1.000000
   89       -3.261625   1.000000
   90       -3.188290   1.000000
   91       -3.130890   1.000000
   92       -3.040816   1.000000
   93       -2.990758   1.000000
   94       -2.950999   1.000000
   95       -2.806036   1.000000
   96       -2.702375   1.000000
   97       -2.689542   1.000000
   98       -2.606471   1.000000
   99       -2.591720   1.000000
  100       -2.495280   1.000000
  101       -2.460551   1.000000
  102       -2.440147   1.000000
  103       -2.432101   1.000000
  104       -2.398460   1.000000
  105       -2.316880   1.000000
  106       -2.270975   1.000000
  107       -2.266168   1.000000
  108       -2.187326   1.000000
  109       -2.069008   1.000000
  110       -2.006694   1.000000
  111       -1.984250   1.000000
  112       -1.908024   1.000000
  113       -1.843415   1.000000
  114       -1.721330   1.000000
  115       -1.675861   1.000000
  116       -1.605180   1.000000
  117       -1.507650   1.000000
  118       -1.355627   1.000000
  119       -1.280046   1.000000
  120       -1.266381   1.000000
  121       -1.163627   1.000000
  122       -1.058577   1.000000
  123       -0.920129   1.000000
  124       -0.758235   1.000003
  125       -0.689005   1.000024
  126       -0.597438   1.000308
  127       -0.553421   1.000895
  128       -0.456957   1.006236
  129       -0.307581   1.034042
  130       -0.284880   1.035441
  131       -0.154521   0.902444
  132       -0.096230   0.720255
  133       -0.074398   0.634977
  134        0.030559   0.214114
  135        0.063111   0.116102
  136        0.116912   0.011312
  137        0.127103  -0.000830
  138        0.247691  -0.029869
  139        0.256680  -0.027937
  140        0.437633  -0.001802
  141        0.502023  -0.000409
  142        0.529787  -0.000201
  143        0.602146  -0.000026
  144        0.622482  -0.000014
  145        0.740189  -0.000000
  146        0.813843  -0.000000
  147        0.841796  -0.000000
  148        0.880727  -0.000000
  149        0.913328  -0.000000
  150        0.970982  -0.000000
  151        1.011443  -0.000000
  152        1.058921  -0.000000
  153        1.091998  -0.000000
  154        1.111561  -0.000000
  155        1.144099  -0.000000
  156        1.234229  -0.000000
  157        1.263346  -0.000000
  158        1.291363  -0.000000
  159        1.311418  -0.000000
  160        1.338496  -0.000000
  161        1.379005  -0.000000
  162        1.401803  -0.000000
  163        1.414766  -0.000000
  164        1.453065  -0.000000
  165        1.510287  -0.000000
  166        1.543958  -0.000000
  167        1.574029  -0.000000
  168        1.600021  -0.000000

  0.2000000E+00  0.3742002E-15  0.1262379E-14  0.4444444E-01
    1      -13.993176   1.000000
    2      -13.075189   1.000000
    3      -12.825353   1.000000
    4      -12.272779   1.000000
    5      -12.077563   1.000000
    6      -12.016439   1.000000
    7      -11.500381   1.000000
    8      -11.447918   1.000000
    9      -11.324966   1.000000
   10      -11.273254   1.000000
   11      -11.102110   1.000000
   12      -11.062661   1.000000
   13      -10.799479   1.000000
   14      -10.618880   1.000000
   15      -10.521642   1.000000
   16      -10.296387   1.000000
   17      -10.253540   1.000000
   18      -10.058779   1.000000
   19       -9.863014   1.000000
   20       -9.794416   1.000000
   21       -9.618734   1.000000
   22       -9.601571   1.000000
   23       -9.353069   1.000000
   24       -9.286423   1.000000
   25       -9.021347   1.000000
   26       -8.762291   1.000000
   27       -8.489709   1.000000
   28       -8.278589   1.000000
   29       -8.233911   1.000000
   30       -8.162207   1.000000
   31       -8.106419   1.000000
   32       -8.036594   1.000000
   33       -7.617065   1.000000
   34       -7.488098   1.000000
   35       -7.374346   1.000000
   36       -7.249779   1.000000
   37       -7.151846   1.000000
   38       -7.017686   1.000000
   39       -6.933472   1.000000
   40       -6.843362   1.000000
   41       -6.760572   1.000000
   42       -6.716631   1.000000
   43       -6.618156   1.000000
   44       -6.518845   1.000000
   45       -6.385680   1.000000
   46       -6.333678   1.000000
   47       -6.105319   1.000000
   48       -6.068026   1.000000
   49       -6.023666   1.000000
   50       -5.982132   1.000000
   51       -5.835019   1.000000
   52       -5.687564   1.000000
   53       -5.623178   1.000000
   54       -5.597156   1.000000
   55       -5.539619   1.000000
   56       -5.442240   1.000000
   57       -5.338847   1.000000
   58       -5.258797   1.000000
   59       -5.214354   1.000000
   60       -5.105127   1.000000
   61       -5.090270   1.000000
   62       -5.074735   1.000000
   63       -4.870197   1.000000
   64       -4.804332   1.000000
   65       -4.767666   1.000000
   66       -4.668842   1.000000
   67       -4.598134   1.000000
   68       -4.571038   1.000000
   69       -4.534485   1.000000
   70       -4.394569   1.000000
   71       -4.292559   1.000000
   72       -4.267475   1.000000
   73       -4.259438   1.000000
   74       -4.167477   1.000000
   75       -4.128631   1.000000
   76       -4.123565   1.000000
   77       -4.036469   1.000000
   78       -3.976889   1.000000
   79       -3.926679   1.000000
   80       -3.870127   1.000000
   81       -3.836535   1.000000
   82       -3.762907   1.000000
   83       -3.677864   1.000000
   84       -3.615123   1.000000
   85       -3.584543   1.000000
   86       -3.464869   1.000000
   87       -3.441031   1.000000
   88       -3.340336   1.000000
   89       -3.262549   1.000000
   90       -3.215501   1.000000
   91       -3.119505   1.000000
   92       -3.028860   1.000000
   93       -2.978638   1.000000
   94       -2.956290   1.000000
   95       -2.840066   1.000000
   96       -2.764419   1.000000
   97       -2.713073   1.000000
   98       -2.638670   1.000000
   99       -2.579615   1.000000
  100       -2.570130   1.000000
  101       -2.495432   1.000000
  102       -2.457007   1.000000
  103       -2.414164   1.000000
  104       -2.339410   1.000000
  105       -2.263348   1.000000
  106       -2.229165   1.000000
  107       -2.193098   1.000000
  108       -2.111091   1.000000
  109       -2.050423   1.000000
  110       -1.987748   1.000000
  111       -1.907670   1.000000
  112       -1.841974   1.000000
  113       -1.820185   1.000000
  114       -1.694781   1.000000
  115       -1.659824   1.000000
  116       -1.585437   1.000000
  117       -1.478528   1.000000
  118       -1.355214   1.000000
  119       -1.284512   1.000000
  120       -1.255687   1.000000
  121       -1.235420   1.000000
  122       -1.067504   1.000000
  123       -0.993513   1.000000
  124       -0.791403   1.000001
  125       -0.754185   1.000003
  126       -0.654254   1.000066
  127       -0.629855   1.000131
  128       -0.558303   1.000799
  129       -0.374993   1.020106
  130       -0.304886   1.034368
  131       -0.191703   0.975627
  132       -0.150918   0.893514
  133       -0.035932   0.474192
  134       -0.013131   0.379106
  135        0.011348   0.282797
  136        0.115943   0.012586
  137        0.189697  -0.034722
  138        0.278517  -0.022939
  139        0.354797  -0.008412
  140        0.426528  -0.002270
  141        0.499117  -0.000440
  142        0.510879  -0.000328
  143        0.588185  -0.000039
  144        0.680818  -0.000002
  145        0.784101  -0.000000
  146        0.796056  -0.000000
  147        0.847789  -0.000000
  148        0.894264  -0.000000
  149        0.908359  -0.000000
  150        1.001027  -0.000000
  151        1.052918  -0.000000
  152        1.095020  -0.000000
  153        1.109708  -0.000000
  154        1.186643  -0.000000
  155        1.233661  -0.000000
  156        1.258825  -0.000000
  157        1.270760  -0.000000
  158        1.312974  -0.000000
  159        1.334421  -0.000000
  160        1.381925  -0.000000
  161        1.406252  -0.000000
  162        1.412405  -0.000000
  163        1.431830  -0.000000
  164        1.473450  -0.000000
  165        1.526176  -0.000000
  166        1.556635  -0.000000
  167        1.569090  -0.000000
  168        1.603078  -0.000000

  0.4000000E+00  0.3742002E-15  0.1262379E-14  0.4444444E-01
    1      -13.940778   1.000000
    2      -13.278169   1.000000
    3      -12.733726   1.000000
    4      -12.413183   1.000000
    5      -12.014298   1.000000
    6      -11.710393   1.000000
    7      -11.541812   1.000000
    8      -11.447773   1.000000
    9      -11.208884   1.000000
   10      -11.183646   1.000000
   11      -11.061122   1.000000
   12      -11.015808   1.000000
   13      -10.797957   1.000000
   14      -10.749114   1.000000
   15      -10.610481   1.000000
   16      -10.581798   1.000000
   17      -10.285844   1.000000
   18      -10.196566   1.000000
   19      -10.057466   1.000000
   20       -9.864711   1.000000
   21       -9.634703   1.000000
   22       -9.361770   1.000000
   23       -9.293245   1.000000
   24       -9.237224   1.000000
   25       -8.965823   1.000000
   26       -8.789819   1.000000
   27       -8.328796   1.000000
   28       -8.155361   1.000000
   29       -8.095032   1.000000
   30       -7.996336   1.000000
   31       -7.962794   1.000000
   32       -7.780471   1.000000
   33       -7.669265   1.000000
   34       -7.650722   1.000000
   35       -7.515683   1.000000
   36       -7.433996   1.000000
   37       -7.331808   1.000000
   38       -7.243579   1.000000
   39       -7.181376   1.000000
   40       -6.906352   1.000000
   41       -6.803904   1.000000
   42       -6.645526   1.000000
   43       -6.607264   1.000000
   44       -6.421175   1.000000
   45       -6.374437   1.000000
   46       -6.282581   1.000000
   47       -6.133019   1.000000
   48       -6.092371   1.000000
   49       -6.006666   1.000000
   50       -5.862490   1.000000
   51       -5.793336   1.000000
   52       -5.759006   1.000000
   53       -5.664656   1.000000
   54       -5.608866   1.000000
   55       -5.539632   1.000000
   56       -5.428498   1.000000
   57       -5.364437   1.000000
   58       -5.213407   1.000000
   59       -5.103858   1.000000
   60       -5.051476   1.000000
   61       -4.991734   1.000000
   62       -4.919144   1.000000
   63       -4.833621   1.000000
   64       -4.817992   1.000000
   65       -4.736426   1.000000
   66       -4.656881   1.000000
   67       -4.598462   1.000000
   68       -4.512949   1.000000
   69       -4.476154   1.000000
   70       -4.433447   1.000000
   71       -4.315347   1.000000
   72       -4.286597   1.000000
   73       -4.250197   1.000000
   74       -4.207627   1.000000
   75       -4.191529   1.000000
   76       -4.116475   1.000000
   77       -4.052249   1.000000
   78       -4.026340   1.000000
   79       -3.986341   1.000000
   80       -3.937554   1.000000
   81       -3.862205   1.000000
   82       -3.748975   1.000000
   83       -3.725828   1.000000
   84       -3.618676   1.000000
   85       -3.576305   1.000000
   86       -3.440402   1.000000
   87       -3.422223   1.000000
   88       -3.381441   1.000000
   89       -3.238426   1.000000
   90       -3.205784   1.000000
   91       -3.169668   1.000000
   92       -3.156584   1.000000
   93       -3.034914   1.000000
   94       -2.933068   1.000000
   95       -2.889108   1.000000
   96       -2.844383   1.000000
   97       -2.699440   1.000000
   98       -2.686662   1.000000
   99       -2.624243   1.000000
  100       -2.609464   1.000000
  101       -2.458138   1.000000
  102       -2.393720   1.000000
  103       -2.340647   1.000000
  104       -2.296159   1.000000
  105       -2.238507   1.000000
  106       -2.177927   1.000000
  107       -2.114708   1.000000
  108       -2.030390   1.000000
  109       -1.995446   1.000000
  110       -1.928481   1.000000
  111       -1.782394   1.000000
  112       -1.769237   1.000000
  113       -1.751731   1.000000
  114       -1.623159   1.000000
  115       -1.605172   1.000000
  116       -1.529551   1.000000
  117       -1.469765   1.000000
  118       -1.380649   1.000000
  119       -1.337511   1.000000
  120       -1.299238   1.000000
  121       -1.221994   1.000000
  122       -1.120408   1.000000
  123       -1.077250   1.000000
  124       -0.889817   1.000000
  125       -0.864887   1.000000
  126       -0.778628   1.000001
  127       -0.743492   1.000004
  128       -0.630734   1.000128
  129       -0.547895   1.001015
  130       -0.399482   1.014927
  131       -0.209688   0.999201
  132       -0.151936   0.896069
  133       -0.067637   0.607356
  134       -0.020144   0.407987
  135        0.023652   0.237980
  136        0.106819   0.025617
  137        0.211699  -0.035178
  138        0.251297  -0.029110
  139        0.350537  -0.008997
  140        0.460280  -0.001099
  141        0.465935  -0.000967
  142        0.560263  -0.000088
  143        0.659126  -0.000004
  144        0.703181  -0.000001
  145        0.793245  -0.000000
  146        0.825090  -0.000000
  147        0.891913  -0.000000
  148        0.911337  -0.000000
  149        1.033641  -0.000000
  150        1.090078  -0.000000
  151        1.111036  -0.000000
  152        1.167484  -0.000000
  153        1.181229  -0.000000
  154        1.199483  -0.000000
  155        1.263890  -0.000000
  156        1.278024  -0.000000
  157        1.310348  -0.000000
  158        1.358228  -0.000000
  159        1.381732  -0.000000
  160        1.415086  -0.000000
  161        1.427479  -0.000000
  162        1.453040  -0.000000
  163        1.470440  -0.000000
  164        1.516817  -0.000000
  165        1.553257  -0.000000
  166        1.562215  -0.000000
  167        1.612169  -0.000000
  168        1.649779  -0.000000

  0.3742002E-15  0.1111111E+00  0.1262379E-14  0.4444444E-01
    1      -13.973884   1.000000
    2      -12.889831   1.000000
    3      -12.709154   1.000000
    4      -12.552386   1.000000
    5      -12.098785   1.000000
    6      -11.744302   1.000000
    7      -11.703322   1.000000
    8      -11.499575   1.000000
    9      -11.474696   1.000000
   10      -11.372392   1.000000
   11      -11.117476   1.000000
   12      -11.074058   1.000000
   13      -10.853335   1.000000
   14      -10.484359   1.000000
   15      -10.276216   1.000000
   16      -10.228609   1.000000
   17      -10.162522   1.000000
   18      -10.049797   1.000000
   19       -9.858824   1.000000
   20       -9.811238   1.000000
   21       -9.627651   1.000000
   22       -9.587270   1.000000
   23       -9.373019   1.000000
   24       -9.307449   1.000000
   25       -9.066640   1.000000
   26       -8.911363   1.000000
   27       -8.555607   1.000000
   28       -8.369410   1.000000
   29       -8.287080   1.000000
   30       -8.269781   1.000000
   31       -8.000503   1.000000
   32       -7.961738   1.000000
   33       -7.808961   1.000000
   34       -7.448661   1.000000
   35       -7.364273   1.000000
   36       -7.250631   1.000000
   37       -7.118644   1.000000
   38       -6.916882   1.000000
   39       -6.797931   1.000000
   40       -6.767998   1.000000
   41       -6.693797   1.000000
   42       -6.655543   1.000000
   43       -6.558312   1.000000
   44       -6.447016   1.000000
   45       -6.305442   1.000000
   46       -6.280504   1.000000
   47       -6.236093   1.000000
   48       -6.155558   1.000000
   49       -6.102129   1.000000
   50       -5.928101   1.000000
   51       -5.840223   1.000000
   52       -5.762646   1.000000
   53       -5.614080   1.000000
   54       -5.587202   1.000000
   55       -5.519620   1.000000
   56       -5.440263   1.000000
   57       -5.324771   1.000000
   58       -5.281189   1.000000
   59       -5.224499   1.000000
   60       -5.171981   1.000000
   61       -5.086759   1.000000
   62       -4.926925   1.000000
   63       -4.910627   1.000000
   64       -4.838705   1.000000
   65       -4.747116   1.000000
   66       -4.682257   1.000000
   67       -4.622237   1.000000
   68       -4.568764   1.000000
   69       -4.553865   1.000000
   70       -4.459715   1.000000
   71       -4.382498   1.000000
   72       -4.362723   1.000000
   73       -4.184792   1.000000
   74       -4.158366   1.000000
   75       -4.118503   1.000000
   76       -4.080225   1.000000
   77       -4.002123   1.000000
   78       -3.960072   1.000000
   79       -3.928276   1.000000
   80       -3.840248   1.000000
   81       -3.788832   1.000000
   82       -3.757036   1.000000
   83       -3.691370   1.000000
   84       -3.621270   1.000000
   85       -3.521803   1.000000
   86       -3.485099   1.000000
   87       -3.458511   1.000000
   88       -3.378265   1.000000
   89       -3.266283   1.000000
   90       -3.221145   1.000000
   91       -3.162895   1.000000
   92       -3.127309   1.000000
   93       -3.039377   1.000000
   94       -2.968025   1.000000
   95       -2.875309   1.000000
   96       -2.818791   1.000000
   97       -2.678413   1.000000
   98       -2.636591   1.000000
   99       -2.583886   1.000000
  100       -2.542578   1.000000
  101       -2.511251   1.000000
  102       -2.488729   1.000000
  103       -2.418607   1.000000
  104       -2.355724   1.000000
  105       -2.330512   1.000000
  106       -2.286936   1.000000
  107       -2.258423   1.000000
  108       -2.184970   1.000000
  109       -2.038932   1.000000
  110       -1.986007   1.000000
  111       -1.948499   1.000000
  112       -1.891443   1.000000
  113       -1.770382   1.000000
  114       -1.689527   1.000000
  115       -1.630418   1.000000
  116       -1.602954   1.000000
  117       -1.492171   1.000000
  118       -1.407879   1.000000
  119       -1.258469   1.000000
  120       -1.219929   1.000000
  121       -1.055545   1.000000
  122       -0.990301   1.000000
  123       -0.898849   1.000000
  124       -0.831673   1.000000
  125       -0.732385   1.000006
  126       -0.644458   1.000087
  127       -0.534808   1.001359
  128       -0.446096   1.007483
  129       -0.392114   1.016408
  130       -0.247517   1.027744
  131       -0.195081   0.980612
  132       -0.150574   0.892644
  133       -0.052596   0.544623
  134       -0.005842   0.349604
  135        0.077478   0.081084
  136        0.166771  -0.029113
  137        0.186313  -0.034272
  138        0.231944  -0.032814
  139        0.325860  -0.012961
  140        0.393707  -0.004304
  141        0.483994  -0.000635
  142        0.543188  -0.000140
  143        0.573599  -0.000060
  144        0.687894  -0.000002
  145        0.716108  -0.000001
  146        0.749244  -0.000000
  147        0.851765  -0.000000
  148        0.877439  -0.000000
  149        0.942695  -0.000000
  150        0.965243  -0.000000
  151        1.033497  -0.000000
  152        1.047242  -0.000000
  153        1.070508  -0.000000
  154        1.147310  -0.000000
  155        1.202158  -0.000000
  156        1.229204  -0.000000
  157        1.251411  -0.000000
  158        1.270107  -0.000000
  159        1.310187  -0.000000
  160        1.326253  -0.000000
  161        1.352422  -0.000000
  162        1.389019  -0.000000
  163        1.419003  -0.000000
  164        1.452569  -0.000000
  165        1.496044  -0.000000
  166        1.511497  -0.000000
  167        1.536126  -0.000000
  168        1.610543  -0.000000

  0.2000000E+00  0.1111111E+00  0.1262379E-14  0.4444444E-01
    1      -13.947826   1.000000
    2      -13.035832   1.000000
    3      -12.787331   1.000000
    4      -12.240066   1.000000
    5      -12.100350   1.000000
    6      -12.042979   1.000000
    7      -11.551016   1.000000
    8      -11.483214   1.000000
    9      -11.299973   1.000000
   10      -11.294578   1.000000
   11      -11.102072   1.000000
   12      -11.060179   1.000000
   13      -10.823836   1.000000
   14      -10.604386   1.000000
   15      -10.529864   1.000000
   16      -10.295806   1.000000
   17      -10.248169   1.000000
   18      -10.072100   1.000000
   19       -9.870611   1.000000
   20       -9.779969   1.000000
   21       -9.629364   1.000000
   22       -9.595744   1.000000
   23       -9.360966   1.000000
   24       -9.282609   1.000000
   25       -9.019445   1.000000
   26       -8.759302   1.000000
   27       -8.482433   1.000000
   28       -8.285066   1.000000
   29       -8.240714   1.000000
   30       -8.181959   1.000000
   31       -8.076998   1.000000
   32       -7.929858   1.000000
   33       -7.700539   1.000000
   34       -7.552912   1.000000
   35       -7.414199   1.000000
   36       -7.292583   1.000000
   37       -7.141662   1.000000
   38       -6.990638   1.000000
   39       -6.868518   1.000000
   40       -6.820470   1.000000
   41       -6.747973   1.000000
   42       -6.686248   1.000000
   43       -6.593673   1.000000
   44       -6.579861   1.000000
   45       -6.414400   1.000000
   46       -6.335608   1.000000
   47       -6.159207   1.000000
   48       -6.086581   1.000000
   49       -5.976486   1.000000
   50       -5.877660   1.000000
   51       -5.812857   1.000000
   52       -5.685440   1.000000
   53       -5.628415   1.000000
   54       -5.610786   1.000000
   55       -5.516337   1.000000
   56       -5.416573   1.000000
   57       -5.298612   1.000000
   58       -5.223670   1.000000
   59       -5.201190   1.000000
   60       -5.113488   1.000000
   61       -5.068561   1.000000
   62       -5.025473   1.000000
   63       -4.844416   1.000000
   64       -4.831432   1.000000
   65       -4.718175   1.000000
   66       -4.641737   1.000000
   67       -4.622315   1.000000
   68       -4.553592   1.000000
   69       -4.517042   1.000000
   70       -4.422206   1.000000
   71       -4.372679   1.000000
   72       -4.330106   1.000000
   73       -4.223983   1.000000
   74       -4.198211   1.000000
   75       -4.130846   1.000000
   76       -4.097656   1.000000
   77       -4.059149   1.000000
   78       -3.978062   1.000000
   79       -3.914388   1.000000
   80       -3.877650   1.000000
   81       -3.855353   1.000000
   82       -3.758961   1.000000
   83       -3.696055   1.000000
   84       -3.617623   1.000000
   85       -3.582776   1.000000
   86       -3.504942   1.000000
   87       -3.434987   1.000000
   88       -3.382588   1.000000
   89       -3.285330   1.000000
   90       -3.205483   1.000000
   91       -3.174582   1.000000
   92       -3.084622   1.000000
   93       -3.036823   1.000000
   94       -2.970904   1.000000
   95       -2.905543   1.000000
   96       -2.792339   1.000000
   97       -2.755216   1.000000
   98       -2.681644   1.000000
   99       -2.619818   1.000000
  100       -2.579128   1.000000
  101       -2.549196   1.000000
  102       -2.430008   1.000000
  103       -2.384870   1.000000
  104       -2.326677   1.000000
  105       -2.264100   1.000000
  106       -2.254929   1.000000
  107       -2.200604   1.000000
  108       -2.145992   1.000000
  109       -2.072214   1.000000
  110       -1.947272   1.000000
  111       -1.890327   1.000000
  112       -1.824473   1.000000
  113       -1.752489   1.000000
  114       -1.679451   1.000000
  115       -1.638477   1.000000
  116       -1.579409   1.000000
  117       -1.490426   1.000000
  118       -1.408983   1.000000
  119       -1.293622   1.000000
  120       -1.225915   1.000000
  121       -1.150519   1.000000
  122       -1.020644   1.000000
  123       -0.909899   1.000000
  124       -0.853515   1.000000
  125       -0.771587   1.000002
  126       -0.728876   1.000007
  127       -0.557338   1.000817
  128       -0.456001   1.006338
  129       -0.423001   1.010740
  130       -0.333548   1.029495
  131       -0.220755   1.010274
  132       -0.117668   0.796075
  133       -0.042020   0.499942
  134       -0.002775   0.337377
  135        0.044480   0.169150
  136        0.095809   0.043948
  137        0.189420  -0.034690
  138        0.237520  -0.031853
  139        0.400474  -0.003792
  140        0.437983  -0.001788
  141        0.485089  -0.000618
  142        0.529348  -0.000203
  143        0.608669  -0.000021
  144        0.711607  -0.000001
  145        0.751183  -0.000000
  146        0.778745  -0.000000
  147        0.850309  -0.000000
  148        0.895886  -0.000000
  149        0.965381  -0.000000
  150        1.002112  -0.000000
  151        1.042074  -0.000000
  152        1.080091  -0.000000
  153        1.120707  -0.000000
  154        1.186210  -0.000000
  155        1.220894  -0.000000
  156        1.239746  -0.000000
  157        1.274473  -0.000000
  158        1.292198  -0.000000
  159        1.314602  -0.000000
  160        1.331559  -0.000000
  161        1.372339  -0.000000
  162        1.402692  -0.000000
  163        1.427903  -0.000000
  164        1.455816  -0.000000
  165        1.493955  -0.000000
  166        1.535906  -0.000000
  167        1.562298  -0.000000
  168        1.610021  -0.000000

  0.4000000E+00  0.1111111E+00  0.1262379E-14  0.4444444E-01
    1      -13.895956   1.000000
    2      -13.237570   1.000000
    3      -12.696734   1.000000
    4      -12.375631   1.000000
    5      -12.089208   1.000000
    6      -11.701108   1.000000
    7      -11.591102   1.000000
    8      -11.481741   1.000000
    9      -11.220201   1.000000
   10      -11.163673   1.000000
   11      -11.085218   1.000000
   12      -10.992137   1.000000
   13      -10.782253   1.000000
   14      -10.755469   1.000000
   15      -10.625163   1.000000
   16      -10.565433   1.000000
   17      -10.302011   1.000000
   18      -10.184933   1.000000
   19      -10.066690   1.000000
   20       -9.884828   1.000000
   21       -9.638839   1.000000
   22       -9.350578   1.000000
   23       -9.303768   1.000000
   24       -9.239176   1.000000
   25       -8.959182   1.000000
   26       -8.775646   1.000000
   27       -8.332690   1.000000
   28       -8.180073   1.000000
   29       -8.099413   1.000000
   30       -7.971154   1.000000
   31       -7.868204   1.000000
   32       -7.776622   1.000000
   33       -7.709149   1.000000
   34       -7.660179   1.000000
   35       -7.548154   1.000000
   36       -7.469184   1.000000
   37       -7.370650   1.000000
   38       -7.202305   1.000000
   39       -7.105519   1.000000
   40       -6.975009   1.000000
   41       -6.824370   1.000000
   42       -6.650020   1.000000
   43       -6.587324   1.000000
   44       -6.489924   1.000000
   45       -6.354559   1.000000
   46       -6.250323   1.000000
   47       -6.149634   1.000000
   48       -6.094056   1.000000
   49       -5.986024   1.000000
   50       -5.883485   1.000000
   51       -5.782427   1.000000