    3    3   60    1
  0.7818830E+01  0.2980000E-09  0.2980000E-09  0.3050000E-09  0.5000000E-15
   1.0000000000000000E-004
  CAR 
 Name                                    
     11    216     10

  0.3742002E-15  0.3742002E-15  0.3742002E-15  0.2962963E-03
    1       -5.600828   1.000000
    2        5.636853   1.000000
    3        5.636855   1.000000
    4        6.619737   1.000000
    5        7.170595   1.000000
    6        9.269981   1.032643
    7        9.269982   1.032643
    8       12.439585   0.000000
    9       12.439586   0.000000
   10       14.188581   0.000000

  0.6666667E-01  0.3777220E-15  0.3742002E-15  0.1777778E-02
    1       -5.514134   1.000000
    2        5.393937   1.000000
    3        5.617472   1.000000
    4        6.477133   1.000000
    5        7.189888   1.000000
    6        9.250287   1.024360
    7        9.502166  -0.018682
    8       11.998845  -0.000000
    9       12.037231  -0.000000
   10       14.668677   0.000000

  0.1333333E+00  0.3824091E-15  0.3742002E-15  0.1777778E-02
    1       -5.256359   1.000000
    2        4.727763   1.000000
    3        5.556002   1.000000
    4        6.163328   1.000000
    5        7.232405   1.000000
    6        9.195027   1.005236
    7       10.072822  -0.000000
    8       11.325708  -0.000000
    9       11.458755  -0.000000
   10       15.375476   0.000000

  0.2000000E+00  0.3806431E-15  0.3742002E-15  0.1777778E-02
    1       -4.834246   1.000000
    2        3.781416   1.000000
    3        5.449500   1.000000
    4        5.829901   1.000000
    5        7.230637   1.000000
    6        9.114855   1.000140
    7       10.791585  -0.000000
    8       10.875323  -0.000000
    9       11.049754  -0.000000
   10       15.895648   0.000000

  0.2666667E+00  0.3859547E-15  0.3742002E-15  0.1777778E-02
    1       -4.258297   1.000000
    2        2.688662   1.000000
    3        5.308101   1.000000
    4        5.547192   1.000000
    5        7.110761   1.000000
    6        9.024490   1.000000
    7       10.791583  -0.000000
    8       10.839735  -0.000000
    9       11.512973  -0.000000
   10       16.256928   0.000000

  0.3333333E+00  0.3635107E-15  0.3742002E-15  0.1777778E-02
    1       -3.541900   1.000000
    2        1.540357   1.000000
    3        5.158867   1.000000
    4        5.337627   1.000000
    5        6.897108   1.000000
    6        8.939717   1.000000
    7       10.782107  -0.000000
    8       11.035667  -0.000000
    9       12.096447  -0.000000
   10       15.710383   0.000000

  0.4000000E+00  0.3993534E-15  0.3742002E-15  0.1777778E-02
    1       -2.700447   1.000000
    2        0.394068   1.000000
    3        5.035847   1.000000
    4        5.203143   1.000000
    5        6.688977   1.000000
    6        8.874539   1.000000
    7       10.803807  -0.000000
    8       11.427096  -0.000000
    9       12.428187   0.000000
   10       15.492180   0.000000

  0.4666667E+00  0.3562316E-15  0.3742002E-15  0.1777778E-02
    1       -1.750961   1.000000
    2       -0.712183   1.000000
    3        4.966904   1.000000
    4        5.138321   1.000000
    5        6.566629   1.000000
    6        8.839248   1.000000
    7       10.835556  -0.000000
    8       11.726779  -0.000000
    9       12.536429   0.000000
   10       15.478111   0.000000

  0.6666667E-01  0.6666667E-01  0.3742002E-15  0.1777778E-02
    1       -5.341881   1.000000
    2        4.967103   1.000000
    3        5.537886   1.000000
    4        6.255149   1.000000
    5        7.233674   1.000000
    6        9.202912   1.006876
    7        9.907644  -0.000000
    8       11.514616  -0.000000
    9       11.579505  -0.000000
   10       15.330702   0.000000

  0.1333333E+00  0.6666667E-01  0.3742002E-15  0.3555556E-02
    1       -5.001897   1.000000
    2        4.212388   1.000000
    3        5.350099   1.000000
    4        5.950682   1.000000
    5        7.318014   1.000000
    6        9.107776   1.000095
    7       10.563835  -0.000000
    8       10.957463  -0.000000
    9       11.198167  -0.000000
   10       15.951507   0.000000

  0.2000000E+00  0.6666667E-01  0.3742002E-15  0.3555556E-02
    1       -4.502797   1.000000
    2        3.233205   1.000000
    3        5.099585   1.000000
    4        5.666572   1.000000
    5        7.371858   1.000000
    6        8.981996   1.000000
    7       10.591069  -0.000000
    8       11.042838  -0.000000
    9       11.311909  -0.000000
   10       16.371222   0.000000

  0.2666667E+00  0.6666667E-01  0.3742002E-15  0.3555556E-02
    1       -3.856470   1.000000
    2        2.136855   1.000000
    3        4.838524   1.000000
    4        5.444621   1.000000
    5        7.324009   1.000000
    6        8.845786   1.000000
    7       10.499238  -0.000000
    8       11.105651  -0.000000
    9       12.013909  -0.000000
   10       15.891099   0.000000

  0.3333333E+00  0.6666667E-01  0.3742002E-15  0.3555556E-02
    1       -3.077388   1.000000
    2        1.002094   1.000000
    3        4.615635   1.000000
    4        5.294106   1.000000
    5        7.198352   1.000000
    6        8.722262   1.000000
    7       10.594390  -0.000000
    8       11.328887  -0.000000
    9       12.525023   0.000000
   10       15.530664   0.000000

  0.4000000E+00  0.6666667E-01  0.3742002E-15  0.3555556E-02
    1       -2.181988   1.000000
    2       -0.118327   1.000000
    3        4.467622   1.000000
    4        5.209801   1.000000
    5        7.080534   1.000000
    6        8.635196   1.000000
    7       10.717283  -0.000000
    8       11.592864  -0.000000
    9       12.768255   0.000000
   10       15.450304   0.000000

  0.4666667E+00  0.6666667E-01  0.3742002E-15  0.1777778E-02
    1       -1.198068   1.000000
    2       -1.179008   1.000000
    3        4.415948   1.000000
    4        5.183005   1.000000
    5        7.034392   1.000000
    6        8.603667   1.000000
    7       10.767832  -0.000000
    8       11.714606  -0.000000
    9       12.824625   0.000000
   10       15.465103   0.000000

  0.1333333E+00  0.1333333E+00  0.3742002E-15  0.1777778E-02
    1       -4.584846   1.000000
    2        3.525035   1.000000
    3        4.861925   1.000000
    4        5.721023   1.000000
    5        7.541010   1.000000
    6        8.925597   1.000000
    7       10.512545  -0.000000
    8       11.119362  -0.000000
    9       11.273733  -0.000000
   10       16.647018   0.000000

  0.2000000E+00  0.1333333E+00  0.3742002E-15  0.3555556E-02
    1       -4.015154   1.000000
    2        2.656540   1.000000
    3        4.322406   1.000000
    4        5.536983   1.000000
    5        7.783648   1.000000
    6        8.685181   1.000000
    7       10.197740  -0.000000
    8       11.207706  -0.000000
    9       12.062044  -0.000000
   10       16.011552   0.000000

  0.2666667E+00  0.1333333E+00  0.3742002E-15  0.3555556E-02
    1       -3.305905   1.000000
    2        1.640996   1.000000
    3        3.890175   1.000000
    4        5.419217   1.000000
    5        7.908281   1.000000
    6        8.430663   1.000000
    7       10.152617  -0.000000
    8       11.364733  -0.000000
    9       12.782612   0.000000
   10       15.561145   0.000000

  0.3333333E+00  0.1333333E+00  0.3742002E-15  0.3555556E-02
    1       -2.472924   1.000000
    2        0.561719   1.000000
    3        3.601495   1.000000
    4        5.361017   1.000000
    5        7.898377   1.000000
    6        8.213633   1.000000
    7       10.340653  -0.000000
    8       11.493608  -0.000000
    9       13.270411   0.000000
   10       15.382957   0.000000

  0.4000000E+00  0.1333333E+00  0.3742002E-15  0.3555556E-02
    1       -1.535773   1.000000
    2       -0.510050   1.000000
    3        3.457549   1.000000
    4        5.341335   1.000000
    5        7.856235   1.000000
    6        8.087051   1.000000
    7       10.543801  -0.000000
    8       11.544489  -0.000000
    9       13.464700   0.000000
   10       15.403774   0.000000

  0.2000000E+00  0.2000000E+00  0.3742002E-15  0.1777778E-02
    1       -3.382443   1.000000
    2        2.015195   1.000000
    3        3.472367   1.000000
    4        5.480359   1.000000
    5        8.261559   1.000000
    6        8.293861   1.000000
    7        9.890259  -0.000000
    8       11.387827  -0.000000
    9       12.903987   0.000000
   10       15.573459   0.000000

  0.2666667E+00  0.2000000E+00  0.3742002E-15  0.3555556E-02
    1       -2.619347   1.000000
    2        1.203087   1.000000
    3        2.837777   1.000000
    4        5.499490   1.000000
    5        7.892599   1.000000
    6        8.593767   1.000000
    7        9.849392  -0.000000
    8       11.464371  -0.000000
    9       13.667573   0.000000
   10       15.305044   0.000000

  0.3333333E+00  0.2000000E+00  0.3742002E-15  0.3555556E-02
    1       -1.745787   1.000000
    2        0.234743   1.000000
    3        2.500261   1.000000
    4        5.560219   1.000000
    5        7.577439   1.000000
    6        8.667000   1.000000
    7       10.122803  -0.000000
    8       11.384084  -0.000000
    9       14.130860   0.000000
   10       15.276427   0.000000

  0.4000000E+00  0.2000000E+00  0.3742002E-15  0.1777778E-02
    1       -0.880838   1.000000
    2       -0.674681   1.000000
    3        2.397480   1.000000
    4        5.594870   1.000000
    5        7.453783   1.000000
    6        8.659196   1.000000
    7       10.325996  -0.000000
    8       11.283917  -0.000000
    9       14.246656   0.000000
   10       15.339776   0.000000

  0.2666667E+00  0.2666667E+00  0.3742002E-15  0.1777778E-02
    1       -1.816112   1.000000
    2        0.730992   1.000000
    3        1.928431   1.000000
    4        5.682330   1.000000
    5        7.348089   1.000000
    6        9.231318   1.015945
    7        9.682771  -0.000348
    8       11.328607  -0.000000
    9       14.470722   0.000000
   10       15.155992   0.000000

  0.3333333E+00  0.2666667E+00  0.3742002E-15  0.3555556E-02
    1       -0.937427   1.000000
    2        0.016914   1.000000
    3        1.464650   1.000000
    4        5.896909   1.000000
    5        6.936759   1.000000
    6        9.395013   0.604696
    7        9.975509  -0.000000
    8       11.032224  -0.000000
    9       14.859238   0.000000
   10       15.212095   0.000000

  0.3333333E+00  0.3333333E+00  0.3742002E-15  0.5925926E-03
    1       -0.239679   1.000000
    2       -0.239678   1.000000
    3        0.871746   1.000000
    4        6.363033   1.000000
    5        6.363034   1.000000
    6        9.866882  -0.000000
    7        9.866883  -0.000000
    8       10.735657  -0.000000
    9       15.174439   0.000000
   10       15.174439   0.000000

  0.3742002E-15  0.3742002E-15  0.6666667E-01  0.5925926E-03
    1       -5.536055   1.000000
    2        5.688879   1.000000
    3        5.688881   1.000000
    4        5.851245   1.000000
    5        7.848024   1.000000
    6        9.127932   1.000280
    7        9.127933   1.000280
    8       12.328973   0.000000
    9       12.328974   0.000000
   10       14.413572   0.000000

  0.6666667E-01  0.3777220E-15  0.6666667E-01  0.3555556E-02
    1       -5.450074   1.000000
    2        5.438845   1.000000
    3        5.661697   1.000000
    4        5.812472   1.000000
    5        7.712072   1.000000
    6        9.110606   1.000111
    7        9.409397   0.483871
    8       11.974197  -0.000000
    9       12.016225  -0.000000
   10       14.805317   0.000000

  0.1333333E+00  0.3824091E-15  0.6666667E-01  0.3555556E-02
    1       -5.194475   1.000000
    2        4.756521   1.000000
    3        5.577667   1.000000
    4        5.699781   1.000000
    5        7.513411   1.000000
    6        9.070899   1.000010
    7        9.999892  -0.000000
    8       11.398130  -0.000000
    9       11.521769  -0.000000
   10       15.419717   0.000000

  0.2000000E+00  0.3806431E-15  0.6666667E-01  0.3555556E-02
    1       -4.776043   1.000000
    2        3.795989   1.000000
    3        5.437627   1.000000
    4        5.539393   1.000000
    5        7.343972   1.000000
    6        9.034737   1.000001
    7       10.569491  -0.000000
    8       11.123049  -0.000000
    9       11.146595  -0.000000
   10       15.865431   0.000000

  0.2666667E+00  0.3859547E-15  0.6666667E-01  0.3555556E-02
    1       -4.205305   1.000000
    2        2.696611   1.000000
    3        5.259883   1.000000
    4        5.376588   1.000000
    5        7.138265   1.000000
    6        9.017168   1.000000
    7       10.746404  -0.000000
    8       10.927678  -0.000000
    9       11.546102  -0.000000
   10       15.903640   0.000000

  0.3333333E+00  0.3635107E-15  0.6666667E-01  0.3555556E-02
    1       -3.495621   1.000000
    2        1.548720   1.000000
    3        5.079806   1.000000
    4        5.245339   1.000000
    5        6.892002   1.000000
    6        9.011974   1.000000
    7       10.838979  -0.000000
    8       10.992361  -0.000000
    9       12.062020  -0.000000
   10       15.470110   0.000000

  0.4000000E+00  0.3993534E-15  0.6666667E-01  0.3555556E-02
    1       -2.662229   1.000000
    2        0.407642   1.000000
    3        4.935733   1.000000
    4        5.158849   1.000000
    5        6.674205   1.000000
    6        9.008292   1.000000
    7       10.831034  -0.000000
    8       11.331249  -0.000000
    9       12.411191   0.000000
   10       15.137502   0.000000

  0.4666667E+00  0.3562316E-15  0.6666667E-01  0.3555556E-02
    1       -1.722163   1.000000
    2       -0.690160   1.000000
    3        4.856383   1.000000
    4        5.117175   1.000000
    5        6.549520   1.000000
    6        9.004726   1.000000
    7       10.846647  -0.000000
    8       11.558265  -0.000000
    9       12.606196   0.000000
   10       14.945394   0.000000

  0.6666667E-01  0.6666667E-01  0.6666667E-01  0.3555556E-02
    1       -5.279279   1.000000
    2        5.003170   1.000000
    3        5.559732   1.000000
    4        5.740129   1.000000
    5        7.583857   1.000000
    6        9.056072   1.000004
    7        9.848477  -0.000000
    8       11.550140  -0.000000
    9       11.634663  -0.000000
   10       15.397106   0.000000

  0.1333333E+00  0.6666667E-01  0.6666667E-01  0.7111111E-02
    1       -4.942228   1.000000
    2        4.235332   1.000000
    3        5.333598   1.000000
    4        5.614021   1.000000
    5        7.511631   1.000000
    6        8.960318   1.000000
    7       10.471519  -0.000000
    8       11.073887  -0.000000
    9       11.308336  -0.000000
   10       15.968350   0.000000

  0.2000000E+00  0.6666667E-01  0.6666667E-01  0.7111111E-02
    1       -4.447593   1.000000
    2        3.244964   1.000000
    3        5.055191   1.000000
    4        5.464353   1.000000
    5        7.450888   1.000000
    6        8.883855   1.000000
    7       10.671004  -0.000000
    8       11.017305  -0.000000
    9       11.391732  -0.000000
   10       16.156128   0.000000

  0.2666667E+00  0.6666667E-01  0.6666667E-01  0.7111111E-02
    1       -3.807291   1.000000
    2        2.144604   1.000000
    3        4.781178   1.000000
    4        5.329199   1.000000
    5        7.310621   1.000000
    6        8.857707   1.000000
    7       10.594714  -0.000000
    8       11.097987  -0.000000
    9       11.974618  -0.000000
   10       15.688539   0.000000

  0.3333333E+00  0.6666667E-01  0.6666667E-01  0.7111111E-02
    1       -3.035719   1.000000
    2        1.012418   1.000000
    3        4.553872   1.000000
    4        5.232589   1.000000
    5        7.120123   1.000000
    6        8.850840   1.000000
    7       10.652030  -0.000000
    8       11.290450  -0.000000
    9       12.454593   0.000000
   10       15.279168   0.000000

  0.4000000E+00  0.6666667E-01  0.6666667E-01  0.7111111E-02
    1       -2.149232   1.000000
    2       -0.101065   1.000000
    3        4.404727   1.000000
    4        5.178770   1.000000
    5        6.966819   1.000000
    6        8.838256   1.000000
    7       10.742064  -0.000000
    8       11.508544  -0.000000
    9       12.743074   0.000000
   10       15.035625   0.000000

  0.4666667E+00  0.6666667E-01  0.6666667E-01  0.3555556E-02
    1       -1.208807   1.000000
    2       -1.118722   1.000000
    3        4.352914   1.000000
    4        5.162062   1.000000
    5        6.909550   1.000000
    6        8.830918   1.000000
    7       10.781607  -0.000000
    8       11.601609  -0.000000
    9       12.846573   0.000000
   10       14.943279   0.000000

  0.1333333E+00  0.1333333E+00  0.6666667E-01  0.3555556E-02
    1       -4.528923   1.000000
    2        3.543343   1.000000
    3        4.815723   1.000000
    4        5.500316   1.000000
    5        7.691721   1.000000
    6        8.728084   1.000000
    7       10.673264  -0.000000
    8       11.021352  -0.000000
    9       11.381959  -0.000000
   10       16.465870   0.000000

  0.2000000E+00  0.1333333E+00  0.6666667E-01  0.7111111E-02
    1       -3.964570   1.000000
    2        2.667682   1.000000
    3        4.276458   1.000000
    4        5.397570   1.000000
    5        7.853931   1.000000
    6        8.532137   1.000000
    7       10.387512  -0.000000
    8       11.209264  -0.000000
    9       12.006550  -0.000000
   10       15.881388   0.000000

  0.2666667E+00  0.1333333E+00  0.6666667E-01  0.7111111E-02
    1       -3.262279   1.000000
    2        1.649156   1.000000
    3        3.855211   1.000000
    4        5.333902   1.000000
    5        7.741051   1.000000
    6        8.556607   1.000000
    7       10.299924  -0.000000
    8       11.359094  -0.000000
    9       12.666933   0.000000
   10       15.414092   0.000000

  0.3333333E+00  0.1333333E+00  0.6666667E-01  0.7111111E-02
    1       -2.437919   1.000000
    2        0.573910   1.000000
    3        3.575278   1.000000
    4        5.310919   1.000000
    5        7.518818   1.000000
    6        8.617768   1.000000
    7       10.415849  -0.000000
    8       11.474122  -0.000000
    9       13.152116   0.000000
   10       15.133694   0.000000

  0.4000000E+00  0.1333333E+00  0.6666667E-01  0.7111111E-02
    1       -1.512469   1.000000
    2       -0.487588   1.000000
    3        3.435644   1.000000
    4        5.309855   1.000000
    5        7.376454   1.000000
    6        8.624926   1.000000
    7       10.576629  -0.000000
    8       11.515272  -0.000000
    9       13.396472   0.000000
   10       15.010708   0.000000

  0.2000000E+00  0.2000000E+00  0.6666667E-01  0.3555556E-02
    1       -3.338190   1.000000
    2        2.023923   1.000000
    3        3.443248   1.000000
    4        5.382352   1.000000
    5        8.068846   1.000000
    6        8.373399   1.000000
    7       10.116754  -0.000000
    8       11.390253  -0.000000
    9       12.771985   0.000000
   10       15.475920   0.000000

  0.2666667E+00  0.2000000E+00  0.6666667E-01  0.7111111E-02
    1       -2.583277   1.000000
    2        1.209744   1.000000
    3        2.828561   1.000000
    4        5.429227   1.000000
    5        7.650838   1.000000
    6        8.770459   1.000000
    7       10.027013  -0.000000
    8       11.463885  -0.000000
    9       13.488454   0.000000
   10       15.187158   0.000000

  0.3333333E+00  0.2000000E+00  0.6666667E-01  0.7111111E-02
    1       -1.720352   1.000000
    2        0.247623   1.000000
    3        2.502163   1.000000
    4        5.509113   1.000000
    5        7.321525   1.000000
    6        8.938735   1.000000
    7       10.207578  -0.000000
    8       11.387875  -0.000000
    9       13.984267   0.000000
   10       15.052663   0.000000

  0.4000000E+00  0.2000000E+00  0.6666667E-01  0.3555556E-02
    1       -0.888948   1.000000
    2       -0.629009   1.000000
    3        2.402425   1.000000
    4        5.551934   1.000000
    5        7.192143   1.000000
    6        8.960795   1.000000
    7       10.374596  -0.000000
    8       11.294874  -0.000000
    9       14.149900   0.000000
   10       15.029821   0.000000

  0.2666667E+00  0.2666667E+00  0.6666667E-01  0.3555556E-02
    1       -1.790090   1.000000
    2        0.733111   1.000000
    3        1.945085   1.000000
    4        5.617243   1.000000
    5        7.184374   1.000000
    6        9.326419   0.992741
    7        9.865583  -0.000000
    8       11.338888  -0.000000
    9       14.251804   0.000000
   10       15.049020   0.000000

  0.3333333E+00  0.2666667E+00  0.6666667E-01  0.7111111E-02
    1       -0.926524   1.000000
    2        0.026315   1.000000
    3        1.494655   1.000000
    4        5.833137   1.000000
    5        6.796668   1.000000
    6        9.550771  -0.030513
    7       10.065355  -0.000000
    8       11.059056  -0.000000
    9       14.705925   0.000000
   10       15.019188   0.000000

  0.3333333E+00  0.3333333E+00  0.6666667E-01  0.1185185E-02
    1       -0.243192   1.000000
    2       -0.243191   1.000000
    3        0.932284   1.000000
    4        6.272668   1.000000
    5        6.272669   1.000000
    6        9.975366  -0.000000
    7        9.975367  -0.000000
    8       10.773312  -0.000000
    9       15.008906   0.000000
   10       15.008906   0.000000

  0.3742002E-15  0.3742002E-15  0.1333333E+00  0.5925926E-03
    1       -5.344656   1.000000
    2        4.803075   1.000000
    3        5.844150   1.000000
    4        5.844152   1.000000
    5        8.644694   1.000000
    6        8.775567   1.000000
    7        8.775568   1.000000
    8       12.011285  -0.000000
    9       12.011286  -0.000000
   10       15.015603   0.000000

  0.6666667E-01  0.3777220E-15  0.1333333E+00  0.3555556E-02
    1       -5.260898   1.000000
    2        4.810080   1.000000
    3        5.572336   1.000000
    4        5.790789   1.000000
    5        8.200655   1.000000
    6        8.774961   1.000000
    7        9.323363   0.999867
    8       11.812091  -0.000000
    9       11.871590  -0.000000
   10       15.255837   0.000000

  0.1333333E+00  0.3824091E-15  0.1333333E+00  0.3555556E-02
    1       -5.011997   1.000000
    2        4.741077   1.000000
    3        4.938680   1.000000
    4        5.634559   1.000000
    5        7.821683   1.000000
    6        8.797127   1.000000
    7        9.937336  -0.000000
    8       11.457805  -0.000000
    9       11.596227  -0.000000
   10       15.588367   0.000000

  0.2000000E+00  0.3806431E-15  0.1333333E+00  0.3555556E-02
    1       -4.604936   1.000000
    2        3.823595   1.000000
    3        4.899377   1.000000
    4        5.397309   1.000000
    5        7.497993   1.000000
    6        8.880072   1.000000
    7       10.400624  -0.000000
    8       11.337996  -0.000000
    9       11.350807  -0.000000
   10       15.736327   0.000000

  0.2666667E+00  0.3859547E-15  0.1333333E+00  0.3555556E-02
    1       -4.050363   1.000000
    2        2.715741   1.000000
    3        4.939865   1.000000
    4        5.125336   1.000000
    5        7.174194   1.000000
    6        9.027218   1.000001
    7       10.629588  -0.000000
    8       11.137613  -0.000000
    9       11.654057  -0.000000
   10       15.446151   0.000000

  0.3333333E+00  0.3635107E-15  0.1333333E+00  0.3555556E-02
    1       -3.361635   1.000000
    2        1.574484   1.000000
    3        4.872437   1.000000
    4        4.986356   1.000000
    5        6.861641   1.000000
    6        9.202903   1.006874
    7       10.859670  -0.000000
    8       10.998178  -0.000000
    9       12.053895  -0.000000
   10       14.986234   0.000000

  0.4000000E+00  0.3993534E-15  0.1333333E+00  0.3555556E-02
    1       -2.554257   1.000000
    2        0.452509   1.000000
    3        4.681598   1.000000
    4        5.029750   1.000000
    5        6.612213   1.000000
    6        9.355717   0.879688
    7       10.915383  -0.000000
    8       11.098430  -0.000000
    9       12.414433   0.000000
   10       14.551488   0.000000

  0.4666667E+00  0.3562316E-15  0.1333333E+00  0.3555556E-02
    1       -1.651874   1.000000
    2       -0.610202   1.000000
    3        4.579890   1.000000
    4        5.057273   1.000000
    5        6.474227   1.000000
    6        9.442730   0.221319
    7       10.879501  -0.000000
    8       11.227370  -0.000000
    9       12.726051   0.000000
   10       14.203237   0.000000

  0.6666667E-01  0.6666667E-01  0.1333333E+00  0.3555556E-02
    1       -5.094566   1.000000
    2        4.818080   1.000000
    3        5.106847   1.000000
    4        5.646153   1.000000
    5        7.971892   1.000000
    6        8.717562   1.000000
    7        9.809759  -0.000000
    8       11.531243  -0.000000
    9       11.677766  -0.000000
   10       15.642423   0.000000

  0.1333333E+00  0.6666667E-01  0.1333333E+00  0.7111111E-02
    1       -4.766592   1.000000
    2        4.290051   1.000000
    3        4.832437   1.000000
    4        5.377248   1.000000
    5        7.796046   1.000000
    6        8.656106   1.000000
    7       10.373454  -0.000000
    8       11.225072  -0.000000
    9       11.491286  -0.000000
   10       16.005703   0.000000

  0.2000000E+00  0.6666667E-01  0.1333333E+00  0.7111111E-02
    1       -4.285757   1.000000
    2        3.272592   1.000000
    3        4.792555   1.000000
    4        5.119931   1.000000
    5        7.554502   1.000000
    6        8.741057   1.000000
    7       10.682110  -0.000000
    8       11.126269  -0.000000
    9       11.549494  -0.000000
   10       15.785227   0.000000

  0.2666667E+00  0.6666667E-01  0.1333333E+00  0.7111111E-02
    1       -3.664138   1.000000
    2        2.166271   1.000000
    3        4.607278   1.000000
    4        5.035433   1.000000
    5        7.238056   1.000000
    6        8.946202   1.000000
    7       10.757865  -0.000000
    8       11.105737  -0.000000
    9       11.949164  -0.000000
   10       15.275001   0.000000

  0.3333333E+00  0.6666667E-01  0.1333333E+00  0.7111111E-02
    1       -2.916197   1.000000
    2        1.045459   1.000000
    3        4.385295   1.000000
    4        5.054506   1.000000
    5        6.935546   1.000000
    6        9.164028   1.001543
    7       10.800566  -0.000000
    8       11.182978  -0.000000
    9       12.358860   0.000000
   10       14.798197   0.000000

  0.4000000E+00  0.6666667E-01  0.1333333E+00  0.7111111E-02
    1       -2.059748   1.000000
    2       -0.043102   1.000000
    3        4.232389   1.000000
    4        5.088341   1.000000
    5        6.722026   1.000000
    6        9.314468   1.016290
    7       10.815358  -0.000000
    8       11.301093  -0.000000
    9       12.714326   0.000000
   10       14.394471   0.000000

  0.4666667E+00  0.6666667E-01  0.1333333E+00  0.3555556E-02
    1       -1.239374   1.000000
    2       -0.942042   1.000000
    3        4.178906   1.000000
    4        5.103832   1.000000
    5        6.644994   1.000000
    6        9.365822   0.820976
    7       10.820946  -0.000000
    8       11.347101  -0.000000
    9       12.904831   0.000000
   10       14.187638   0.000000

  0.1333333E+00  0.1333333E+00  0.1333333E+00  0.3555556E-02
    1       -4.364829   1.000000
    2        3.594597   1.000000
    3        4.577543   1.000000
    4        5.096685   1.000000
    5        8.011064   1.000000
    6        8.325213   1.000000
    7       10.895633  -0.000000
    8       10.939528  -0.000000
    9       11.553917  -0.000000
   10       16.136141   0.000000

  0.2000000E+00  0.1333333E+00  0.1333333E+00  0.7111111E-02
    1       -3.816970   1.000000
    2        2.697999   1.000000
    3        4.130519   1.000000
    4        5.060250   1.000000
    5        7.807966   1.000000
    6        8.466627   1.000000
    7       10.731322  -0.000000
    8       11.193796  -0.000000
    9       11.934647  -0.000000
   10       15.604023   0.000000

  0.2666667E+00  0.1333333E+00  0.1333333E+00  0.7111111E-02
    1       -3.136284   1.000000
    2        1.673370   1.000000
    3        3.755655   1.000000
    4        5.101732   1.000000
    5        7.393768   1.000000
    6        8.847608   1.000000
    7       10.625701  -0.000000
    8       11.333551  -0.000000
    9       12.452724   0.000000
   10       15.093175   0.000000

  0.3333333E+00  0.1333333E+00  0.1333333E+00  0.7111111E-02
    1       -2.339249   1.000000
    2        0.613066   1.000000
    3        3.500681   1.000000
    4        5.168615   1.000000
    5        7.054020   1.000000
    6        9.151210   1.000871
    7       10.619461  -0.000000
    8       11.414159  -0.000000
    9       12.913622   0.000000
   10       14.673039   0.000000

  0.4000000E+00  0.1333333E+00  0.1333333E+00  0.7111111E-02
    1       -1.455952   1.000000
    2       -0.410278   1.000000
    3        3.371862   1.000000
    4        5.222322   1.000000
    5        6.858431   1.000000
    6        9.302616   1.029475
    7       10.670472  -0.000000
    8       11.433770  -0.000000
    9       13.253899   0.000000
   10       14.356366   0.000000

  0.2000000E+00  0.2000000E+00  0.1333333E+00  0.3555556E-02
    1       -3.210098   1.000000
    2        2.048110   1.000000
    3        3.360525   1.000000
    4        5.123543   1.000000
    5        7.621888   1.000000
    6        8.669240   1.000000
    7       10.550434  -0.000000
    8       11.388794  -0.000000
    9       12.510947   0.000000
   10       15.249854   0.000000

  0.2666667E+00  0.2000000E+00  0.1333333E+00  0.7111111E-02
    1       -2.480484   1.000000
    2        1.229219   1.000000
    3        2.804517   1.000000
    4        5.237447   1.000000
    5        7.206779   1.000000
    6        9.113058   1.000127
    7       10.428220  -0.000000
    8       11.460732  -0.000000
    9       13.115211   0.000000
   10       14.916365   0.000000
