 running on    4 total cores
 distrk:  each k-point on    4 cores,    1 groups
 distr:  one band on    2 cores,    2 groups
 using from now: INCAR     
 vasp.5.4.4.18Apr17-6-g9f103f2a35 (build Dec  7 2020 12:43:57) complex           
 POSCAR found type information on POSCAR  V  B 
 POSCAR found :  2 types and       3 ions
 scaLAPACK will be used
 LDA part: xc-table for Pade appr. of Perdew
 POSCAR, INCAR and KPOINTS ok, starting setup
 FFT: planning ...
 WAVECAR not read
 augmentation electrons   11.006997382906679     
 soft         electrons   0.0000000000000000     
 augmentation electrons   11.006997382906679     
 augmentation electrons   11.006997382906679     
 soft         electrons   0.0000000000000000     
 soft         electrons   0.0000000000000000     
 augmentation electrons   11.006997382906679     
 soft         electrons   0.0000000000000000     
 total        electrons   11.006997382906679     
 total        electrons   11.006997382906679     
 total        electrons   11.006997382906679     
 total        electrons   11.006997382906679     
 augmentation electrons   34.444668454806155     
 soft         electrons   0.0000000000000000     
 augmentation electrons   34.444668454806155     
 soft         electrons   0.0000000000000000     
 augmentation electrons   34.444668454806155     
 soft         electrons   0.0000000000000000     
 total        electrons   34.444668454806155     
 augmentation electrons   34.444668454806155     
 soft         electrons   0.0000000000000000     
 total        electrons   34.444668454806155     
 total        electrons   34.444668454806155     
 total        electrons   34.444668454806155     
 entering main loop
       N       E                     dE             d eps       ncg     rms          rms(c)
DAV:   1     0.402818015149E+02    0.40282E+02   -0.46907E+03  4410   0.109E+03
DAV:   2    -0.202009913980E+02   -0.60483E+02   -0.56354E+02  4494   0.193E+02
DAV:   3    -0.246050935044E+02   -0.44041E+01   -0.41915E+01  6518   0.609E+01
DAV:   4    -0.246965016304E+02   -0.91408E-01   -0.90142E-01  6640   0.736E+00
DAV:   5    -0.246972893767E+02   -0.78775E-03   -0.78539E-03  6204   0.461E-01    0.244E+01
RMM:   6    -0.179535447337E+02    0.67437E+01   -0.39493E+01  4340   0.800E+01    0.528E+00
RMM:   7    -0.174127808288E+02    0.54076E+00   -0.39700E+00  4434   0.268E+01    0.262E+00
RMM:   8    -0.175111588566E+02   -0.98378E-01   -0.84617E-01  5124   0.558E+00    0.152E+00
RMM:   9    -0.175442827631E+02   -0.33124E-01   -0.15654E-01  4334   0.621E+00    0.124E+00
RMM:  10    -0.175817700226E+02   -0.37487E-01   -0.30319E-02  4427   0.291E+00    0.650E-01
RMM:  11    -0.175828869702E+02   -0.11169E-02   -0.74946E-03  4499   0.132E+00    0.462E-01
RMM:  12    -0.175927610454E+02   -0.98741E-02   -0.13164E-01  4446   0.606E+00    0.311E-01
RMM:  13    -0.175977847075E+02   -0.50237E-02   -0.10815E-02  4390   0.171E+00    0.151E-01
RMM:  14    -0.175985599798E+02   -0.77527E-03   -0.99205E-04  5097   0.224E-01    0.849E-02
RMM:  15    -0.175990008910E+02   -0.44091E-03   -0.38619E-04  4410   0.357E-01    0.325E-02
RMM:  16    -0.175991005628E+02   -0.99672E-04   -0.28714E-04  4507   0.282E-01    0.803E-03
RMM:  17    -0.175991074661E+02   -0.69034E-05   -0.42242E-05  4886   0.749E-02    0.919E-03
RMM:  18    -0.175991101807E+02   -0.27146E-05   -0.12150E-05  4325   0.535E-02    0.382E-03
RMM:  19    -0.175991104434E+02   -0.26272E-06   -0.14284E-06  3142   0.151E-02
   1 F= -.17599110E+02 E0= -.17599255E+02  d E =-.175991E+02
 curvature:   0.00 expect dE= 0.000E+00 dE for cont linesearch  0.000E+00
 trial: gam= 0.00000 g(F)=  0.306E-44 g(S)=  0.648E-02 ort = 0.000E+00 (trialstep = 0.100E+01)
 search vector abs. value=  0.648E-02
 bond charge predicted
       N       E                     dE             d eps       ncg     rms          rms(c)
DAV:   1    -0.176033676540E+02   -0.42575E-02   -0.12339E-01  4754   0.316E+00    0.264E-01
RMM:   2    -0.176023262234E+02    0.10414E-02   -0.85983E-03  4467   0.108E+00    0.273E-01
RMM:   3    -0.176019693116E+02    0.35691E-03   -0.98793E-04  4484   0.424E-01    0.124E-01
RMM:   4    -0.176019109023E+02    0.58409E-04   -0.38161E-04  4677   0.230E-01    0.255E-02
RMM:   5    -0.176019201827E+02   -0.92804E-05   -0.90794E-05  4761   0.782E-02    0.135E-02
RMM:   6    -0.176019265533E+02   -0.63707E-05   -0.30022E-05  4603   0.724E-02    0.907E-03
RMM:   7    -0.176019232652E+02    0.32882E-05   -0.30748E-06  3623   0.221E-02    0.347E-03
RMM:   8    -0.176019237130E+02   -0.44779E-06   -0.45753E-07  2914   0.871E-03
   2 F= -.17601924E+02 E0= -.17601972E+02  d E =-.281327E-02
 trial-energy change:   -0.002813  1 .order   -0.002835   -0.006483    0.000814
 step:   0.8867(harm=  0.8885)  dis= 0.00000  next Energy=   -17.601970 (dE=-0.286E-02)
 bond charge predicted
       N       E                     dE             d eps       ncg     rms          rms(c)
DAV:   1    -0.176019932586E+02   -0.69993E-04   -0.16174E-03  4754   0.365E-01    0.304E-02
RMM:   2    -0.176019778934E+02    0.15365E-04   -0.11336E-04  4474   0.123E-01    0.312E-02
RMM:   3    -0.176019728048E+02    0.50886E-05   -0.12396E-05  4056   0.490E-02    0.135E-02
RMM:   4    -0.176019719454E+02    0.85943E-06   -0.47263E-06  3562   0.257E-02    0.298E-03
RMM:   5    -0.176019720461E+02   -0.10069E-06   -0.10220E-06  2758   0.117E-02
   3 F= -.17601972E+02 E0= -.17602032E+02  d E =-.286160E-02
 curvature:  -0.44 expect dE=-0.148E-08 dE for cont linesearch -0.148E-08
 trial: gam=-0.00072 g(F)=  0.376E-44 g(S)=  0.333E-08 ort = 0.464E-05 (trialstep = 0.977E+00)
 search vector abs. value=  0.100E-09
 reached required accuracy - stopping structural energy minimisation
 writing wavefunctions
 augmentation electrons   1.8438051383211949     
 soft         electrons   9.1663657580254707     
 augmentation electrons   1.8438051383211949     
 soft         electrons   9.1663657580254707     
 augmentation electrons   1.8438051383211949     
 soft         electrons   9.1663657580254707     
 augmentation electrons   1.8438051383211949     
 soft         electrons   9.1663657580254707     
 total        electrons   11.010170896346665     
 total        electrons   11.010170896346665     
 total        electrons   11.010170896346665     
 total        electrons   11.010170896346665     
