   52   52   85    1
  0.1588198E+02  0.6071501E-09  0.6071501E-09  0.2586333E-08  0.5000000E-15
   1.0000000000000000E-004
  CAR 
 Name                                    
    196     41    126

  0.3742002E-15  0.3742002E-15  0.1262379E-14  0.1234568E-01
    1      -12.550269   1.000000
    2      -11.866410   1.000000
    3      -11.112729   1.000000
    4      -10.227681   1.000000
    5       -9.444395   1.000000
    6       -9.358122   1.000000
    7       -9.254844   1.000000
    8       -8.971417   1.000000
    9       -8.850506   1.000000
   10       -8.821755   1.000000
   11       -8.677146   1.000000
   12       -8.630994   1.000000
   13       -8.627974   1.000000
   14       -8.561613   1.000000
   15       -8.527210   1.000000
   16       -8.513316   1.000000
   17       -8.222175   1.000000
   18       -7.964530   1.000000
   19       -7.934110   1.000000
   20       -7.901320   1.000000
   21       -7.295647   1.000000
   22       -7.217567   1.000000
   23       -7.069287   1.000000
   24       -6.855496   1.000000
   25       -6.696632   1.000000
   26       -6.623633   1.000000
   27       -6.475456   1.000000
   28       -5.595049   1.000000
   29       -5.506796   1.000000
   30       -5.477186   1.000000
   31       -4.548901   1.000000
   32       -4.451852   1.000000
   33       -4.392660   1.000000
   34       -4.276522   1.000000
   35       -3.791536   1.000000
   36       -3.754668   1.000000
   37       -3.719086   1.000000
   38       -3.692840   1.000000
   39       -3.667182   1.000000
   40       -3.609969   1.000000
   41       -3.557345   1.000000
   42       -3.528934   1.000000
   43       -3.441295   1.000000
   44       -3.120497   1.000000
   45       -3.062310   1.000000
   46       -2.999294   1.000000
   47       -2.982024   1.000000
   48       -2.970709   1.000000
   49       -2.947681   1.000000
   50       -2.888455   1.000000
   51       -2.852993   1.000000
   52       -2.847878   1.000000
   53       -2.619645   1.000000
   54       -2.588921   1.000000
   55       -2.461770   1.000000
   56       -2.409763   1.000000
   57       -2.401131   1.000000
   58       -2.373796   1.000000
   59       -2.361591   1.000000
   60       -2.349703   1.000000
   61       -2.239414   1.000000
   62       -2.116986   1.000000
   63       -2.086891   1.000000
   64       -2.057426   1.000000
   65       -2.026190   1.000000
   66       -1.997166   1.000000
   67       -1.801831   1.000000
   68       -1.728992   1.000000
   69       -1.508375   1.000000
   70       -1.485821   1.000000
   71       -1.242129   1.000000
   72       -1.116914   1.000000
   73       -1.086560   1.000000
   74       -1.083275   1.000000
   75       -0.574083   1.000000
   76       -0.135967   1.000000
   77       -0.088774   1.000000
   78       -0.011941   1.000000
   79        0.131193   1.000000
   80        0.190702   1.000000
   81        0.306450   1.000000
   82        0.384348   1.000000
   83        0.512355   1.000000
   84        0.558206   1.000000
   85        0.754681   1.000000
   86        0.775399   1.000000
   87        0.985514   1.000000
   88        1.145788   1.000000
   89        1.239168   1.000000
   90        1.530002   1.000348
   91        1.554507   1.000634
   92        1.633669   1.003488
   93        1.731336   1.016581
   94        1.898383   1.013254
   95        1.925843   0.983006
   96        1.972260   0.892087
   97        1.988554   0.847421
   98        2.226194   0.030709
   99        2.397738  -0.023724
  100        2.438324  -0.014869
  101        2.498048  -0.005968
  102        2.503500  -0.005425
  103        2.662943  -0.000152
  104        2.736797  -0.000018
  105        2.845293  -0.000000
  106        2.888300  -0.000000
  107        2.890421  -0.000000
  108        3.004610  -0.000000
  109        3.012227  -0.000000
  110        3.029042  -0.000000
  111        3.139148  -0.000000
  112        3.171851  -0.000000
  113        3.194888  -0.000000
  114        3.249703  -0.000000
  115        3.293556  -0.000000
  116        3.301904  -0.000000
  117        3.310047  -0.000000
  118        3.313533  -0.000000
  119        3.365458  -0.000000
  120        3.441266  -0.000000
  121        3.455407  -0.000000
  122        3.505496  -0.000000
  123        3.538726  -0.000000
  124        3.685018  -0.000000
  125        3.694877  -0.000000
  126        3.836276  -0.000000

  0.1111111E+00  0.3762813E-15  0.1262379E-14  0.2469136E-01
    1      -12.492287   1.000000
    2      -11.815112   1.000000
    3      -11.075451   1.000000
    4      -10.193540   1.000000
    5       -9.523352   1.000000
    6       -9.367579   1.000000
    7       -9.349473   1.000000
    8       -9.282134   1.000000
    9       -9.135280   1.000000
   10       -9.015385   1.000000
   11       -8.922649   1.000000
   12       -8.882295   1.000000
   13       -8.838182   1.000000
   14       -8.521394   1.000000
   15       -8.191287   1.000000
   16       -8.166120   1.000000
   17       -7.839465   1.000000
   18       -7.817191   1.000000
   19       -7.770306   1.000000
   20       -7.542906   1.000000
   21       -7.268813   1.000000
   22       -7.168343   1.000000
   23       -6.970096   1.000000
   24       -6.869931   1.000000
   25       -6.691035   1.000000
   26       -6.608178   1.000000
   27       -6.346733   1.000000
   28       -5.500680   1.000000
   29       -5.430336   1.000000
   30       -5.312711   1.000000
   31       -4.536592   1.000000
   32       -4.444452   1.000000
   33       -4.413853   1.000000
   34       -4.249887   1.000000
   35       -3.854971   1.000000
   36       -3.835639   1.000000
   37       -3.773338   1.000000
   38       -3.724713   1.000000
   39       -3.638520   1.000000
   40       -3.618484   1.000000
   41       -3.543816   1.000000
   42       -3.528057   1.000000
   43       -3.484619   1.000000
   44       -3.437079   1.000000
   45       -3.427312   1.000000
   46       -3.113683   1.000000
   47       -3.024432   1.000000
   48       -2.962950   1.000000
   49       -2.941049   1.000000
   50       -2.849656   1.000000
   51       -2.790278   1.000000
   52       -2.749645   1.000000
   53       -2.588804   1.000000
   54       -2.555779   1.000000
   55       -2.512049   1.000000
   56       -2.493662   1.000000
   57       -2.398956   1.000000
   58       -2.363104   1.000000
   59       -2.304841   1.000000
   60       -2.285670   1.000000
   61       -2.188476   1.000000
   62       -2.147334   1.000000
   63       -2.107754   1.000000
   64       -2.070506   1.000000
   65       -1.966980   1.000000
   66       -1.884729   1.000000
   67       -1.813115   1.000000
   68       -1.759108   1.000000
   69       -1.550717   1.000000
   70       -1.439796   1.000000
   71       -1.417144   1.000000
   72       -1.291935   1.000000
   73       -1.213949   1.000000
   74       -1.133321   1.000000
   75       -0.601077   1.000000
   76       -0.322628   1.000000
   77       -0.272873   1.000000
   78       -0.033485   1.000000
   79        0.104922   1.000000
   80        0.227626   1.000000
   81        0.302361   1.000000
   82        0.363140   1.000000
   83        0.404003   1.000000
   84        0.487143   1.000000
   85        0.556502   1.000000
   86        0.677428   1.000000
   87        1.139393   1.000000
   88        1.209462   1.000000
   89        1.349890   1.000002
   90        1.574642   1.001013
   91        1.621124   1.002729
   92        1.681031   1.008053
   93        1.750263   1.020701
   94        1.766627   1.024465
   95        1.831802   1.035403
   96        1.940680   0.959700
   97        2.031943   0.699209
   98        2.278352  -0.023932
   99        2.374068  -0.029076
  100        2.446025  -0.013407
  101        2.470849  -0.009326
  102        2.599785  -0.000746
  103        2.673566  -0.000113
  104        2.698283  -0.000056
  105        2.738532  -0.000017
  106        2.786939  -0.000004
  107        2.852878  -0.000000
  108        2.963055  -0.000000
  109        2.978543  -0.000000
  110        3.005923  -0.000000
  111        3.026653  -0.000000
  112        3.114975  -0.000000
  113        3.141684  -0.000000
  114        3.209779  -0.000000
  115        3.232252  -0.000000
  116        3.272321  -0.000000
  117        3.312829  -0.000000
  118        3.388652  -0.000000
  119        3.412634  -0.000000
  120        3.432837  -0.000000
  121        3.448016  -0.000000
  122        3.535609  -0.000000
  123        3.556589  -0.000000
  124        3.668167  -0.000000
  125        3.704298  -0.000000
  126        3.838830  -0.000000

  0.2222222E+00  0.3499357E-15  0.1262379E-14  0.2469136E-01
    1      -12.320203   1.000000
    2      -11.663447   1.000000
    3      -10.966279   1.000000
    4      -10.094953   1.000000
    5      -10.023765   1.000000
    6       -9.746938   1.000000
    7       -9.613812   1.000000
    8       -9.385164   1.000000
    9       -9.379486   1.000000
   10       -9.186173   1.000000
   11       -9.132085   1.000000
   12       -9.009989   1.000000
   13       -8.995350   1.000000
   14       -8.775505   1.000000
   15       -7.808263   1.000000
   16       -7.749062   1.000000
   17       -7.595666   1.000000
   18       -7.521172   1.000000
   19       -7.216741   1.000000
   20       -7.183761   1.000000
   21       -7.007308   1.000000
   22       -6.971867   1.000000
   23       -6.856995   1.000000
   24       -6.706640   1.000000
   25       -6.452401   1.000000
   26       -6.326040   1.000000
   27       -6.064836   1.000000
   28       -5.404515   1.000000
   29       -5.291931   1.000000
   30       -4.830867   1.000000
   31       -4.568374   1.000000
   32       -4.536895   1.000000
   33       -4.365472   1.000000
   34       -4.214733   1.000000
   35       -4.151657   1.000000
   36       -4.114090   1.000000
   37       -4.105834   1.000000
   38       -4.054289   1.000000
   39       -3.819988   1.000000
   40       -3.708506   1.000000
   41       -3.599927   1.000000
   42       -3.593894   1.000000
   43       -3.521993   1.000000
   44       -3.453772   1.000000
   45       -3.409817   1.000000
   46       -3.136957   1.000000
   47       -3.102664   1.000000
   48       -3.037824   1.000000
   49       -3.028146   1.000000
   50       -2.895293   1.000000
   51       -2.853619   1.000000
   52       -2.785681   1.000000
   53       -2.654909   1.000000
   54       -2.625567   1.000000
   55       -2.532109   1.000000
   56       -2.499715   1.000000
   57       -2.389155   1.000000
   58       -2.363841   1.000000
   59       -2.294459   1.000000
   60       -2.284208   1.000000
   61       -2.256697   1.000000
   62       -2.210037   1.000000
   63       -2.145439   1.000000
   64       -2.132578   1.000000
   65       -2.036102   1.000000
   66       -1.994255   1.000000
   67       -1.862063   1.000000
   68       -1.799691   1.000000
   69       -1.682602   1.000000
   70       -1.560024   1.000000
   71       -1.468984   1.000000
   72       -1.265251   1.000000
   73       -1.079755   1.000000
   74       -1.064334   1.000000
   75       -0.792800   1.000000
   76       -0.636924   1.000000
   77       -0.469060   1.000000
   78       -0.300125   1.000000
   79       -0.073061   1.000000
   80        0.084386   1.000000
   81        0.286031   1.000000
   82        0.319714   1.000000
   83        0.346641   1.000000
   84        0.447447   1.000000
   85        0.452646   1.000000
   86        0.607342   1.000000
   87        0.883040   1.000000
   88        1.096837   1.000000
   89        1.240940   1.000000
   90        1.349858   1.000002
   91        1.570194   1.000915
   92        1.715538   1.013481
   93        1.758460   1.022576
   94        1.824772   1.035036
   95        1.909762   1.002621
   96        2.071752   0.537319
   97        2.181894   0.126317
   98        2.265381  -0.015337
   99        2.304327  -0.033466
  100        2.365609  -0.030817
  101        2.413341  -0.020150
  102        2.462570  -0.010577
  103        2.542866  -0.002579
  104        2.587712  -0.000986
  105        2.646905  -0.000232
  106        2.739940  -0.000016
  107        2.768881  -0.000006
  108        2.847405  -0.000000
  109        2.941087  -0.000000
  110        2.949807  -0.000000
  111        2.992372  -0.000000
  112        3.018310  -0.000000
  113        3.053050  -0.000000
  114        3.150640  -0.000000
  115        3.191049  -0.000000
  116        3.218095  -0.000000
  117        3.297626  -0.000000
  118        3.306502  -0.000000
  119        3.354613  -0.000000
  120        3.417490  -0.000000
  121        3.497983  -0.000000
  122        3.543119  -0.000000
  123        3.654304  -0.000000
  124        3.671149  -0.000000
  125        3.720784  -0.000000
  126        3.791366  -0.000000

  0.3333333E+00  0.3916643E-15  0.1262379E-14  0.2469136E-01
    1      -12.039425   1.000000
    2      -11.418209   1.000000
    3      -10.794548   1.000000
    4      -10.632078   1.000000
    5      -10.215430   1.000000
    6       -9.970209   1.000000
    7       -9.920412   1.000000
    8       -9.457708   1.000000
    9       -9.443675   1.000000
   10       -9.260208   1.000000
   11       -9.259028   1.000000
   12       -9.108490   1.000000
   13       -9.094012   1.000000
   14       -9.081236   1.000000
   15       -7.671624   1.000000
   16       -7.573897   1.000000
   17       -7.209500   1.000000
   18       -7.187212   1.000000
   19       -6.931968   1.000000
   20       -6.909038   1.000000
   21       -6.831010   1.000000
   22       -6.769628   1.000000
   23       -6.226784   1.000000
   24       -6.089034   1.000000
   25       -6.033781   1.000000
   26       -5.794082   1.000000
   27       -5.697752   1.000000
   28       -5.312581   1.000000
   29       -5.113732   1.000000
   30       -4.841923   1.000000
   31       -4.814510   1.000000
   32       -4.681560   1.000000
   33       -4.633703   1.000000
   34       -4.586882   1.000000
   35       -4.528020   1.000000
   36       -4.442442   1.000000
   37       -4.165398   1.000000
   38       -3.996740   1.000000
   39       -3.880651   1.000000
   40       -3.817957   1.000000
   41       -3.764152   1.000000
   42       -3.632320   1.000000
   43       -3.468525   1.000000
   44       -3.370884   1.000000
   45       -3.347472   1.000000
   46       -3.266409   1.000000
   47       -3.252293   1.000000
   48       -3.234448   1.000000
   49       -3.141969   1.000000
   50       -3.051123   1.000000
   51       -2.935800   1.000000
   52       -2.885427   1.000000
   53       -2.816804   1.000000
   54       -2.763911   1.000000
   55       -2.634760   1.000000
   56       -2.569419   1.000000
   57       -2.540012   1.000000
   58       -2.450707   1.000000
   59       -2.403949   1.000000
   60       -2.292307   1.000000
   61       -2.283314   1.000000
   62       -2.240958   1.000000
   63       -2.210214   1.000000
   64       -2.121635   1.000000
   65       -2.047525   1.000000
   66       -2.003700   1.000000
   67       -1.918766   1.000000
   68       -1.887085   1.000000
   69       -1.699708   1.000000
   70       -1.472522   1.000000
   71       -1.406120   1.000000
   72       -1.303349   1.000000
   73       -1.135157   1.000000
   74       -0.872975   1.000000
   75       -0.730575   1.000000
   76       -0.659932   1.000000
   77       -0.538506   1.000000
   78       -0.485052   1.000000
   79       -0.351464   1.000000
   80       -0.146230   1.000000
   81        0.157141   1.000000
   82        0.193704   1.000000
   83        0.241039   1.000000
   84        0.291085   1.000000
   85        0.582302   1.000000
   86        0.641942   1.000000
   87        0.823043   1.000000
   88        0.931320   1.000000
   89        1.063089   1.000000
   90        1.227629   1.000000
   91        1.353170   1.000002
   92        1.517512   1.000253
   93        1.578040   1.001094
   94        1.774448   1.026266
   95        1.817616   1.034355
   96        1.844322   1.035149
   97        2.024152   0.728559
   98        2.072891   0.532509
   99        2.139226   0.263282
  100        2.219870   0.041373
  101        2.324602  -0.035455
  102        2.356439  -0.032502
  103        2.377430  -0.028348
  104        2.472909  -0.009032
  105        2.521576  -0.003902
  106        2.636436  -0.000304
  107        2.702805  -0.000050
  108        2.735445  -0.000019
  109        2.854703  -0.000000
  110        2.861199  -0.000000
  111        2.910446  -0.000000
  112        2.980817  -0.000000
  113        3.044908  -0.000000
  114        3.118158  -0.000000
  115        3.139458  -0.000000
  116        3.273241  -0.000000
  117        3.376108  -0.000000
  118        3.419894  -0.000000
  119        3.457754  -0.000000
  120        3.552425  -0.000000
  121        3.622129  -0.000000
  122        3.654475  -0.000000
  123        3.673217  -0.000000
  124        3.764786  -0.000000
  125        3.789327  -0.000000
  126        3.871262  -0.000000

  0.4444444E+00  0.3830161E-15  0.1262379E-14  0.2469136E-01
    1      -11.658580   1.000000
    2      -11.197351   1.000000
    3      -11.076205   1.000000
    4      -10.679000   1.000000
    5      -10.554648   1.000000
    6      -10.282350   1.000000
    7       -9.690614   1.000000
    8       -9.517475   1.000000
    9       -9.493071   1.000000
   10       -9.404278   1.000000
   11       -9.307539   1.000000
   12       -9.275135   1.000000
   13       -9.161672   1.000000
   14       -9.128644   1.000000
   15       -7.666883   1.000000
   16       -7.593602   1.000000
   17       -6.927275   1.000000
   18       -6.920996   1.000000
   19       -6.648547   1.000000
   20       -6.637906   1.000000
   21       -6.594180   1.000000
   22       -6.563127   1.000000
   23       -5.678136   1.000000
   24       -5.494131   1.000000
   25       -5.474586   1.000000
   26       -5.395565   1.000000
   27       -5.332180   1.000000
   28       -5.317060   1.000000
   29       -5.291841   1.000000
   30       -5.103985   1.000000
   31       -5.039938   1.000000
   32       -4.985834   1.000000
   33       -4.824372   1.000000
   34       -4.763670   1.000000
   35       -4.700798   1.000000
   36       -4.640404   1.000000
   37       -4.497561   1.000000
   38       -4.284251   1.000000
   39       -4.082835   1.000000
   40       -3.867384   1.000000
   41       -3.758739   1.000000
   42       -3.686790   1.000000
   43       -3.545575   1.000000
   44       -3.517988   1.000000
   45       -3.415767   1.000000
   46       -3.316649   1.000000
   47       -3.226743   1.000000
   48       -3.172108   1.000000
   49       -3.106784   1.000000
   50       -3.054543   1.000000
   51       -2.978727   1.000000
   52       -2.894004   1.000000
   53       -2.863816   1.000000
   54       -2.732419   1.000000
   55       -2.707116   1.000000
   56       -2.679080   1.000000
   57       -2.629707   1.000000
   58       -2.597054   1.000000
   59       -2.427942   1.000000
   60       -2.381739   1.000000
   61       -2.351231   1.000000
   62       -2.310884   1.000000
   63       -2.294874   1.000000
   64       -2.115877   1.000000
   65       -2.077832   1.000000
   66       -1.983045   1.000000
   67       -1.928714   1.000000
   68       -1.832744   1.000000
   69       -1.633523   1.000000
   70       -1.517354   1.000000
   71       -1.290394   1.000000
   72       -1.196847   1.000000
   73       -1.078017   1.000000
   74       -1.020961   1.000000
   75       -0.918248   1.000000
   76       -0.645758   1.000000
   77       -0.558689   1.000000
   78       -0.415312   1.000000
   79       -0.206226   1.000000
   80       -0.157056   1.000000
   81       -0.016355   1.000000
   82        0.012569   1.000000
   83        0.128375   1.000000
   84        0.204844   1.000000
   85        0.635337   1.000000
   86        0.713219   1.000000
   87        0.838492   1.000000
   88        1.012230   1.000000
   89        1.075661   1.000000
   90        1.178231   1.000000
   91        1.225651   1.000000
   92        1.246940   1.000000
   93        1.460774   1.000053
   94        1.627671   1.003105
   95        1.633142   1.003453
   96        1.681268   1.008084
   97        1.794096   1.030529
   98        1.911719   1.000530
   99        1.964723   0.910504
  100        1.975552   0.883594
  101        2.095520   0.436982
  102        2.157545   0.199532
  103        2.299937  -0.032475
  104        2.317619  -0.035204
  105        2.413142  -0.020195
  106        2.493812  -0.006418
  107        2.552617  -0.002114
  108        2.668679  -0.000130
  109        2.766058  -0.000007
  110        2.813999  -0.000001
  111        2.832924  -0.000001
  112        2.986032  -0.000000
  113        3.060292  -0.000000
  114        3.152849  -0.000000
  115        3.246667  -0.000000
  116        3.409809  -0.000000
  117        3.481909  -0.000000
  118        3.501427  -0.000000
  119        3.611095  -0.000000
  120        3.686597  -0.000000
  121        3.751372  -0.000000
  122        3.767820  -0.000000
  123        3.807730  -0.000000
  124        3.858590  -0.000000
  125        3.911227  -0.000000
  126        3.943329  -0.000000

  0.3742002E-15  0.1111111E+00  0.1262379E-14  0.2469136E-01
    1      -12.492287   1.000000
    2      -11.815112   1.000000
    3      -11.075451   1.000000
    4      -10.193540   1.000000
    5       -9.523349   1.000000
    6       -9.367511   1.000000
    7       -9.349543   1.000000
    8       -9.282111   1.000000
    9       -9.135288   1.000000
   10       -9.015484   1.000000
   11       -8.922560   1.000000
   12       -8.882315   1.000000
   13       -8.838136   1.000000
   14       -8.521401   1.000000
   15       -8.191317   1.000000
   16       -8.166102   1.000000
   17       -7.839531   1.000000
   18       -7.817201   1.000000
   19       -7.770279   1.000000
   20       -7.542850   1.000000
   21       -7.268821   1.000000
   22       -7.168318   1.000000
   23       -6.970175   1.000000
   24       -6.869974   1.000000
   25       -6.691615   1.000000
   26       -6.607387   1.000000
   27       -6.346827   1.000000
   28       -5.501029   1.000000
   29       -5.430109   1.000000
   30       -5.312585   1.000000
   31       -4.536758   1.000000
   32       -4.444389   1.000000
   33       -4.413837   1.000000
   34       -4.249883   1.000000
   35       -3.855098   1.000000
   36       -3.835289   1.000000
   37       -3.773342   1.000000
   38       -3.724670   1.000000
   39       -3.638504   1.000000
   40       -3.618702   1.000000
   41       -3.544056   1.000000
   42       -3.527664   1.000000
   43       -3.484784   1.000000
   44       -3.437090   1.000000
   45       -3.427342   1.000000
   46       -3.114019   1.000000
   47       -3.024243   1.000000
   48       -2.962740   1.000000
   49       -2.940736   1.000000
   50       -2.849693   1.000000
   51       -2.790463   1.000000
   52       -2.749764   1.000000
   53       -2.588570   1.000000
   54       -2.556121   1.000000
   55       -2.512068   1.000000
   56       -2.493414   1.000000
   57       -2.399274   1.000000
   58       -2.363060   1.000000
   59       -2.304742   1.000000
   60       -2.285597   1.000000
   61       -2.188506   1.000000
   62       -2.147407   1.000000
   63       -2.107720   1.000000
   64       -2.070510   1.000000
   65       -1.966682   1.000000
   66       -1.884766   1.000000
   67       -1.813114   1.000000
   68       -1.759290   1.000000
   69       -1.550698   1.000000
   70       -1.439803   1.000000
   71       -1.417204   1.000000
   72       -1.291889   1.000000
   73       -1.213862   1.000000
   74       -1.133457   1.000000
   75       -0.601202   1.000000
   76       -0.322545   1.000000
   77       -0.272890   1.000000
   78       -0.033487   1.000000
   79        0.104962   1.000000
   80        0.227450   1.000000
   81        0.302376   1.000000
   82        0.362575   1.000000
   83        0.404475   1.000000
   84        0.488074   1.000000
   85        0.555989   1.000000
   86        0.677372   1.000000
   87        1.139426   1.000000
   88        1.209431   1.000000
   89        1.349670   1.000002
   90        1.574653   1.001013
   91        1.621369   1.002742
   92        1.681021   1.008052
   93        1.750323   1.020715
   94        1.766548   1.024447
   95        1.831785   1.035402
   96        1.940619   0.959806
   97        2.032026   0.698891
   98        2.278335  -0.023923
   99        2.373992  -0.029092
  100        2.445673  -0.013472
  101        2.471070  -0.009294
  102        2.600000  -0.000742
  103        2.673343  -0.000114
  104        2.698312  -0.000056
  105        2.738673  -0.000017
  106        2.786679  -0.000004
  107        2.853077  -0.000000
  108        2.962843  -0.000000
  109        2.979564  -0.000000
  110        3.005689  -0.000000
  111        3.026368  -0.000000
  112        3.115064  -0.000000
  113        3.141456  -0.000000
  114        3.209598  -0.000000
  115        3.232323  -0.000000
  116        3.272229  -0.000000
  117        3.313312  -0.000000
  118        3.387732  -0.000000
  119        3.412797  -0.000000
  120        3.432613  -0.000000
  121        3.448073  -0.000000
  122        3.536072  -0.000000
  123        3.556606  -0.000000
  124        3.668133  -0.000000
  125        3.704586  -0.000000
  126        3.838954  -0.000000

  0.1111111E+00  0.1111111E+00  0.1262379E-14  0.2469136E-01
    1      -12.377284   1.000000
    2      -11.713453   1.000000
    3      -11.001503   1.000000
    4      -10.120647   1.000000
    5       -9.692650   1.000000
    6       -9.688766   1.000000
    7       -9.542290   1.000000
    8       -9.482779   1.000000
    9       -9.390187   1.000000
   10       -9.328260   1.000000
   11       -9.205003   1.000000
   12       -8.789195   1.000000
   13       -8.706124   1.000000
   14       -8.451722   1.000000
   15       -8.427065   1.000000
   16       -7.820422   1.000000
   17       -7.650075   1.000000
   18       -7.373071   1.000000
   19       -7.359278   1.000000
   20       -7.247577   1.000000
   21       -7.131558   1.000000
   22       -6.988868   1.000000
   23       -6.838684   1.000000
   24       -6.709501   1.000000
   25       -6.609277   1.000000
   26       -6.587494   1.000000
   27       -6.278266   1.000000
   28       -5.369522   1.000000
   29       -5.231847   1.000000
   30       -4.996793   1.000000
   31       -4.587012   1.000000
   32       -4.495524   1.000000
   33       -4.363922   1.000000
   34       -4.206812   1.000000
   35       -4.176662   1.000000
   36       -4.142489   1.000000
   37       -3.816709   1.000000
   38       -3.776364   1.000000
   39       -3.703829   1.000000
   40       -3.695410   1.000000
   41       -3.574545   1.000000
   42       -3.545405   1.000000
   43       -3.521532   1.000000
   44       -3.454985   1.000000
   45       -3.396295   1.000000
   46       -3.350008   1.000000
   47       -3.092611   1.000000
   48       -3.071483   1.000000
   49       -2.982859   1.000000
   50       -2.880462   1.000000
   51       -2.871753   1.000000
   52       -2.817718   1.000000
   53       -2.657210   1.000000
   54       -2.548060   1.000000
   55       -2.539502   1.000000
   56       -2.473836   1.000000
   57       -2.431353   1.000000
   58       -2.265205   1.000000
   59       -2.256697   1.000000
   60       -2.237876   1.000000
   61       -2.223028   1.000000
   62       -2.126521   1.000000
   63       -2.118471   1.000000
   64       -2.055803   1.000000
   65       -2.007457   1.000000
   66       -1.966983   1.000000
   67       -1.897251   1.000000
   68       -1.800241   1.000000
   69       -1.665987   1.000000
   70       -1.565198   1.000000
   71       -1.544328   1.000000
   72       -1.280732   1.000000
   73       -1.173319   1.000000
   74       -1.060894   1.000000
   75       -0.666756   1.000000
   76       -0.605175   1.000000
   77       -0.460219   1.000000
   78       -0.231522   1.000000
   79        0.023111   1.000000
   80        0.147538   1.000000
   81        0.276270   1.000000
   82        0.317335   1.000000
   83        0.365875   1.000000
   84        0.400355   1.000000
   85        0.525918   1.000000
   86        0.535528   1.000000
   87        1.009588   1.000000
   88        1.108851   1.000000
   89        1.343826   1.000001
   90        1.543392   1.000485
   91        1.607436   1.002066
   92        1.670898   1.006815
   93        1.753178   1.021364
   94        1.879431   1.025713
   95        1.901048   1.010990
   96        2.003148   0.802007
   97        2.183793   0.121208
   98        2.196297   0.089828
   99        2.277174  -0.023268
  100        2.387784  -0.026021
  101        2.469081  -0.009584
  102        2.508385  -0.004973
  103        2.598065  -0.000777
  104        2.647573  -0.000228
  105        2.660267  -0.000163
  106        2.757068  -0.000009
  107        2.836988  -0.000001
  108        2.849531  -0.000000
  109        2.918663  -0.000000
  110        2.971539  -0.000000
  111        3.018314  -0.000000
  112        3.095658  -0.000000
  113        3.112956  -0.000000
  114        3.161434  -0.000000
  115        3.206261  -0.000000
  116        3.223658  -0.000000
  117        3.270479  -0.000000
  118        3.317045  -0.000000
  119        3.392717  -0.000000
  120        3.426495  -0.000000
  121        3.434294  -0.000000
  122        3.463875  -0.000000
  123        3.588745  -0.000000
  124        3.708519  -0.000000
  125        3.718102  -0.000000
  126        3.801356  -0.000000

  0.2222222E+00  0.1111111E+00  0.1262379E-14  0.2469136E-01
    1      -12.150840   1.000000
    2      -11.514688   1.000000
    3      -10.859565   1.000000
    4      -10.299761   1.000000
    5       -9.982238   1.000000
    6       -9.944334   1.000000