   56   56   85    1
  0.1612097E+02  0.6082354E-09  0.6082354E-09  0.2819923E-08  0.5000000E-15
   1.0000000000000000E-004
  CAR 
 Name                                    
    208     41    136

  0.3742002E-15  0.3742002E-15  0.1262379E-14  0.1234568E-01
    1      -13.355243   1.000000
    2      -12.750781   1.000000
    3      -11.944587   1.000000
    4      -10.169990   1.000000
    5      -10.157722   1.000000
    6      -10.037636   1.000000
    7       -9.965290   1.000000
    8       -9.777046   1.000000
    9       -9.736928   1.000000
   10       -9.674656   1.000000
   11       -9.542392   1.000000
   12       -9.430439   1.000000
   13       -9.377624   1.000000
   14       -9.370499   1.000000
   15       -9.368944   1.000000
   16       -9.357910   1.000000
   17       -9.338415   1.000000
   18       -8.882303   1.000000
   19       -8.762371   1.000000
   20       -8.694259   1.000000
   21       -8.102437   1.000000
   22       -7.924581   1.000000
   23       -7.806820   1.000000
   24       -7.246571   1.000000
   25       -7.240561   1.000000
   26       -7.170177   1.000000
   27       -7.168977   1.000000
   28       -7.109696   1.000000
   29       -7.079511   1.000000
   30       -7.079080   1.000000
   31       -6.194566   1.000000
   32       -6.061503   1.000000
   33       -6.030434   1.000000
   34       -5.921220   1.000000
   35       -5.915069   1.000000
   36       -5.809174   1.000000
   37       -5.791309   1.000000
   38       -5.219995   1.000000
   39       -5.046494   1.000000
   40       -4.722850   1.000000
   41       -4.673040   1.000000
   42       -4.524889   1.000000
   43       -4.474034   1.000000
   44       -4.289375   1.000000
   45       -4.283755   1.000000
   46       -4.041765   1.000000
   47       -3.947795   1.000000
   48       -3.890320   1.000000
   49       -3.766942   1.000000
   50       -3.698909   1.000000
   51       -3.671915   1.000000
   52       -3.608674   1.000000
   53       -3.492268   1.000000
   54       -3.398310   1.000000
   55       -3.299733   1.000000
   56       -3.220922   1.000000
   57       -3.218370   1.000000
   58       -3.166025   1.000000
   59       -3.165891   1.000000
   60       -3.153520   1.000000
   61       -3.109975   1.000000
   62       -3.090644   1.000000
   63       -3.079571   1.000000
   64       -3.060532   1.000000
   65       -2.999901   1.000000
   66       -2.897596   1.000000
   67       -2.884933   1.000000
   68       -2.832418   1.000000
   69       -2.787341   1.000000
   70       -2.780302   1.000000
   71       -2.672066   1.000000
   72       -2.300235   1.000000
   73       -2.200559   1.000000
   74       -1.856614   1.000000
   75       -1.653740   1.000000
   76       -1.635844   1.000000
   77       -1.607888   1.000000
   78       -1.571923   1.000000
   79       -1.526567   1.000000
   80       -1.428485   1.000000
   81       -1.388216   1.000000
   82       -1.144542   1.000000
   83       -0.872253   1.000000
   84       -0.805600   1.000000
   85       -0.646503   1.000000
   86       -0.602323   1.000000
   87       -0.485674   1.000000
   88       -0.333967   1.000000
   89       -0.251038   1.000000
   90        0.018569   1.000000
   91        0.178030   1.000000
   92        0.223981   1.000000
   93        0.229725   1.000000
   94        0.250883   1.000000
   95        0.254649   1.000000
   96        0.273954   1.000000
   97        0.499301   1.000000
   98        0.537977   1.000002
   99        0.586835   1.000010
  100        0.628316   1.000036
  101        0.966740   1.028844
  102        1.191954   0.774819
  103        1.266622   0.477528
  104        1.418113   0.014155
  105        1.447912  -0.016706
  106        1.486203  -0.033689
  107        1.543125  -0.031435
  108        1.589909  -0.021091
  109        1.598825  -0.019092
  110        1.936184  -0.000010
  111        1.965488  -0.000004
  112        2.005581  -0.000001
  113        2.006543  -0.000001
  114        2.026842  -0.000000
  115        2.101871  -0.000000
  116        2.181888  -0.000000
  117        2.237497  -0.000000
  118        2.264528  -0.000000
  119        2.295064  -0.000000
  120        2.326026  -0.000000
  121        2.361394  -0.000000
  122        2.420085  -0.000000
  123        2.436772  -0.000000
  124        2.438271  -0.000000
  125        2.463869  -0.000000
  126        2.479580  -0.000000
  127        2.524077  -0.000000
  128        2.572554  -0.000000
  129        2.591725  -0.000000
  130        2.603995  -0.000000
  131        2.618863  -0.000000
  132        2.653856  -0.000000
  133        2.676171  -0.000000
  134        2.690578  -0.000000
  135        2.718080  -0.000000
  136        2.738584  -0.000000

  0.1111111E+00  0.3873733E-15  0.1262379E-14  0.2469136E-01
    1      -13.297257   1.000000
    2      -12.698573   1.000000
    3      -11.904830   1.000000
    4      -10.214844   1.000000
    5      -10.113445   1.000000
    6      -10.107291   1.000000
    7      -10.022365   1.000000
    8      -10.010109   1.000000
    9       -9.945193   1.000000
   10       -9.837366   1.000000
   11       -9.743102   1.000000
   12       -9.728319   1.000000
   13       -9.710364   1.000000
   14       -9.706270   1.000000
   15       -8.964714   1.000000
   16       -8.963938   1.000000
   17       -8.653821   1.000000
   18       -8.633789   1.000000
   19       -8.629366   1.000000
   20       -8.476480   1.000000
   21       -7.976079   1.000000
   22       -7.905483   1.000000
   23       -7.853446   1.000000
   24       -7.367665   1.000000
   25       -7.235773   1.000000
   26       -7.212234   1.000000
   27       -7.203627   1.000000
   28       -7.182599   1.000000
   29       -7.173464   1.000000
   30       -7.041036   1.000000
   31       -5.982444   1.000000
   32       -5.965231   1.000000
   33       -5.867781   1.000000
   34       -5.854660   1.000000
   35       -5.754459   1.000000
   36       -5.743537   1.000000
   37       -5.634849   1.000000
   38       -5.191673   1.000000
   39       -5.063070   1.000000
   40       -4.767927   1.000000
   41       -4.670878   1.000000
   42       -4.661248   1.000000
   43       -4.422564   1.000000
   44       -4.328339   1.000000
   45       -4.287225   1.000000
   46       -4.269357   1.000000
   47       -4.193580   1.000000
   48       -4.024396   1.000000
   49       -3.795302   1.000000
   50       -3.714348   1.000000
   51       -3.645692   1.000000
   52       -3.567762   1.000000
   53       -3.482463   1.000000
   54       -3.429618   1.000000
   55       -3.344841   1.000000
   56       -3.271501   1.000000
   57       -3.234297   1.000000
   58       -3.198827   1.000000
   59       -3.184820   1.000000
   60       -3.150970   1.000000
   61       -3.087455   1.000000
   62       -3.062615   1.000000
   63       -3.057745   1.000000
   64       -3.050492   1.000000
   65       -2.985047   1.000000
   66       -2.928341   1.000000
   67       -2.811324   1.000000
   68       -2.767837   1.000000
   69       -2.755863   1.000000
   70       -2.724824   1.000000
   71       -2.634767   1.000000
   72       -2.329582   1.000000
   73       -2.299644   1.000000
   74       -2.161830   1.000000
   75       -1.920458   1.000000
   76       -1.668500   1.000000
   77       -1.638073   1.000000
   78       -1.560725   1.000000
   79       -1.488727   1.000000
   80       -1.433306   1.000000
   81       -1.374924   1.000000
   82       -1.237143   1.000000
   83       -0.966883   1.000000
   84       -0.843292   1.000000
   85       -0.825163   1.000000
   86       -0.741513   1.000000
   87       -0.605220   1.000000
   88       -0.514457   1.000000
   89       -0.253267   1.000000
   90        0.141808   1.000000
   91        0.143210   1.000000
   92        0.151166   1.000000
   93        0.200125   1.000000
   94        0.203950   1.000000
   95        0.209279   1.000000
   96        0.270151   1.000000
   97        0.434699   1.000000
   98        0.462627   1.000000
   99        0.858649   1.007656
  100        0.924488   1.019245
  101        1.126747   0.950021
  102        1.129279   0.945184
  103        1.228152   0.638186
  104        1.240883   0.585933
  105        1.392791   0.055884
  106        1.398433   0.045246
  107        1.574196  -0.024712
  108        1.767704  -0.001003
  109        1.822229  -0.000267
  110        1.924241  -0.000014
  111        1.954750  -0.000005
  112        2.015351  -0.000001
  113        2.053075  -0.000000
  114        2.064320  -0.000000
  115        2.069733  -0.000000
  116        2.105236  -0.000000
  117        2.174365  -0.000000
  118        2.187412  -0.000000
  119        2.241055  -0.000000
  120        2.288436  -0.000000
  121        2.352616  -0.000000
  122        2.361066  -0.000000
  123        2.387273  -0.000000
  124        2.450435  -0.000000
  125        2.451575  -0.000000
  126        2.464190  -0.000000
  127        2.466340  -0.000000
  128        2.537344  -0.000000
  129        2.564766  -0.000000
  130        2.577576  -0.000000
  131        2.594848  -0.000000
  132        2.646497  -0.000000
  133        2.663409  -0.000000
  134        2.682885  -0.000000
  135        2.737478  -0.000000
  136        2.813698  -0.000000

  0.2222222E+00  0.3961903E-15  0.1262379E-14  0.2469136E-01
    1      -13.124949   1.000000
    2      -12.543939   1.000000
    3      -11.788052   1.000000
    4      -10.795033   1.000000
    5      -10.532040   1.000000
    6      -10.412127   1.000000
    7      -10.002183   1.000000
    8       -9.994311   1.000000
    9       -9.970463   1.000000
   10       -9.968241   1.000000
   11       -9.950256   1.000000
   12       -9.878160   1.000000
   13       -9.858125   1.000000
   14       -9.844320   1.000000
   15       -8.514590   1.000000
   16       -8.495184   1.000000
   17       -8.443072   1.000000
   18       -8.337937   1.000000
   19       -8.298794   1.000000
   20       -8.233222   1.000000
   21       -7.842568   1.000000
   22       -7.822530   1.000000
   23       -7.667741   1.000000
   24       -7.342780   1.000000
   25       -7.294324   1.000000
   26       -7.284168   1.000000
   27       -7.232200   1.000000
   28       -7.221546   1.000000
   29       -6.981582   1.000000
   30       -6.846199   1.000000
   31       -5.734067   1.000000
   32       -5.725602   1.000000
   33       -5.703133   1.000000
   34       -5.683873   1.000000
   35       -5.595978   1.000000
   36       -5.362852   1.000000
   37       -5.236927   1.000000
   38       -5.103770   1.000000
   39       -5.066454   1.000000
   40       -5.000748   1.000000
   41       -4.929335   1.000000
   42       -4.862384   1.000000
   43       -4.744385   1.000000
   44       -4.583861   1.000000
   45       -4.323099   1.000000
   46       -4.300016   1.000000
   47       -4.249441   1.000000
   48       -3.993645   1.000000
   49       -3.887076   1.000000
   50       -3.816031   1.000000
   51       -3.769741   1.000000
   52       -3.610510   1.000000
   53       -3.592910   1.000000
   54       -3.560516   1.000000
   55       -3.435934   1.000000
   56       -3.306370   1.000000
   57       -3.298997   1.000000
   58       -3.288493   1.000000
   59       -3.230421   1.000000
   60       -3.184770   1.000000
   61       -3.174260   1.000000
   62       -3.041476   1.000000
   63       -2.984332   1.000000
   64       -2.966290   1.000000
   65       -2.964604   1.000000
   66       -2.887496   1.000000
   67       -2.854157   1.000000
   68       -2.845206   1.000000
   69       -2.704408   1.000000
   70       -2.617703   1.000000
   71       -2.578851   1.000000
   72       -2.578430   1.000000
   73       -2.514907   1.000000
   74       -2.494286   1.000000
   75       -2.347594   1.000000
   76       -1.732855   1.000000
   77       -1.688444   1.000000
   78       -1.467803   1.000000
   79       -1.456472   1.000000
   80       -1.431685   1.000000
   81       -1.387485   1.000000
   82       -1.304476   1.000000
   83       -1.294410   1.000000
   84       -1.239145   1.000000
   85       -0.946364   1.000000
   86       -0.846910   1.000000
   87       -0.814531   1.000000
   88       -0.780781   1.000000
   89       -0.086094   1.000000
   90       -0.055731   1.000000
   91       -0.041774   1.000000
   92        0.065536   1.000000
   93        0.096493   1.000000
   94        0.133545   1.000000
   95        0.135347   1.000000
   96        0.269288   1.000000
   97        0.364640   1.000000
   98        0.378923   1.000000
   99        0.911696   1.016505
  100        0.924158   1.019172
  101        1.095849   0.996706
  102        1.268310   0.470396
  103        1.304970   0.320047
  104        1.422184   0.008841
  105        1.550834  -0.029910
  106        1.566810  -0.026410
  107        1.694536  -0.004507
  108        1.709497  -0.003403
  109        1.711822  -0.003254
  110        1.766929  -0.001020
  111        1.862431  -0.000091
  112        1.868391  -0.000077
  113        1.983165  -0.000002
  114        1.998341  -0.000001
  115        1.999817  -0.000001
  116        2.134512  -0.000000
  117        2.143879  -0.000000
  118        2.171276  -0.000000
  119        2.213389  -0.000000
  120        2.275000  -0.000000
  121        2.282659  -0.000000
  122        2.373555  -0.000000
  123        2.397480  -0.000000
  124        2.400570  -0.000000
  125        2.430668  -0.000000
  126        2.440482  -0.000000
  127        2.467860  -0.000000
  128        2.487869  -0.000000
  129        2.510884  -0.000000
  130        2.542135  -0.000000
  131        2.554616  -0.000000
  132        2.713590  -0.000000
  133        2.727788  -0.000000
  134        2.755401  -0.000000
  135        2.794546  -0.000000
  136        2.809332  -0.000000

  0.3333333E+00  0.4188087E-15  0.1262379E-14  0.2469136E-01
    1      -12.843092   1.000000
    2      -12.292632   1.000000
    3      -11.601120   1.000000
    4      -11.423921   1.000000
    5      -11.057895   1.000000
    6      -10.730294   1.000000
    7      -10.136484   1.000000
    8      -10.136283   1.000000
    9      -10.003204   1.000000
   10       -9.991339   1.000000
   11       -9.990735   1.000000
   12       -9.982973   1.000000
   13       -9.739213   1.000000
   14       -9.674668   1.000000
   15       -8.700003   1.000000
   16       -8.698788   1.000000
   17       -8.021039   1.000000
   18       -8.007426   1.000000
   19       -8.000568   1.000000
   20       -7.987244   1.000000
   21       -7.713808   1.000000
   22       -7.695952   1.000000
   23       -7.367042   1.000000
   24       -7.360276   1.000000
   25       -7.321410   1.000000
   26       -7.309927   1.000000
   27       -6.883873   1.000000
   28       -6.736957   1.000000
   29       -6.533774   1.000000
   30       -6.396085   1.000000
   31       -5.563062   1.000000
   32       -5.555648   1.000000
   33       -5.544883   1.000000
   34       -5.530593   1.000000
   35       -5.497738   1.000000
   36       -5.464936   1.000000
   37       -5.368403   1.000000
   38       -5.265626   1.000000
   39       -5.257543   1.000000
   40       -5.116423   1.000000
   41       -5.110384   1.000000
   42       -5.090241   1.000000
   43       -4.507077   1.000000
   44       -4.436399   1.000000
   45       -4.401176   1.000000
   46       -4.275378   1.000000
   47       -4.196276   1.000000
   48       -4.092955   1.000000
   49       -4.085801   1.000000
   50       -3.924508   1.000000
   51       -3.866778   1.000000
   52       -3.841669   1.000000
   53       -3.785970   1.000000
   54       -3.722308   1.000000
   55       -3.559264   1.000000
   56       -3.457870   1.000000
   57       -3.380083   1.000000
   58       -3.291202   1.000000
   59       -3.283372   1.000000
   60       -3.256425   1.000000
   61       -3.214984   1.000000
   62       -3.168137   1.000000
   63       -3.093768   1.000000
   64       -3.072276   1.000000
   65       -3.029615   1.000000
   66       -3.025205   1.000000
   67       -2.935294   1.000000
   68       -2.916188   1.000000
   69       -2.814445   1.000000
   70       -2.688864   1.000000
   71       -2.528436   1.000000
   72       -2.505678   1.000000
   73       -2.468365   1.000000
   74       -2.415786   1.000000
   75       -2.298084   1.000000
   76       -2.021743   1.000000
   77       -1.989929   1.000000
   78       -1.872786   1.000000
   79       -1.607530   1.000000
   80       -1.487913   1.000000
   81       -1.367566   1.000000
   82       -1.333064   1.000000
   83       -1.278652   1.000000
   84       -1.257956   1.000000
   85       -0.987375   1.000000
   86       -0.915285   1.000000
   87       -0.899217   1.000000
   88       -0.762011   1.000000
   89       -0.193280   1.000000
   90       -0.178428   1.000000
   91       -0.151984   1.000000
   92       -0.130158   1.000000
   93        0.051964   1.000000
   94        0.098288   1.000000
   95        0.165515   1.000000
   96        0.249582   1.000000
   97        0.252740   1.000000
   98        0.400879   1.000000
   99        0.796377   1.002445
  100        0.835341   1.005140
  101        0.980683   1.031657
  102        1.093648   0.999208
  103        1.195013   0.764166
  104        1.213939   0.694342
  105        1.341386   0.189402
  106        1.423049   0.007760
  107        1.562460  -0.027394
  108        1.626018  -0.013543
  109        1.660210  -0.008138
  110        1.713825  -0.003129
  111        1.723320  -0.002593
  112        1.781189  -0.000734
  113        1.879366  -0.000056
  114        1.977133  -0.000003
  115        2.072333  -0.000000
  116        2.080146  -0.000000
  117        2.136629  -0.000000
  118        2.153394  -0.000000
  119        2.217366  -0.000000
  120        2.241815  -0.000000
  121        2.321524  -0.000000
  122        2.368630  -0.000000
  123        2.386996  -0.000000
  124        2.402942  -0.000000
  125        2.469781  -0.000000
  126        2.505129  -0.000000
  127        2.546955  -0.000000
  128        2.550567  -0.000000
  129        2.565013  -0.000000
  130        2.568668  -0.000000
  131        2.691698  -0.000000
  132        2.772952  -0.000000
  133        2.823361  -0.000000
  134        2.839074  -0.000000
  135        2.870344  -0.000000
  136        2.874926  -0.000000

  0.4444444E+00  0.4342306E-15  0.1262379E-14  0.2469136E-01
    1      -12.459120   1.000000
    2      -11.982476   1.000000
    3      -11.953490   1.000000
    4      -11.537590   1.000000
    5      -11.353807   1.000000
    6      -11.057875   1.000000
    7      -10.221567   1.000000
    8      -10.221294   1.000000
    9      -10.055441   1.000000
   10      -10.052290   1.000000
   11       -9.987773   1.000000
   12       -9.986841   1.000000
   13       -9.449736   1.000000
   14       -9.419298   1.000000
   15       -9.092153   1.000000
   16       -9.087493   1.000000
   17       -7.758522   1.000000
   18       -7.756099   1.000000
   19       -7.748499   1.000000
   20       -7.748361   1.000000
   21       -7.469000   1.000000
   22       -7.462624   1.000000
   23       -7.401270   1.000000
   24       -7.397914   1.000000
   25       -7.393259   1.000000
   26       -7.384169   1.000000
   27       -6.139141   1.000000
   28       -6.082990   1.000000
   29       -6.079065   1.000000
   30       -5.996088   1.000000
   31       -5.990928   1.000000
   32       -5.762035   1.000000
   33       -5.732439   1.000000
   34       -5.709641   1.000000
   35       -5.483473   1.000000
   36       -5.443202   1.000000
   37       -5.355497   1.000000
   38       -5.331345   1.000000
   39       -5.123911   1.000000
   40       -5.059098   1.000000
   41       -5.036418   1.000000
   42       -5.028775   1.000000
   43       -5.020204   1.000000
   44       -4.921920   1.000000
   45       -4.497946   1.000000
   46       -4.479505   1.000000
   47       -4.181008   1.000000
   48       -4.120803   1.000000
   49       -4.076270   1.000000
   50       -3.843682   1.000000
   51       -3.800092   1.000000
   52       -3.755433   1.000000
   53       -3.738387   1.000000
   54       -3.702962   1.000000
   55       -3.614977   1.000000
   56       -3.515543   1.000000
   57       -3.441451   1.000000
   58       -3.417138   1.000000
   59       -3.341221   1.000000
   60       -3.320624   1.000000
   61       -3.242807   1.000000
   62       -3.212678   1.000000
   63       -3.185865   1.000000
   64       -3.174631   1.000000
   65       -3.083424   1.000000
   66       -3.043691   1.000000
   67       -3.013180   1.000000
   68       -2.989048   1.000000
   69       -2.768124   1.000000
   70       -2.628892   1.000000
   71       -2.616479   1.000000
   72       -2.606414   1.000000
   73       -2.472444   1.000000
   74       -2.424304   1.000000
   75       -2.289913   1.000000
   76       -2.133836   1.000000
   77       -2.102045   1.000000
   78       -2.002393   1.000000
   79       -1.708698   1.000000
   80       -1.675054   1.000000
   81       -1.480053   1.000000
   82       -1.461742   1.000000
   83       -1.211654   1.000000
   84       -1.133370   1.000000
   85       -1.079059   1.000000
   86       -1.005948   1.000000
   87       -0.631881   1.000000
   88       -0.609304   1.000000
   89       -0.383995   1.000000
   90       -0.373741   1.000000
   91       -0.161879   1.000000
   92       -0.139938   1.000000
   93        0.005685   1.000000
   94        0.047064   1.000000
   95        0.253594   1.000000
   96        0.262968   1.000000
   97        0.584722   1.000009
   98        0.592952   1.000012
   99        0.674527   1.000135
  100        0.705715   1.000306
  101        0.851534   1.006805
  102        0.898807   1.013955
  103        0.927941   1.020014
  104        0.975851   1.030733
  105        1.005264   1.035018
  106        1.155335   0.886061
  107        1.334786   0.211133
  108        1.349153   0.165086
  109        1.476786  -0.031406
  110        1.579387  -0.023511
  111        1.653530  -0.009047
  112        1.670053  -0.006924
  113        1.922952  -0.000015
  114        2.013542  -0.000001
  115        2.027991  -0.000000
  116        2.030109  -0.000000
  117        2.036742  -0.000000
  118        2.083913  -0.000000
  119        2.231685  -0.000000
  120        2.296448  -0.000000
  121        2.335490  -0.000000
  122        2.348264  -0.000000
  123        2.358127  -0.000000
  124        2.408307  -0.000000
  125        2.553268  -0.000000
  126        2.554391  -0.000000
  127        2.584560  -0.000000
  128        2.595932  -0.000000
  129        2.614268  -0.000000
  130        2.627852  -0.000000
  131        2.733575  -0.000000
  132        2.854617  -0.000000
  133        2.917715  -0.000000
  134        2.966661  -0.000000
  135        2.968012  -0.000000
  136        3.102936  -0.000000

  0.3742002E-15  0.1111111E+00  0.1262379E-14  0.2469136E-01
    1      -13.297258   1.000000
    2      -12.698573   1.000000
    3      -11.904829   1.000000
    4      -10.214792   1.000000
    5      -10.113444   1.000000
    6      -10.107379   1.000000
    7      -10.022362   1.000000
    8      -10.010019   1.000000
    9       -9.945205   1.000000
   10       -9.837457   1.000000
   11       -9.743112   1.000000
   12       -9.728496   1.000000
   13       -9.710261   1.000000
   14       -9.706269   1.000000
   15       -8.964617   1.000000
   16       -8.963928   1.000000
   17       -8.653430   1.000000
   18       -8.633774   1.000000
   19       -8.629476   1.000000
   20       -8.476746   1.000000
   21       -7.975961   1.000000
   22       -7.905466   1.000000
   23       -7.853434   1.000000
   24       -7.367722   1.000000
   25       -7.235892   1.000000
   26       -7.212231   1.000000
   27       -7.203610   1.000000
   28       -7.182594   1.000000
   29       -7.173448   1.000000
   30       -7.041036   1.000000
   31       -5.982401   1.000000
   32       -5.965230   1.000000
   33       -5.867775   1.000000
   34       -5.854604   1.000000
   35       -5.754458   1.000000
   36       -5.743577   1.000000
   37       -5.634896   1.000000
   38       -5.191698   1.000000
   39       -5.063090   1.000000
   40       -4.767994   1.000000
   41       -4.670892   1.000000
   42       -4.661237   1.000000
   43       -4.422561   1.000000
   44       -4.328323   1.000000
   45       -4.287237   1.000000
   46       -4.269361   1.000000
   47       -4.193766   1.000000
   48       -4.024411   1.000000
   49       -3.795172   1.000000
   50       -3.714249   1.000000
   51       -3.645674   1.000000
   52       -3.567895   1.000000
   53       -3.482470   1.000000
   54       -3.429589   1.000000
   55       -3.344825   1.000000
   56       -3.271546   1.000000
   57       -3.234194   1.000000
   58       -3.198866   1.000000
   59       -3.184853   1.000000
   60       -3.150992   1.000000
   61       -3.087508   1.000000
   62       -3.062573   1.000000
   63       -3.057544   1.000000
   64       -3.050650   1.000000
   65       -2.985162   1.000000
   66       -2.928291   1.000000
   67       -2.811321   1.000000
   68       -2.767762   1.000000
   69       -2.755833   1.000000
   70       -2.724822   1.000000
   71       -2.634765   1.000000
   72       -2.329478   1.000000
   73       -2.299617   1.000000
   74       -2.161992   1.000000
   75       -1.920336   1.000000
   76       -1.668493   1.000000
   77       -1.638071   1.000000
   78       -1.560744   1.000000
   79       -1.488742   1.000000
   80       -1.433288   1.000000
   81       -1.374918   1.000000
   82       -1.237127   1.000000
   83       -0.966621   1.000000
   84       -0.843545   1.000000
   85       -0.825098   1.000000
   86       -0.741441   1.000000
   87       -0.605325   1.000000
   88       -0.514253   1.000000
   89       -0.253446   1.000000
   90        0.141812   1.000000
   91        0.143198   1.000000
   92        0.151168   1.000000
   93        0.200090   1.000000
   94        0.203950   1.000000
   95        0.209279   1.000000
   96        0.270219   1.000000
   97        0.434651   1.000000
   98        0.462607   1.000000
   99        0.858484   1.007636
  100        0.924701   1.019292
  101        1.126686   0.950135
  102        1.129269   0.945203
  103        1.228213   0.637938
  104        1.240885   0.585926
  105        1.392767   0.055930
  106        1.398453   0.045211
  107        1.574102  -0.024734
  108        1.767580  -0.001005
  109        1.822445  -0.000266
  110        1.924195  -0.000014
  111        1.954597  -0.000005
  112        2.015313  -0.000001
  113        2.053167  -0.000000
  114        2.064299  -0.000000
  115        2.069720  -0.000000
  116        2.105243  -0.000000
  117        2.174370  -0.000000
  118        2.187438  -0.000000
  119        2.241046  -0.000000
  120        2.288436  -0.000000
  121        2.352630  -0.000000
  122        2.361057  -0.000000
  123        2.387284  -0.000000
  124        2.450419  -0.000000
  125        2.451564  -0.000000
  126        2.464181  -0.000000
  127        2.466308  -0.000000
  128        2.537341  -0.000000
  129        2.564775  -0.000000
  130        2.577568  -0.000000
  131        2.594852  -0.000000
  132        2.646486  -0.000000
  133        2.663383  -0.000000
  134        2.682875  -0.000000
  135        2.737523  -0.000000
  136        2.813327  -0.000000

  0.1111111E+00  0.1111111E+00  0.1262379E-14  0.2469136E-01
    1      -13.181898   1.000000
    2      -12.594856   1.000000
    3      -11.825075   1.000000
    4      -10.433306   1.000000
    5      -10.410073   1.000000
    6      -10.285059   1.000000
    7      -10.232184   1.000000
    8      -10.227113   1.000000
    9      -10.116543   1.000000
   10      -10.018467   1.000000
   11       -9.921199   1.000000
   12       -9.841290   1.000000
   13       -9.562112   1.000000
   14       -9.273218   1.000000
   15       -9.197573   1.000000
   16       -8.639390   1.000000
   17       -8.364879   1.000000
   18       -8.339643   1.000000
   19       -8.252907   1.000000
   20       -8.199467   1.000000
   21       -7.948805   1.000000
   22       -7.865091   1.000000
   23       -7.832395   1.000000
   24       -7.483698   1.000000
   25       -7.370764   1.000000
   26       -7.216316   1.000000
   27       -7.124983   1.000000
   28       -7.062653   1.000000
   29       -7.061987   1.000000
   30       -6.910825   1.000000
   31       -6.046308   1.000000
   32       -6.030088   1.000000
   33       -5.653092   1.000000
   34       -5.526174   1.000000
   35       -5.455585   1.000000
   36       -5.371536   1.000000
   37       -5.351993   1.000000
   38       -5.210970   1.000000
   39       -5.157515   1.000000
   40       -5.028970   1.000000
   41       -4.899807   1.000000
   42       -4.793981   1.000000
   43       -4.546481   1.000000
   44       -4.332616   1.000000
   45       -4.308817   1.000000
   46       -4.285623   1.000000
   47       -4.152277   1.000000
   48       -4.111951   1.000000
   49       -3.912976   1.000000
   50       -3.903847   1.000000
   51       -3.647543   1.000000
   52       -3.599780   1.000000
   53       -3.531254   1.000000
   54       -3.520357   1.000000
   55       -3.437662   1.000000
   56       -3.411155   1.000000
   57       -3.258275   1.000000
   58       -3.253845   1.000000
   59       -3.218694   1.000000
   60       -3.206248   1.000000
   61       -3.092393   1.000000
   62       -3.047356   1.000000
   63       -3.027288   1.000000
   64       -3.011309   1.000000
   65       -2.877415   1.000000
   66       -2.806861   1.000000
   67       -2.754552   1.000000
   68       -2.714329   1.000000
   69       -2.650544   1.000000
   70       -2.625992   1.000000
   71       -2.613766   1.000000
   72       -2.606661   1.000000
   73       -2.567596   1.000000
   74       -2.502444   1.000000