   51   51   85    1
  0.2316787E+02  0.8645320E-09  0.6085000E-09  0.2593596E-08  0.5000000E-15
   1.0000000000000000E-004
  CAR 
 Name                                    
    191    149    128

  0.3742002E-15  0.3742002E-15  0.3742002E-15  0.3367003E-02
    1      -13.936464   1.000000
    2      -12.618190   1.000000
    3      -12.442075   1.000000
    4      -11.896138   1.000000
    5      -11.602342   1.000000
    6      -11.144751   1.000000
    7      -11.117997   1.000000
    8      -11.091303   1.000000
    9      -11.048392   1.000000
   10      -10.662133   1.000000
   11      -10.655077   1.000000
   12      -10.439636   1.000000
   13      -10.220414   1.000000
   14      -10.153816   1.000000
   15       -9.757719   1.000000
   16       -9.729419   1.000000
   17       -9.255095   1.000000
   18       -9.133546   1.000000
   19       -8.904269   1.000000
   20       -8.488990   1.000000
   21       -8.470998   1.000000
   22       -8.460545   1.000000
   23       -8.362515   1.000000
   24       -8.089535   1.000000
   25       -7.999713   1.000000
   26       -7.996576   1.000000
   27       -7.558312   1.000000
   28       -7.315511   1.000000
   29       -6.964800   1.000000
   30       -6.570943   1.000000
   31       -6.557191   1.000000
   32       -6.485680   1.000000
   33       -6.194027   1.000000
   34       -6.006568   1.000000
   35       -5.972150   1.000000
   36       -5.817697   1.000000
   37       -5.538094   1.000000
   38       -5.506608   1.000000
   39       -5.445793   1.000000
   40       -5.383217   1.000000
   41       -5.288217   1.000000
   42       -5.102203   1.000000
   43       -5.059971   1.000000
   44       -4.997923   1.000000
   45       -4.893100   1.000000
   46       -4.773171   1.000000
   47       -4.766906   1.000000
   48       -4.664238   1.000000
   49       -4.618533   1.000000
   50       -4.590581   1.000000
   51       -4.529531   1.000000
   52       -4.487668   1.000000
   53       -4.393860   1.000000
   54       -4.325717   1.000000
   55       -4.254436   1.000000
   56       -4.169814   1.000000
   57       -4.098558   1.000000
   58       -4.065978   1.000000
   59       -4.012495   1.000000
   60       -3.990784   1.000000
   61       -3.869257   1.000000
   62       -3.819150   1.000000
   63       -3.560810   1.000000
   64       -3.480645   1.000000
   65       -3.462705   1.000000
   66       -3.400647   1.000000
   67       -3.375236   1.000000
   68       -3.370473   1.000000
   69       -3.301611   1.000000
   70       -3.242674   1.000000
   71       -3.191592   1.000000
   72       -3.131531   1.000000
   73       -3.069586   1.000000
   74       -2.728486   1.000000
   75       -2.469630   1.000000
   76       -2.396954   1.000000
   77       -2.266393   1.000000
   78       -2.172388   1.000000
   79       -2.082824   1.000000
   80       -1.958643   1.000000
   81       -1.867988   1.000000
   82       -1.757942   1.000000
   83       -1.587560   1.000000
   84       -1.468953   1.000000
   85       -1.293950   1.000000
   86       -1.122794   1.000000
   87       -1.015000   1.000000
   88       -0.952674   1.000000
   89       -0.895508   1.000000
   90       -0.369824   1.000000
   91       -0.210909   1.000150
   92       -0.062638   1.030599
   93        0.022659   0.909755
   94        0.073104   0.561797
   95        0.116099   0.218368
   96        0.158913   0.013931
   97        0.181969  -0.026653
   98        0.458062  -0.000001
   99        0.539340  -0.000000
  100        0.585202  -0.000000
  101        0.616816  -0.000000
  102        0.680552  -0.000000
  103        0.699745  -0.000000
  104        0.809596  -0.000000
  105        0.905445  -0.000000
  106        0.954904  -0.000000
  107        1.056733  -0.000000
  108        1.229808  -0.000000
  109        1.330677  -0.000000
  110        1.347782  -0.000000
  111        1.447858  -0.000000
  112        1.459360  -0.000000
  113        1.487419  -0.000000
  114        1.537832  -0.000000
  115        1.681019  -0.000000
  116        1.696362  -0.000000
  117        1.728659  -0.000000
  118        1.883761  -0.000000
  119        1.911668  -0.000000
  120        1.919995  -0.000000
  121        1.965253  -0.000000
  122        2.000242  -0.000000
  123        2.039893  -0.000000
  124        2.150866  -0.000000
  125        2.196928  -0.000000
  126        2.205659  -0.000000
  127        2.348373  -0.000000
  128        2.390875  -0.000000

  0.1111111E+00  0.3729374E-15  0.3860503E-15  0.6734007E-02
    1      -13.909449   1.000000
    2      -12.594827   1.000000
    3      -12.555948   1.000000
    4      -11.837801   1.000000
    5      -11.587390   1.000000
    6      -11.167367   1.000000
    7      -11.110062   1.000000
    8      -11.083719   1.000000
    9      -11.067857   1.000000
   10      -10.658171   1.000000
   11      -10.650918   1.000000
   12      -10.442119   1.000000
   13      -10.207309   1.000000
   14      -10.147089   1.000000
   15       -9.753399   1.000000
   16       -9.719969   1.000000
   17       -9.231258   1.000000
   18       -9.149352   1.000000
   19       -8.905675   1.000000
   20       -8.505460   1.000000
   21       -8.501127   1.000000
   22       -8.473508   1.000000
   23       -8.393134   1.000000
   24       -8.048082   1.000000
   25       -8.032665   1.000000
   26       -8.011415   1.000000
   27       -7.598985   1.000000
   28       -7.392525   1.000000
   29       -6.906713   1.000000
   30       -6.546063   1.000000
   31       -6.506187   1.000000
   32       -6.435865   1.000000
   33       -6.166471   1.000000
   34       -6.020370   1.000000
   35       -5.977758   1.000000
   36       -5.796908   1.000000
   37       -5.570246   1.000000
   38       -5.523398   1.000000
   39       -5.377500   1.000000
   40       -5.346791   1.000000
   41       -5.256274   1.000000
   42       -5.201437   1.000000
   43       -5.056395   1.000000
   44       -4.990325   1.000000
   45       -4.852700   1.000000
   46       -4.786778   1.000000
   47       -4.741608   1.000000
   48       -4.662047   1.000000
   49       -4.623677   1.000000
   50       -4.570739   1.000000
   51       -4.500377   1.000000
   52       -4.479196   1.000000
   53       -4.395200   1.000000
   54       -4.294866   1.000000
   55       -4.284023   1.000000
   56       -4.177897   1.000000
   57       -4.114421   1.000000
   58       -4.082444   1.000000
   59       -4.027530   1.000000
   60       -3.967404   1.000000
   61       -3.877103   1.000000
   62       -3.789870   1.000000
   63       -3.625893   1.000000
   64       -3.480904   1.000000
   65       -3.430987   1.000000
   66       -3.393566   1.000000
   67       -3.366010   1.000000
   68       -3.349282   1.000000
   69       -3.285506   1.000000
   70       -3.261513   1.000000
   71       -3.176989   1.000000
   72       -3.163429   1.000000
   73       -3.052267   1.000000
   74       -2.782272   1.000000
   75       -2.480440   1.000000
   76       -2.397986   1.000000
   77       -2.235685   1.000000
   78       -2.228759   1.000000
   79       -2.112321   1.000000
   80       -1.983534   1.000000
   81       -1.891718   1.000000
   82       -1.658793   1.000000
   83       -1.588166   1.000000
   84       -1.491337   1.000000
   85       -1.301012   1.000000
   86       -1.101708   1.000000
   87       -1.004528   1.000000
   88       -0.934684   1.000000
   89       -0.820187   1.000000
   90       -0.436049   1.000000
   91       -0.272337   1.000004
   92       -0.049549   1.034676
   93       -0.036464   1.034940
   94        0.067421   0.609052
   95        0.108474   0.272690
   96        0.154206   0.027627
   97        0.256586  -0.015951
   98        0.442864  -0.000002
   99        0.527738  -0.000000
  100        0.565326  -0.000000
  101        0.599761  -0.000000
  102        0.693840  -0.000000
  103        0.740131  -0.000000
  104        0.821214  -0.000000
  105        0.899258  -0.000000
  106        0.984910  -0.000000
  107        1.102980  -0.000000
  108        1.285186  -0.000000
  109        1.310659  -0.000000
  110        1.382722  -0.000000
  111        1.442202  -0.000000
  112        1.476309  -0.000000
  113        1.499850  -0.000000
  114        1.563662  -0.000000
  115        1.670740  -0.000000
  116        1.674818  -0.000000
  117        1.716114  -0.000000
  118        1.879472  -0.000000
  119        1.908342  -0.000000
  120        1.921472  -0.000000
  121        1.959146  -0.000000
  122        1.994727  -0.000000
  123        2.029504  -0.000000
  124        2.139955  -0.000000
  125        2.179288  -0.000000
  126        2.199052  -0.000000
  127        2.309417  -0.000000
  128        2.359026  -0.000000

  0.2222222E+00  0.3922785E-15  0.3630220E-15  0.6734007E-02
    1      -13.829171   1.000000
    2      -12.795143   1.000000
    3      -12.517975   1.000000
    4      -11.796349   1.000000
    5      -11.544358   1.000000
    6      -11.241792   1.000000
    7      -11.095181   1.000000
    8      -11.086828   1.000000
    9      -11.022853   1.000000
   10      -10.646226   1.000000
   11      -10.638357   1.000000
   12      -10.481651   1.000000
   13      -10.176673   1.000000
   14      -10.134176   1.000000
   15       -9.739776   1.000000
   16       -9.687565   1.000000
   17       -9.190217   1.000000
   18       -9.156394   1.000000
   19       -8.892569   1.000000
   20       -8.619386   1.000000
   21       -8.599009   1.000000
   22       -8.467295   1.000000
   23       -8.426982   1.000000
   24       -8.120315   1.000000
   25       -8.116454   1.000000
   26       -7.849855   1.000000
   27       -7.766762   1.000000
   28       -7.422666   1.000000
   29       -6.855507   1.000000
   30       -6.502654   1.000000
   31       -6.436408   1.000000
   32       -6.270064   1.000000
   33       -6.187239   1.000000
   34       -6.093950   1.000000
   35       -5.899175   1.000000
   36       -5.725466   1.000000
   37       -5.553954   1.000000
   38       -5.538389   1.000000
   39       -5.475214   1.000000
   40       -5.253547   1.000000
   41       -5.158771   1.000000
   42       -5.110680   1.000000
   43       -5.030638   1.000000
   44       -4.966034   1.000000
   45       -4.945696   1.000000
   46       -4.899077   1.000000
   47       -4.647515   1.000000
   48       -4.632083   1.000000
   49       -4.589486   1.000000
   50       -4.563901   1.000000
   51       -4.506969   1.000000
   52       -4.438561   1.000000
   53       -4.373136   1.000000
   54       -4.330380   1.000000
   55       -4.233643   1.000000
   56       -4.171683   1.000000
   57       -4.128922   1.000000
   58       -4.106777   1.000000
   59       -4.031093   1.000000
   60       -3.929074   1.000000
   61       -3.884217   1.000000
   62       -3.746013   1.000000
   63       -3.717246   1.000000
   64       -3.516580   1.000000
   65       -3.446640   1.000000
   66       -3.417542   1.000000
   67       -3.360051   1.000000
   68       -3.330014   1.000000
   69       -3.320046   1.000000
   70       -3.231749   1.000000
   71       -3.178667   1.000000
   72       -3.102113   1.000000
   73       -2.969515   1.000000
   74       -2.884809   1.000000
   75       -2.525288   1.000000
   76       -2.414202   1.000000
   77       -2.349152   1.000000
   78       -2.212748   1.000000
   79       -2.202248   1.000000
   80       -1.998048   1.000000
   81       -1.932544   1.000000
   82       -1.626646   1.000000
   83       -1.529537   1.000000
   84       -1.417939   1.000000
   85       -1.340605   1.000000
   86       -1.052187   1.000000
   87       -0.966301   1.000000
   88       -0.895901   1.000000
   89       -0.587745   1.000000
   90       -0.567851   1.000000
   91       -0.415748   1.000000
   92       -0.221354   1.000085
   93       -0.058315   1.032222
   94        0.038694   0.821386
   95        0.137798   0.092137
   96        0.228190  -0.028637
   97        0.323613  -0.001562
   98        0.413715  -0.000013
   99        0.425986  -0.000006
  100        0.554699  -0.000000
  101        0.623314  -0.000000
  102        0.712330  -0.000000
  103        0.755543  -0.000000
  104        0.874089  -0.000000
  105        0.944339  -0.000000
  106        1.133816  -0.000000
  107        1.205762  -0.000000
  108        1.237399  -0.000000
  109        1.390508  -0.000000
  110        1.426931  -0.000000
  111        1.445689  -0.000000
  112        1.519136  -0.000000
  113        1.528127  -0.000000
  114        1.600179  -0.000000
  115        1.626465  -0.000000
  116        1.653613  -0.000000
  117        1.717225  -0.000000
  118        1.857905  -0.000000
  119        1.897762  -0.000000
  120        1.903421  -0.000000
  121        1.934726  -0.000000
  122        1.974394  -0.000000
  123        2.016333  -0.000000
  124        2.091085  -0.000000
  125        2.149542  -0.000000
  126        2.187186  -0.000000
  127        2.241502  -0.000000
  128        2.295720  -0.000000

  0.3333333E+00  0.3713828E-15  0.3468587E-15  0.6734007E-02
    1      -13.698006   1.000000
    2      -13.054885   1.000000
    3      -12.398730   1.000000
    4      -11.885197   1.000000
    5      -11.481535   1.000000
    6      -11.287507   1.000000
    7      -11.081025   1.000000
    8      -11.077903   1.000000
    9      -10.939180   1.000000
   10      -10.631119   1.000000
   11      -10.621384   1.000000
   12      -10.572002   1.000000
   13      -10.148647   1.000000
   14      -10.128112   1.000000
   15       -9.716079   1.000000
   16       -9.628459   1.000000
   17       -9.213304   1.000000
   18       -9.090866   1.000000
   19       -8.843261   1.000000
   20       -8.758585   1.000000
   21       -8.725828   1.000000
   22       -8.459234   1.000000
   23       -8.437595   1.000000
   24       -8.210741   1.000000
   25       -8.200562   1.000000
   26       -8.024858   1.000000
   27       -7.591715   1.000000
   28       -7.332975   1.000000
   29       -6.897301   1.000000
   30       -6.522689   1.000000
   31       -6.445193   1.000000
   32       -6.367515   1.000000
   33       -6.081618   1.000000
   34       -5.973532   1.000000
   35       -5.776222   1.000000
   36       -5.689260   1.000000
   37       -5.565520   1.000000
   38       -5.460929   1.000000
   39       -5.428089   1.000000
   40       -5.194536   1.000000
   41       -5.161769   1.000000
   42       -5.130557   1.000000
   43       -5.074760   1.000000
   44       -4.978377   1.000000
   45       -4.920369   1.000000
   46       -4.834501   1.000000
   47       -4.650846   1.000000
   48       -4.612872   1.000000
   49       -4.586841   1.000000
   50       -4.525210   1.000000
   51       -4.483806   1.000000
   52       -4.457769   1.000000
   53       -4.318555   1.000000
   54       -4.289680   1.000000
   55       -4.216037   1.000000
   56       -4.193673   1.000000
   57       -4.123105   1.000000
   58       -4.056921   1.000000
   59       -4.018100   1.000000
   60       -3.929639   1.000000
   61       -3.864472   1.000000
   62       -3.803234   1.000000
   63       -3.687051   1.000000
   64       -3.681253   1.000000
   65       -3.475738   1.000000
   66       -3.454221   1.000000
   67       -3.375544   1.000000
   68       -3.346541   1.000000
   69       -3.293683   1.000000
   70       -3.205094   1.000000
   71       -3.177588   1.000000
   72       -2.989897   1.000000
   73       -2.915495   1.000000
   74       -2.840082   1.000000
   75       -2.616518   1.000000
   76       -2.490053   1.000000
   77       -2.469279   1.000000
   78       -2.330054   1.000000
   79       -2.231348   1.000000
   80       -2.041616   1.000000
   81       -1.878332   1.000000
   82       -1.664504   1.000000
   83       -1.548699   1.000000
   84       -1.433424   1.000000
   85       -1.161715   1.000000
   86       -0.989626   1.000000
   87       -0.874867   1.000000
   88       -0.773889   1.000000
   89       -0.715214   1.000000
   90       -0.566230   1.000000
   91       -0.417870   1.000000
   92       -0.269712   1.000004
   93       -0.188767   1.000471
   94       -0.035453   1.034726
   95        0.153922   0.028518
   96        0.237678  -0.024339
   97        0.320642  -0.001773
   98        0.352061  -0.000417
   99        0.402860  -0.000025
  100        0.616276  -0.000000
  101        0.667851  -0.000000
  102        0.692415  -0.000000
  103        0.904926  -0.000000
  104        0.918325  -0.000000
  105        1.054693  -0.000000
  106        1.071078  -0.000000
  107        1.325404  -0.000000
  108        1.348426  -0.000000
  109        1.423965  -0.000000
  110        1.453360  -0.000000
  111        1.487651  -0.000000
  112        1.539133  -0.000000
  113        1.556621  -0.000000
  114        1.575145  -0.000000
  115        1.599289  -0.000000
  116        1.684248  -0.000000
  117        1.748819  -0.000000
  118        1.815080  -0.000000
  119        1.847231  -0.000000
  120        1.875700  -0.000000
  121        1.906703  -0.000000
  122        1.970714  -0.000000
  123        2.008630  -0.000000
  124        2.023818  -0.000000
  125        2.038046  -0.000000
  126        2.095280  -0.000000
  127        2.208208  -0.000000
  128        2.220109  -0.000000

  0.4444444E+00  0.3870091E-15  0.3932070E-15  0.6734007E-02
    1      -13.520222   1.000000
    2      -13.302287   1.000000
    3      -12.244007   1.000000
    4      -12.052786   1.000000
    5      -11.422764   1.000000
    6      -11.311938   1.000000
    7      -11.072308   1.000000
    8      -11.070988   1.000000
    9      -10.831074   1.000000
   10      -10.704106   1.000000
   11      -10.611673   1.000000
   12      -10.601714   1.000000
   13      -10.136309   1.000000
   14      -10.130475   1.000000
   15       -9.692471   1.000000
   16       -9.567904   1.000000
   17       -9.219190   1.000000
   18       -9.065754   1.000000
   19       -8.899867   1.000000
   20       -8.860813   1.000000
   21       -8.643550   1.000000
   22       -8.458972   1.000000
   23       -8.435797   1.000000
   24       -8.284588   1.000000
   25       -8.253538   1.000000
   26       -8.234644   1.000000
   27       -7.333215   1.000000
   28       -7.170999   1.000000
   29       -7.005681   1.000000
   30       -6.816446   1.000000
   31       -6.451750   1.000000
   32       -6.360652   1.000000
   33       -6.013180   1.000000
   34       -5.781971   1.000000
   35       -5.682602   1.000000
   36       -5.612508   1.000000
   37       -5.503028   1.000000
   38       -5.445359   1.000000
   39       -5.384460   1.000000
   40       -5.316768   1.000000
   41       -5.296000   1.000000
   42       -5.166945   1.000000
   43       -5.118587   1.000000
   44       -4.856999   1.000000
   45       -4.822771   1.000000
   46       -4.730941   1.000000
   47       -4.691746   1.000000
   48       -4.635316   1.000000
   49       -4.595134   1.000000
   50       -4.536162   1.000000
   51       -4.462195   1.000000
   52       -4.401670   1.000000
   53       -4.327245   1.000000
   54       -4.247895   1.000000
   55       -4.237601   1.000000
   56       -4.134725   1.000000
   57       -4.101233   1.000000
   58       -4.052420   1.000000
   59       -4.007491   1.000000
   60       -3.902402   1.000000
   61       -3.886423   1.000000
   62       -3.843651   1.000000
   63       -3.795382   1.000000
   64       -3.650670   1.000000
   65       -3.561736   1.000000
   66       -3.450302   1.000000
   67       -3.422459   1.000000
   68       -3.331210   1.000000
   69       -3.264622   1.000000
   70       -3.194991   1.000000
   71       -3.183486   1.000000
   72       -2.895135   1.000000
   73       -2.840745   1.000000
   74       -2.745275   1.000000
   75       -2.670905   1.000000
   76       -2.626178   1.000000
   77       -2.548530   1.000000
   78       -2.457302   1.000000
   79       -2.201930   1.000000
   80       -2.126576   1.000000
   81       -1.845341   1.000000
   82       -1.642533   1.000000
   83       -1.550348   1.000000
   84       -1.487139   1.000000
   85       -1.001659   1.000000
   86       -0.923162   1.000000
   87       -0.858571   1.000000
   88       -0.812979   1.000000
   89       -0.637538   1.000000
   90       -0.571654   1.000000
   91       -0.495620   1.000000
   92       -0.335864   1.000000
   93       -0.152008   1.002448
   94       -0.085200   1.020489
   95        0.076939   0.529513
   96        0.230681  -0.027539
   97        0.288634  -0.006078
   98        0.317143  -0.002053
   99        0.592418  -0.000000
  100        0.606818  -0.000000
  101        0.650830  -0.000000
  102        0.667198  -0.000000
  103        0.844103  -0.000000
  104        0.940165  -0.000000
  105        1.216884  -0.000000
  106        1.249600  -0.000000
  107        1.335068  -0.000000
  108        1.429784  -0.000000
  109        1.451852  -0.000000
  110        1.491647  -0.000000
  111        1.526757  -0.000000
  112        1.546480  -0.000000
  113        1.557572  -0.000000
  114        1.580709  -0.000000
  115        1.611675  -0.000000
  116        1.634195  -0.000000
  117        1.740619  -0.000000
  118        1.760443  -0.000000
  119        1.768863  -0.000000
  120        1.810071  -0.000000
  121        1.834188  -0.000000
  122        1.866617  -0.000000
  123        1.977441  -0.000000
  124        2.042285  -0.000000
  125        2.094253  -0.000000
  126        2.123055  -0.000000
  127        2.175807  -0.000000
  128        2.205052  -0.000000

  0.3742002E-15  0.9090909E-01  0.3596334E-15  0.6734007E-02
    1      -13.903293   1.000000
    2      -12.588243   1.000000
    3      -12.447065   1.000000
    4      -11.864090   1.000000
    5      -11.580971   1.000000
    6      -11.308799   1.000000
    7      -11.257284   1.000000
    8      -11.085449   1.000000
    9      -11.063594   1.000000
   10      -10.663219   1.000000
   11      -10.635591   1.000000
   12      -10.420992   1.000000
   13      -10.170288   1.000000
   14      -10.102616   1.000000
   15       -9.782384   1.000000
   16       -9.725613   1.000000
   17       -9.230675   1.000000
   18       -9.146232   1.000000
   19       -8.960876   1.000000
   20       -8.603999   1.000000
   21       -8.551714   1.000000
   22       -8.297193   1.000000
   23       -8.192563   1.000000
   24       -8.034767   1.000000
   25       -7.858755   1.000000
   26       -7.824423   1.000000
   27       -7.553368   1.000000
   28       -7.355422   1.000000
   29       -6.940492   1.000000
   30       -6.610048   1.000000
   31       -6.528212   1.000000
   32       -6.470335   1.000000
   33       -6.175871   1.000000
   34       -6.058922   1.000000
   35       -5.915048   1.000000
   36       -5.798242   1.000000
   37       -5.620135   1.000000
   38       -5.544519   1.000000
   39       -5.373795   1.000000
   40       -5.335877   1.000000
   41       -5.279362   1.000000
   42       -5.235858   1.000000
   43       -5.082943   1.000000
   44       -5.006706   1.000000
   45       -4.918317   1.000000
   46       -4.827817   1.000000
   47       -4.775642   1.000000
   48       -4.753811   1.000000
   49       -4.665614   1.000000
   50       -4.599863   1.000000
   51       -4.576743   1.000000
   52       -4.491676   1.000000
   53       -4.427120   1.000000
   54       -4.342718   1.000000
   55       -4.251955   1.000000
   56       -4.192445   1.000000
   57       -4.106858   1.000000
   58       -4.065402   1.000000
   59       -4.009078   1.000000
   60       -3.951477   1.000000
   61       -3.934492   1.000000
   62       -3.814060   1.000000
   63       -3.569865   1.000000
   64       -3.524670   1.000000
   65       -3.435706   1.000000
   66       -3.426825   1.000000
   67       -3.336676   1.000000
   68       -3.321166   1.000000
   69       -3.294702   1.000000
   70       -3.237719   1.000000
   71       -3.201088   1.000000
   72       -3.064764   1.000000
   73       -3.046909   1.000000
   74       -2.903384   1.000000
   75       -2.431782   1.000000
   76       -2.378340   1.000000
   77       -2.249349   1.000000
   78       -2.170508   1.000000
   79       -2.080736   1.000000
   80       -1.973202   1.000000
   81       -1.848970   1.000000
   82       -1.695146   1.000000
   83       -1.600367   1.000000
   84       -1.433753   1.000000
   85       -1.322590   1.000000
   86       -1.127088   1.000000
   87       -1.019595   1.000000
   88       -1.000984   1.000000
   89       -0.935310   1.000000
   90       -0.502507   1.000000
   91       -0.287049   1.000001
   92       -0.157279   1.001970
   93       -0.076720   1.024386
   94        0.012895   0.950964
   95        0.082732   0.480506
   96        0.119226   0.197458
   97        0.208343  -0.035035
   98        0.377768  -0.000108
   99        0.451471  -0.000001
  100        0.544847  -0.000000
  101        0.657592  -0.000000
  102        0.728121  -0.000000
  103        0.798068  -0.000000
  104        0.960532  -0.000000
  105        0.974223  -0.000000
  106        0.991538  -0.000000
  107        1.096278  -0.000000
  108        1.241866  -0.000000
  109        1.348081  -0.000000
  110        1.364407  -0.000000
  111        1.440889  -0.000000
  112        1.451155  -0.000000
  113        1.491608  -0.000000
  114        1.554197  -0.000000
  115        1.668352  -0.000000
  116        1.696230  -0.000000
  117        1.728599  -0.000000
  118        1.809193  -0.000000
  119        1.846919  -0.000000
  120        1.949837  -0.000000
  121        1.977338  -0.000000
  122        2.017019  -0.000000
  123        2.079793  -0.000000
  124        2.092104  -0.000000
  125        2.182752  -0.000000
  126        2.209655  -0.000000
  127        2.336473  -0.000000
  128        2.373039  -0.000000

  0.1111111E+00  0.9090909E-01  0.4822234E-15  0.6734007E-02
    1      -13.854451   1.000000
    2      -12.629359   1.000000
    3      -12.541374   1.000000
    4      -11.791595   1.000000
    5      -11.553816   1.000000
    6      -11.354868   1.000000
    7      -11.202716   1.000000
    8      -11.158622   1.000000
    9      -11.039417   1.000000
   10      -10.665690   1.000000
   11      -10.574125   1.000000
   12      -10.432061   1.000000
   13      -10.183092   1.000000
   14      -10.125236   1.000000
   15       -9.769326   1.000000
   16       -9.692218   1.000000
   17       -9.204740   1.000000
   18       -9.143453   1.000000
   19       -8.953756   1.000000
   20       -8.658283   1.000000
   21       -8.592262   1.000000
   22       -8.365192   1.000000
   23       -8.236511   1.000000
   24       -7.927367   1.000000
   25       -7.904719   1.000000
   26       -7.847254   1.000000
   27       -7.654273   1.000000
   28       -7.405993   1.000000
   29       -6.888908   1.000000
   30       -6.629639   1.000000
   31       -6.422035   1.000000
   32       -6.357276   1.000000
   33       -6.142848   1.000000
   34       -6.065194   1.000000
   35       -5.961643   1.000000
   36       -5.761509   1.000000
   37       -5.670643   1.000000
   38       -5.448592   1.000000
   39       -5.406333   1.000000
   40       -5.331377   1.000000
   41       -5.249186   1.000000
   42       -5.179761   1.000000
   43       -5.094348   1.000000
   44       -5.010836   1.000000
   45       -4.979810   1.000000
   46       -4.845187   1.000000
   47       -4.718472   1.000000
   48       -4.672563   1.000000
   49       -4.635393   1.000000
   50       -4.590241   1.000000
   51       -4.505222   1.000000
   52       -4.482298   1.000000
   53       -4.417595   1.000000
   54       -4.367932   1.000000
   55       -4.265065   1.000000
   56       -4.223062   1.000000
   57       -4.141531   1.000000
   58       -4.096278   1.000000
   59       -3.996339   1.000000
   60       -3.939713   1.000000
   61       -3.905999   1.000000
   62       -3.774392   1.000000
   63       -3.607709   1.000000
   64       -3.528024   1.000000
   65       -3.481265   1.000000
   66       -3.477083   1.000000
   67       -3.350526   1.000000
   68       -3.310225   1.000000
   69       -3.227305   1.000000
   70       -3.216382   1.000000
   71       -3.172755   1.000000
   72       -3.105012   1.000000
   73       -3.035454   1.000000
   74       -2.934439   1.000000
   75       -2.483720   1.000000
   76       -2.399714   1.000000
   77       -2.257981   1.000000
   78       -2.227336   1.000000
   79       -2.091219   1.000000
   80       -2.007949   1.000000
   81       -1.914317   1.000000
   82       -1.651630   1.000000
   83       -1.550206   1.000000
   84       -1.445367   1.000000
   85       -1.349194   1.000000
   86       -1.118465   1.000000
   87       -0.970936   1.000000
   88       -0.924280   1.000000
   89       -0.809853   1.000000
   90       -0.592391   1.000000
   91       -0.301827   1.000000
   92       -0.204468   1.000212
   93       -0.089240   1.018692
   94        0.001543   0.987141
   95        0.087282   0.442149
   96        0.192750  -0.033642
   97        0.222022  -0.031175
   98        0.315115  -0.002233
   99        0.410907  -0.000015
  100        0.568789  -0.000000
  101        0.651599  -0.000000
  102        0.776482  -0.000000
  103        0.797958  -0.000000
  104        0.909174  -0.000000
  105        0.983920  -0.000000
  106        1.025069  -0.000000
  107        1.202755  -0.000000
  108        1.289122  -0.000000
  109        1.325723  -0.000000
  110        1.344372  -0.000000
  111        1.467022  -0.000000
  112        1.493630  -0.000000
  113        1.536437  -0.000000
  114        1.594828  -0.000000
  115        1.646362  -0.000000
  116        1.676239  -0.000000
  117        1.691114  -0.000000
  118        1.809470  -0.000000
  119        1.859124  -0.000000
  120        1.921726  -0.000000
  121        1.980853  -0.000000
  122        2.002002  -0.000000