   57   57   85    1
  0.1247157E+02  0.6078000E-09  0.6078000E-09  0.2222000E-08  0.5000000E-15
   1.0000000000000000E-004
  CAR 
 Name                                    
    201     41    132

  0.3742002E-15  0.3742002E-15  0.1262379E-14  0.1234568E-01
    1      -11.051562   1.000000
    2      -10.479942   1.000000
    3       -9.735877   1.000000
    4       -9.031892   1.000000
    5       -8.164935   1.000000
    6       -8.066918   1.000000
    7       -7.700199   1.000000
    8       -7.562990   1.000000
    9       -7.293265   1.000000
   10       -7.272731   1.000000
   11       -7.267732   1.000000
   12       -7.190754   1.000000
   13       -7.163126   1.000000
   14       -7.109518   1.000000
   15       -6.962979   1.000000
   16       -6.911542   1.000000
   17       -6.878186   1.000000
   18       -6.804537   1.000000
   19       -6.776760   1.000000
   20       -6.530083   1.000000
   21       -6.493706   1.000000
   22       -6.310053   1.000000
   23       -5.824945   1.000000
   24       -5.663524   1.000000
   25       -5.591980   1.000000
   26       -5.409170   1.000000
   27       -5.343959   1.000000
   28       -5.319028   1.000000
   29       -5.244329   1.000000
   30       -5.239080   1.000000
   31       -4.759101   1.000000
   32       -4.233402   1.000000
   33       -4.115481   1.000000
   34       -4.098292   1.000000
   35       -4.048690   1.000000
   36       -3.914125   1.000000
   37       -3.719059   1.000000
   38       -3.037843   1.000000
   39       -2.759374   1.000000
   40       -2.753162   1.000000
   41       -2.663901   1.000000
   42       -2.301181   1.000000
   43       -2.251616   1.000000
   44       -2.107670   1.000000
   45       -2.035596   1.000000
   46       -1.995439   1.000000
   47       -1.957470   1.000000
   48       -1.935813   1.000000
   49       -1.647393   1.000000
   50       -1.553352   1.000000
   51       -1.526622   1.000000
   52       -1.423955   1.000000
   53       -1.415627   1.000000
   54       -1.316251   1.000000
   55       -1.297926   1.000000
   56       -1.196095   1.000000
   57       -1.149441   1.000000
   58       -1.068534   1.000000
   59       -1.005046   1.000000
   60       -0.944252   1.000000
   61       -0.879471   1.000000
   62       -0.875660   1.000000
   63       -0.772399   1.000000
   64       -0.733510   1.000000
   65       -0.580318   1.000000
   66       -0.562525   1.000000
   67       -0.553967   1.000000
   68       -0.431491   1.000000
   69       -0.373300   1.000000
   70       -0.342970   1.000000
   71       -0.228182   1.000000
   72       -0.189644   1.000000
   73       -0.163671   1.000000
   74        0.033132   1.000000
   75        0.101695   1.000000
   76        0.270657   1.000000
   77        0.271761   1.000000
   78        0.404662   1.000000
   79        0.505961   1.000000
   80        0.621079   1.000000
   81        0.735893   1.000000
   82        0.841651   1.000000
   83        0.899506   1.000000
   84        1.168041   1.000000
   85        1.386857   1.000000
   86        1.469249   1.000000
   87        1.640942   1.000000
   88        1.702802   1.000000
   89        1.806901   1.000000
   90        1.924302   1.000000
   91        2.003072   1.000000
   92        2.069229   1.000000
   93        2.093972   1.000000
   94        2.104210   1.000000
   95        2.219244   1.000000
   96        2.239235   1.000000
   97        2.500138   1.000329
   98        2.518535   1.000520
   99        3.127518   0.207163
  100        3.172136   0.081609
  101        3.195901   0.034924
  102        3.257797  -0.027504
  103        3.414474  -0.014123
  104        3.443241  -0.009309
  105        3.523408  -0.002179
  106        3.642330  -0.000125
  107        3.747212  -0.000005
  108        3.996905  -0.000000
  109        4.035963  -0.000000
  110        4.058775  -0.000000
  111        4.097313  -0.000000
  112        4.116497  -0.000000
  113        4.136256  -0.000000
  114        4.191839  -0.000000
  115        4.232260  -0.000000
  116        4.269164  -0.000000
  117        4.276875  -0.000000
  118        4.335842  -0.000000
  119        4.410567  -0.000000
  120        4.448351  -0.000000
  121        4.506600  -0.000000
  122        4.512714  -0.000000
  123        4.549551  -0.000000
  124        4.586309  -0.000000
  125        4.591175  -0.000000
  126        4.737787  -0.000000
  127        4.760208  -0.000000
  128        4.789643  -0.000000
  129        4.887634  -0.000000
  130        4.989817  -0.000000
  131        5.215249  -0.000000
  132        5.323069  -0.000000

  0.1111111E+00  0.3756941E-15  0.1262379E-14  0.2469136E-01
    1      -10.994224   1.000000
    2      -10.427430   1.000000
    3       -9.692244   1.000000
    4       -8.998718   1.000000
    5       -8.133673   1.000000
    6       -8.087287   1.000000
    7       -7.839154   1.000000
    8       -7.829377   1.000000
    9       -7.572997   1.000000
   10       -7.417097   1.000000
   11       -7.392170   1.000000
   12       -7.375273   1.000000
   13       -7.331210   1.000000
   14       -7.320623   1.000000
   15       -7.069411   1.000000
   16       -6.869840   1.000000
   17       -6.663592   1.000000
   18       -6.610077   1.000000
   19       -6.425279   1.000000
   20       -6.332907   1.000000
   21       -6.241308   1.000000
   22       -6.096759   1.000000
   23       -5.840964   1.000000
   24       -5.622219   1.000000
   25       -5.581076   1.000000
   26       -5.406697   1.000000
   27       -5.314792   1.000000
   28       -5.297322   1.000000
   29       -5.177448   1.000000
   30       -5.112694   1.000000
   31       -4.704038   1.000000
   32       -4.118600   1.000000
   33       -4.004129   1.000000
   34       -3.993731   1.000000
   35       -3.944532   1.000000
   36       -3.772608   1.000000
   37       -3.623227   1.000000
   38       -3.023204   1.000000
   39       -2.778141   1.000000
   40       -2.723618   1.000000
   41       -2.681640   1.000000
   42       -2.429540   1.000000
   43       -2.244563   1.000000
   44       -2.184828   1.000000
   45       -2.106517   1.000000
   46       -2.068408   1.000000
   47       -1.990372   1.000000
   48       -1.947487   1.000000
   49       -1.759378   1.000000
   50       -1.683647   1.000000
   51       -1.518743   1.000000
   52       -1.479999   1.000000
   53       -1.442087   1.000000
   54       -1.372655   1.000000
   55       -1.261678   1.000000
   56       -1.182665   1.000000
   57       -1.150977   1.000000
   58       -1.097805   1.000000
   59       -1.001414   1.000000
   60       -0.952381   1.000000
   61       -0.915087   1.000000
   62       -0.857341   1.000000
   63       -0.835225   1.000000
   64       -0.750974   1.000000
   65       -0.632038   1.000000
   66       -0.602090   1.000000
   67       -0.577155   1.000000
   68       -0.515351   1.000000
   69       -0.394632   1.000000
   70       -0.347421   1.000000
   71       -0.271751   1.000000
   72       -0.196557   1.000000
   73       -0.108016   1.000000
   74       -0.021269   1.000000
   75        0.068164   1.000000
   76        0.115335   1.000000
   77        0.316639   1.000000
   78        0.384891   1.000000
   79        0.455177   1.000000
   80        0.623051   1.000000
   81        0.654022   1.000000
   82        0.788857   1.000000
   83        0.816729   1.000000
   84        1.100920   1.000000
   85        1.375186   1.000000
   86        1.491823   1.000000
   87        1.521063   1.000000
   88        1.551520   1.000000
   89        1.599653   1.000000
   90        1.841500   1.000000
   91        1.915309   1.000000
   92        1.998229   1.000000
   93        2.038998   1.000000
   94        2.055437   1.000000
   95        2.221818   1.000000
   96        2.379364   1.000010
   97        2.572293   1.001768
   98        2.773970   1.031974
   99        3.026669   0.609764
  100        3.146093   0.149038
  101        3.202646   0.024190
  102        3.286473  -0.034924
  103        3.365782  -0.024703
  104        3.426058  -0.012026
  105        3.669496  -0.000058
  106        3.761437  -0.000003
  107        3.858179  -0.000000
  108        3.989004  -0.000000
  109        4.012290  -0.000000
  110        4.042090  -0.000000
  111        4.062435  -0.000000
  112        4.113999  -0.000000
  113        4.124505  -0.000000
  114        4.171156  -0.000000
  115        4.220949  -0.000000
  116        4.265235  -0.000000
  117        4.284679  -0.000000
  118        4.321105  -0.000000
  119        4.366297  -0.000000
  120        4.436019  -0.000000
  121        4.455675  -0.000000
  122        4.478755  -0.000000
  123        4.518832  -0.000000
  124        4.550409  -0.000000
  125        4.606098  -0.000000
  126        4.654005  -0.000000
  127        4.742593  -0.000000
  128        4.783928  -0.000000
  129        4.889131  -0.000000
  130        4.995657  -0.000000
  131        5.233441  -0.000000
  132        5.259308  -0.000000

  0.2222222E+00  0.3503827E-15  0.1262379E-14  0.2469136E-01
    1      -10.824160   1.000000
    2      -10.272194   1.000000
    3       -9.564488   1.000000
    4       -8.902126   1.000000
    5       -8.492955   1.000000
    6       -8.259071   1.000000
    7       -8.198407   1.000000
    8       -8.010730   1.000000
    9       -7.657893   1.000000
   10       -7.651779   1.000000
   11       -7.597847   1.000000
   12       -7.578354   1.000000
   13       -7.532722   1.000000
   14       -7.472356   1.000000
   15       -7.357524   1.000000
   16       -6.959101   1.000000
   17       -6.469253   1.000000
   18       -6.303537   1.000000
   19       -6.197635   1.000000
   20       -6.133079   1.000000
   21       -5.991611   1.000000
   22       -5.841269   1.000000
   23       -5.533470   1.000000
   24       -5.450596   1.000000
   25       -5.389348   1.000000
   26       -5.266110   1.000000
   27       -5.173973   1.000000
   28       -5.143323   1.000000
   29       -4.855352   1.000000
   30       -4.747071   1.000000
   31       -4.537549   1.000000
   32       -4.001906   1.000000
   33       -3.816852   1.000000
   34       -3.777919   1.000000
   35       -3.661424   1.000000
   36       -3.413518   1.000000
   37       -3.225450   1.000000
   38       -3.001802   1.000000
   39       -2.836177   1.000000
   40       -2.817208   1.000000
   41       -2.732667   1.000000
   42       -2.671689   1.000000
   43       -2.557928   1.000000
   44       -2.523918   1.000000
   45       -2.196806   1.000000
   46       -2.132521   1.000000
   47       -2.054192   1.000000
   48       -1.944907   1.000000
   49       -1.871405   1.000000
   50       -1.704530   1.000000
   51       -1.636436   1.000000
   52       -1.559073   1.000000
   53       -1.471015   1.000000
   54       -1.441816   1.000000
   55       -1.372590   1.000000
   56       -1.349208   1.000000
   57       -1.272795   1.000000
   58       -1.166000   1.000000
   59       -1.042950   1.000000
   60       -1.007341   1.000000
   61       -0.968469   1.000000
   62       -0.927707   1.000000
   63       -0.881588   1.000000
   64       -0.801208   1.000000
   65       -0.792155   1.000000
   66       -0.707777   1.000000
   67       -0.633560   1.000000
   68       -0.562142   1.000000
   69       -0.542767   1.000000
   70       -0.457955   1.000000
   71       -0.367709   1.000000
   72       -0.325688   1.000000
   73       -0.155483   1.000000
   74       -0.071862   1.000000
   75        0.003147   1.000000
   76        0.073686   1.000000
   77        0.128209   1.000000
   78        0.220247   1.000000
   79        0.485639   1.000000
   80        0.521182   1.000000
   81        0.670157   1.000000
   82        0.771049   1.000000
   83        0.840306   1.000000
   84        0.936657   1.000000
   85        1.182601   1.000000
   86        1.244076   1.000000
   87        1.307613   1.000000
   88        1.483893   1.000000
   89        1.545612   1.000000
   90        1.728170   1.000000
   91        1.807815   1.000000
   92        1.816889   1.000000
   93        1.979086   1.000000
   94        2.001440   1.000000
   95        2.200693   1.000000
   96        2.393089   1.000016
   97        2.500057   1.000329
   98        2.767419   1.030737
   99        2.916032   0.954207
  100        3.187463   0.049896
  101        3.246774  -0.021676
  102        3.405587  -0.015867
  103        3.551058  -0.001205
  104        3.628421  -0.000182
  105        3.710049  -0.000017
  106        3.760215  -0.000003
  107        3.832532  -0.000000
  108        3.850273  -0.000000
  109        3.905528  -0.000000
  110        3.936690  -0.000000
  111        3.974226  -0.000000
  112        4.040609  -0.000000
  113        4.104975  -0.000000
  114        4.169776  -0.000000
  115        4.189118  -0.000000
  116        4.208541  -0.000000
  117        4.251168  -0.000000
  118        4.315310  -0.000000
  119        4.344929  -0.000000
  120        4.368797  -0.000000
  121        4.432364  -0.000000
  122        4.448148  -0.000000
  123        4.534987  -0.000000
  124        4.558023  -0.000000
  125        4.607818  -0.000000
  126        4.688960  -0.000000
  127        4.723790  -0.000000
  128        4.820780  -0.000000
  129        4.848106  -0.000000
  130        4.949318  -0.000000
  131        5.074547  -0.000000
  132        5.223990  -0.000000

  0.3333333E+00  0.3779629E-15  0.1262379E-14  0.2469136E-01
    1      -10.547872   1.000000
    2      -10.021753   1.000000
    3       -9.363231   1.000000
    4       -9.111641   1.000000
    5       -8.770428   1.000000
    6       -8.729554   1.000000
    7       -8.436547   1.000000
    8       -7.848450   1.000000
    9       -7.812220   1.000000
   10       -7.773457   1.000000
   11       -7.755070   1.000000
   12       -7.744708   1.000000
   13       -7.675412   1.000000
   14       -7.600095   1.000000
   15       -7.510928   1.000000
   16       -7.021443   1.000000
   17       -6.836810   1.000000
   18       -6.249747   1.000000
   19       -5.951894   1.000000
   20       -5.934584   1.000000
   21       -5.582313   1.000000
   22       -5.525984   1.000000
   23       -5.365194   1.000000
   24       -5.293289   1.000000
   25       -5.256394   1.000000
   26       -5.088769   1.000000
   27       -4.621489   1.000000
   28       -4.538141   1.000000
   29       -4.484433   1.000000
   30       -4.284528   1.000000
   31       -4.161405   1.000000
   32       -3.813329   1.000000
   33       -3.569935   1.000000
   34       -3.503767   1.000000
   35       -3.395429   1.000000
   36       -3.259149   1.000000
   37       -3.190247   1.000000
   38       -3.147655   1.000000
   39       -3.089789   1.000000
   40       -3.046605   1.000000
   41       -3.008604   1.000000
   42       -2.884742   1.000000
   43       -2.619605   1.000000
   44       -2.416416   1.000000
   45       -2.267258   1.000000
   46       -2.216420   1.000000
   47       -2.087649   1.000000
   48       -2.037685   1.000000
   49       -1.954836   1.000000
   50       -1.854676   1.000000
   51       -1.771953   1.000000
   52       -1.690820   1.000000
   53       -1.635096   1.000000
   54       -1.597792   1.000000
   55       -1.517385   1.000000
   56       -1.460987   1.000000
   57       -1.402298   1.000000
   58       -1.333335   1.000000
   59       -1.178347   1.000000
   60       -1.138476   1.000000
   61       -1.095203   1.000000
   62       -1.056999   1.000000
   63       -1.011541   1.000000
   64       -0.955478   1.000000
   65       -0.917564   1.000000
   66       -0.831547   1.000000
   67       -0.741514   1.000000
   68       -0.688754   1.000000
   69       -0.580806   1.000000
   70       -0.511192   1.000000
   71       -0.429138   1.000000
   72       -0.305541   1.000000
   73       -0.184211   1.000000
   74       -0.119111   1.000000
   75       -0.086449   1.000000
   76       -0.013031   1.000000
   77        0.088930   1.000000
   78        0.118723   1.000000
   79        0.248367   1.000000
   80        0.417303   1.000000
   81        0.587052   1.000000
   82        0.662183   1.000000
   83        0.895986   1.000000
   84        0.921272   1.000000
   85        1.032318   1.000000
   86        1.294034   1.000000
   87        1.356070   1.000000
   88        1.393315   1.000000
   89        1.488454   1.000000
   90        1.671380   1.000000
   91        1.700779   1.000000
   92        1.726350   1.000000
   93        1.894536   1.000000
   94        1.976179   1.000000
   95        2.032115   1.000000
   96        2.290588   1.000000
   97        2.631655   1.005592
   98        2.680034   1.012092
   99        2.743057   1.025425
  100        3.069731   0.428876
  101        3.254272  -0.025846
  102        3.281833  -0.034365
  103        3.370608  -0.023586
  104        3.425812  -0.012069
  105        3.561119  -0.000961
  106        3.608450  -0.000306
  107        3.755559  -0.000004
  108        3.778477  -0.000002
  109        3.846555  -0.000000
  110        3.881308  -0.000000
  111        3.922629  -0.000000
  112        3.969796  -0.000000
  113        4.022342  -0.000000
  114        4.123952  -0.000000
  115        4.159411  -0.000000
  116        4.246986  -0.000000
  117        4.275117  -0.000000
  118        4.326086  -0.000000
  119        4.349082  -0.000000
  120        4.397937  -0.000000
  121        4.446470  -0.000000
  122        4.460846  -0.000000
  123        4.547451  -0.000000
  124        4.596021  -0.000000
  125        4.640753  -0.000000
  126        4.731837  -0.000000
  127        4.752538  -0.000000
  128        4.793767  -0.000000
  129        4.855959  -0.000000
  130        4.940457  -0.000000
  131        5.063892  -0.000000
  132        5.158331  -0.000000

  0.4444444E+00  0.3698634E-15  0.1262379E-14  0.2469136E-01
    1      -10.187543   1.000000
    2       -9.703394   1.000000
    3       -9.638172   1.000000
    4       -9.227857   1.000000
    5       -9.098125   1.000000
    6       -8.745263   1.000000
    7       -8.558523   1.000000
    8       -8.037180   1.000000
    9       -7.900115   1.000000
   10       -7.853040   1.000000
   11       -7.803244   1.000000
   12       -7.728586   1.000000
   13       -7.678832   1.000000
   14       -7.569282   1.000000
   15       -7.505673   1.000000
   16       -7.221867   1.000000
   17       -7.052846   1.000000
   18       -6.261855   1.000000
   19       -5.882867   1.000000
   20       -5.869618   1.000000
   21       -5.279470   1.000000
   22       -5.207638   1.000000
   23       -5.129188   1.000000
   24       -5.125181   1.000000
   25       -5.098365   1.000000
   26       -5.039690   1.000000
   27       -4.312212   1.000000
   28       -4.143486   1.000000
   29       -3.941368   1.000000
   30       -3.757502   1.000000
   31       -3.726441   1.000000
   32       -3.686050   1.000000
   33       -3.625017   1.000000
   34       -3.522396   1.000000
   35       -3.434465   1.000000
   36       -3.355583   1.000000
   37       -3.286101   1.000000
   38       -3.254452   1.000000
   39       -3.163378   1.000000
   40       -3.119887   1.000000
   41       -3.044326   1.000000
   42       -2.968051   1.000000
   43       -2.854959   1.000000
   44       -2.680132   1.000000
   45       -2.453747   1.000000
   46       -2.235865   1.000000
   47       -2.168510   1.000000
   48       -2.056428   1.000000
   49       -2.021153   1.000000
   50       -1.921312   1.000000
   51       -1.818469   1.000000
   52       -1.768523   1.000000
   53       -1.721321   1.000000
   54       -1.600647   1.000000
   55       -1.550395   1.000000
   56       -1.496586   1.000000
   57       -1.425743   1.000000
   58       -1.382284   1.000000
   59       -1.327655   1.000000
   60       -1.247851   1.000000
   61       -1.209266   1.000000
   62       -1.137161   1.000000
   63       -1.087513   1.000000
   64       -1.035704   1.000000
   65       -0.973214   1.000000
   66       -0.919594   1.000000
   67       -0.827952   1.000000
   68       -0.749589   1.000000
   69       -0.682350   1.000000
   70       -0.559150   1.000000
   71       -0.519570   1.000000
   72       -0.421065   1.000000
   73       -0.280099   1.000000
   74       -0.142270   1.000000
   75       -0.131330   1.000000
   76       -0.067188   1.000000
   77        0.007640   1.000000
   78        0.195783   1.000000
   79        0.238106   1.000000
   80        0.274501   1.000000
   81        0.617186   1.000000
   82        0.664969   1.000000
   83        0.758669   1.000000
   84        0.957942   1.000000
   85        1.049731   1.000000
   86        1.250896   1.000000
   87        1.338810   1.000000
   88        1.434520   1.000000
   89        1.511459   1.000000
   90        1.643170   1.000000
   91        1.710631   1.000000
   92        1.768218   1.000000
   93        1.793775   1.000000
   94        1.976966   1.000000
   95        2.017689   1.000000
   96        2.344506   1.000003
   97        2.578592   1.002018
   98        2.738614   1.024399
   99        2.765817   1.030417
  100        2.823427   1.034429
  101        2.884036   1.000486
  102        3.098523   0.312242
  103        3.168150   0.090826
  104        3.282634  -0.034477
  105        3.417454  -0.013563
  106        3.549391  -0.001251
  107        3.657031  -0.000083
  108        3.718969  -0.000013
  109        3.762278  -0.000003
  110        3.796305  -0.000001
  111        3.832726  -0.000000
  112        3.889290  -0.000000
  113        3.966504  -0.000000
  114        4.068315  -0.000000
  115        4.101423  -0.000000
  116        4.202607  -0.000000
  117        4.240263  -0.000000
  118        4.285550  -0.000000
  119        4.325064  -0.000000
  120        4.410426  -0.000000
  121        4.466671  -0.000000
  122        4.507990  -0.000000
  123        4.560927  -0.000000
  124        4.668913  -0.000000
  125        4.772971  -0.000000
  126        4.790188  -0.000000
  127        4.797320  -0.000000
  128        4.897838  -0.000000
  129        4.929115  -0.000000
  130        4.957904  -0.000000
  131        5.148377  -0.000000
  132        5.301937  -0.000000

  0.3742002E-15  0.1111111E+00  0.1262379E-14  0.2469136E-01
    1      -10.994224   1.000000
    2      -10.427427   1.000000
    3       -9.692245   1.000000
    4       -8.998736   1.000000
    5       -8.133647   1.000000
    6       -8.087278   1.000000
    7       -7.839067   1.000000
    8       -7.829937   1.000000
    9       -7.572934   1.000000
   10       -7.416918   1.000000
   11       -7.391995   1.000000
   12       -7.375129   1.000000
   13       -7.330632   1.000000
   14       -7.321190   1.000000
   15       -7.069376   1.000000
   16       -6.869490   1.000000
   17       -6.664616   1.000000
   18       -6.609781   1.000000
   19       -6.424462   1.000000
   20       -6.332560   1.000000
   21       -6.242019   1.000000
   22       -6.096750   1.000000
   23       -5.841290   1.000000
   24       -5.621728   1.000000
   25       -5.581445   1.000000
   26       -5.406645   1.000000
   27       -5.314864   1.000000
   28       -5.297766   1.000000
   29       -5.177020   1.000000
   30       -5.112876   1.000000
   31       -4.704175   1.000000
   32       -4.117952   1.000000
   33       -4.004506   1.000000
   34       -3.993650   1.000000
   35       -3.944269   1.000000
   36       -3.772309   1.000000
   37       -3.623715   1.000000
   38       -3.023214   1.000000
   39       -2.778363   1.000000
   40       -2.722966   1.000000
   41       -2.682150   1.000000
   42       -2.429533   1.000000
   43       -2.244668   1.000000
   44       -2.184659   1.000000
   45       -2.106408   1.000000
   46       -2.068461   1.000000
   47       -1.990634   1.000000
   48       -1.947128   1.000000
   49       -1.759562   1.000000
   50       -1.683964   1.000000
   51       -1.518260   1.000000
   52       -1.480055   1.000000
   53       -1.441929   1.000000
   54       -1.372633   1.000000
   55       -1.262257   1.000000
   56       -1.182544   1.000000
   57       -1.151420   1.000000
   58       -1.097165   1.000000
   59       -1.001246   1.000000
   60       -0.952931   1.000000
   61       -0.915009   1.000000
   62       -0.856702   1.000000
   63       -0.834984   1.000000
   64       -0.751572   1.000000
   65       -0.633392   1.000000
   66       -0.600813   1.000000
   67       -0.577816   1.000000
   68       -0.515239   1.000000
   69       -0.395207   1.000000
   70       -0.347120   1.000000
   71       -0.271510   1.000000
   72       -0.195990   1.000000
   73       -0.108007   1.000000
   74       -0.021313   1.000000
   75        0.066945   1.000000
   76        0.115655   1.000000
   77        0.316704   1.000000
   78        0.385144   1.000000
   79        0.455349   1.000000
   80        0.623640   1.000000
   81        0.654163   1.000000
   82        0.788429   1.000000
   83        0.816362   1.000000
   84        1.101335   1.000000
   85        1.374949   1.000000
   86        1.492074   1.000000
   87        1.521176   1.000000
   88        1.551062   1.000000
   89        1.599434   1.000000
   90        1.841332   1.000000
   91        1.915934   1.000000
   92        1.998304   1.000000
   93        2.039060   1.000000
   94        2.055383   1.000000
   95        2.221849   1.000000
   96        2.379233   1.000010
   97        2.572671   1.001782
   98        2.774132   1.032003
   99        3.026182   0.611762
  100        3.145579   0.150537
  101        3.204118   0.021990
  102        3.286271  -0.034904
  103        3.365585  -0.024749
  104        3.426048  -0.012028
  105        3.670272  -0.000057
  106        3.761572  -0.000003
  107        3.859293  -0.000000
  108        3.988744  -0.000000
  109        4.011915  -0.000000
  110        4.042256  -0.000000
  111        4.059671  -0.000000
  112        4.115419  -0.000000
  113        4.125195  -0.000000
  114        4.170764  -0.000000
  115        4.220286  -0.000000
  116        4.265368  -0.000000
  117        4.284100  -0.000000
  118        4.321599  -0.000000
  119        4.366509  -0.000000
  120        4.435832  -0.000000
  121        4.456568  -0.000000
  122        4.476957  -0.000000
  123        4.519079  -0.000000
  124        4.551433  -0.000000
  125        4.607289  -0.000000
  126        4.653032  -0.000000
  127        4.742097  -0.000000
  128        4.784216  -0.000000
  129        4.889925  -0.000000
  130        4.994243  -0.000000
  131        5.233841  -0.000000
  132        5.258827  -0.000000

  0.1111111E+00  0.1111111E+00  0.1262379E-14  0.2469136E-01
    1      -10.879688   1.000000
    2      -10.323246   1.000000
    3       -9.606404   1.000000
    4       -8.934000   1.000000
    5       -8.217002   1.000000
    6       -8.132396   1.000000
    7       -8.071120   1.000000
    8       -8.061642   1.000000
    9       -7.958069   1.000000
   10       -7.776810   1.000000
   11       -7.661357   1.000000
   12       -7.462485   1.000000
   13       -7.247907   1.000000
   14       -7.209784   1.000000
   15       -7.076487   1.000000
   16       -6.941777   1.000000
   17       -6.828685   1.000000
   18       -6.362541   1.000000
   19       -6.350090   1.000000
   20       -6.129182   1.000000
   21       -5.974837   1.000000
   22       -5.743459   1.000000
   23       -5.678734   1.000000
   24       -5.511497   1.000000
   25       -5.418751   1.000000
   26       -5.342192   1.000000
   27       -5.217182   1.000000
   28       -5.179044   1.000000
   29       -5.066696   1.000000
   30       -4.918343   1.000000
   31       -4.623163   1.000000
   32       -4.115604   1.000000
   33       -3.881333   1.000000
   34       -3.776701   1.000000
   35       -3.563957   1.000000
   36       -3.501319   1.000000
   37       -3.409418   1.000000
   38       -3.057823   1.000000
   39       -2.858376   1.000000
   40       -2.824823   1.000000
   41       -2.711831   1.000000
   42       -2.688783   1.000000
   43       -2.587391   1.000000
   44       -2.145779   1.000000
   45       -2.097182   1.000000
   46       -2.029727   1.000000
   47       -1.979826   1.000000
   48       -1.896893   1.000000
   49       -1.859250   1.000000
   50       -1.709359   1.000000
   51       -1.626921   1.000000
   52       -1.544702   1.000000
   53       -1.494916   1.000000
   54       -1.419649   1.000000
   55       -1.346891   1.000000
   56       -1.306331   1.000000
   57       -1.212015   1.000000
   58       -1.187589   1.000000
   59       -1.128230   1.000000
   60       -1.021559   1.000000
   61       -0.887732   1.000000
   62       -0.850199   1.000000
   63       -0.793504   1.000000
   64       -0.758574   1.000000
   65       -0.707847   1.000000
   66       -0.703289   1.000000
   67       -0.640571   1.000000
   68       -0.596703   1.000000
   69       -0.516058   1.000000
   70       -0.359153   1.000000
   71       -0.308672   1.000000
   72       -0.209688   1.000000
   73       -0.180254   1.000000
   74       -0.142366   1.000000
   75       -0.063013   1.000000
   76        0.101650   1.000000
   77        0.202933   1.000000
   78        0.244403   1.000000
   79        0.515746   1.000000
   80        0.618761   1.000000
   81        0.695937   1.000000
   82        0.716602   1.000000
   83        0.752783   1.000000
   84        0.997344   1.000000
   85        1.095553   1.000000
   86        1.267247   1.000000
   87        1.361192   1.000000
   88        1.557342   1.000000
   89        1.580252   1.000000
   90        1.793405   1.000000
   91        1.888912   1.000000
   92        1.904550   1.000000
   93        1.907873   1.000000
   94        1.924452   1.000000
   95        2.124394   1.000000
   96        2.422688   1.000039
   97        2.586678   1.002384
   98        2.741808   1.025137