 running on   54 total cores
 distrk:  each k-point on   54 cores,    1 groups
 distr:  one band on    9 cores,    6 groups
 using from now: INCAR     
 vasp.5.4.4.18Apr17-6-g9f103f2a35 (build Dec  7 2020 12:43:57) complex           
 POSCAR found type information on POSCAR  Mo V  B  H 
 POSCAR found :  4 types and      57 ions
 scaLAPACK will be used
 LDA part: xc-table for Pade appr. of Perdew
 POSCAR, INCAR and KPOINTS ok, starting setup
 resort distribution
 resort distribution
 resort distribution
 resort distribution
 resort distribution
 resort distribution
 resort distribution
 resort distribution
 resort distribution
 resort distribution
 resort distribution
 resort distribution
 resort distribution
 resort distribution
 resort distribution
 resort distribution
 resort distribution
 resort distribution
 resort distribution
 resort distribution
 resort distribution
 resort distribution
 resort distribution
 resort distribution
 resort distribution
 resort distribution
 resort distribution
 resort distribution
 resort distribution
 resort distribution
 resort distribution
 resort distribution
 resort distribution
 resort distribution
 resort distribution
 resort distribution
 resort distribution
 resort distribution
 resort distribution
 resort distribution
 resort distribution
 resort distribution
 resort distribution
 resort distribution
 resort distribution
 resort distribution
 resort distribution
 resort distribution
 resort distribution
 resort distribution
 resort distribution
 resort distribution
 resort distribution
 resort distribution
 FFT: planning ...
 WAVECAR not read
 augmentation electrons   201.01499853684933     
 soft         electrons   0.0000000000000000     
 augmentation electrons   201.01499853684933     
 soft         electrons   0.0000000000000000     
 augmentation electrons   201.01499853684933     
 soft         electrons   0.0000000000000000     
 augmentation electrons   201.01499853684933     
 soft         electrons   0.0000000000000000     
 augmentation electrons   201.01499853684933     
 soft         electrons   0.0000000000000000     
 augmentation electrons   201.01499853684933     
 soft         electrons   0.0000000000000000     
 augmentation electrons   201.01499853684933     
 soft         electrons   0.0000000000000000     
 augmentation electrons   201.01499853684933     
 soft         electrons   0.0000000000000000     
 augmentation electrons   201.01499853684933     
 soft         electrons   0.0000000000000000     
 augmentation electrons   201.01499853684933     
 soft         electrons   0.0000000000000000     
 augmentation electrons   201.01499853684933     
 soft         electrons   0.0000000000000000     
 augmentation electrons   201.01499853684933     
 soft         electrons   0.0000000000000000     
 augmentation electrons   201.01499853684933     
 soft         electrons   0.0000000000000000     
 augmentation electrons   201.01499853684933     
 soft         electrons   0.0000000000000000     
 augmentation electrons   201.01499853684933     
 soft         electrons   0.0000000000000000     
 augmentation electrons   201.01499853684933     
 soft         electrons   0.0000000000000000     
 augmentation electrons   201.01499853684933     
 soft         electrons   0.0000000000000000     
 augmentation electrons   201.01499853684933     
 soft         electrons   0.0000000000000000     
 augmentation electrons   201.01499853684933     
 soft         electrons   0.0000000000000000     
 augmentation electrons   201.01499853684933     
 soft         electrons   0.0000000000000000     
 augmentation electrons   201.01499853684933     
 soft         electrons   0.0000000000000000     
 augmentation electrons   201.01499853684933     
 soft         electrons   0.0000000000000000     
 augmentation electrons   201.01499853684933     
 soft         electrons   0.0000000000000000     
 augmentation electrons   201.01499853684933     
 soft         electrons   0.0000000000000000     
 augmentation electrons   201.01499853684933     
 soft         electrons   0.0000000000000000     
 augmentation electrons   201.01499853684933     
 soft         electrons   0.0000000000000000     
 augmentation electrons   201.01499853684933     
 soft         electrons   0.0000000000000000     
 augmentation electrons   201.01499853684933     
 soft         electrons   0.0000000000000000     
 augmentation electrons   201.01499853684933     
 soft         electrons   0.0000000000000000     
 augmentation electrons   201.01499853684933     
 soft         electrons   0.0000000000000000     
 augmentation electrons   201.01499853684933     
 soft         electrons   0.0000000000000000     
 augmentation electrons   201.01499853684933     
 soft         electrons   0.0000000000000000     
 augmentation electrons   201.01499853684933     
 soft         electrons   0.0000000000000000     
 augmentation electrons   201.01499853684933     
 soft         electrons   0.0000000000000000     
 augmentation electrons   201.01499853684933     
 soft         electrons   0.0000000000000000     
 augmentation electrons   201.01499853684933     
 soft         electrons   0.0000000000000000     
 augmentation electrons   201.01499853684933     
 soft         electrons   0.0000000000000000     
 augmentation electrons   201.01499853684933     
 soft         electrons   0.0000000000000000     
 augmentation electrons   201.01499853684933     
 soft         electrons   0.0000000000000000     
 augmentation electrons   201.01499853684933     
 soft         electrons   0.0000000000000000     
 augmentation electrons   201.01499853684933     
 soft         electrons   0.0000000000000000     
 augmentation electrons   201.01499853684933     
 soft         electrons   0.0000000000000000     
 augmentation electrons   201.01499853684933     
 soft         electrons   0.0000000000000000     
 augmentation electrons   201.01499853684933     
 soft         electrons   0.0000000000000000     
 augmentation electrons   201.01499853684933     
 soft         electrons   0.0000000000000000     
 augmentation electrons   201.01499853684933     
 soft         electrons   0.0000000000000000     
 augmentation electrons   201.01499853684933     
 soft         electrons   0.0000000000000000     
 augmentation electrons   201.01499853684933     
 soft         electrons   0.0000000000000000     
 augmentation electrons   201.01499853684933     
 soft         electrons   0.0000000000000000     
 augmentation electrons   201.01499853684933     
 soft         electrons   0.0000000000000000     
 augmentation electrons   201.01499853684933     
 soft         electrons   0.0000000000000000     
 augmentation electrons   201.01499853684933     
 soft         electrons   0.0000000000000000     
 augmentation electrons   201.01499853684933     
 soft         electrons   0.0000000000000000     
 augmentation electrons   201.01499853684933     
 soft         electrons   0.0000000000000000     
 total        electrons   201.01499853684933     
 total        electrons   201.01499853684933     
 total        electrons   201.01499853684933     
 total        electrons   201.01499853684933     
 total        electrons   201.01499853684933     
 total        electrons   201.01499853684933     
 total        electrons   201.01499853684933     
 total        electrons   201.01499853684933     
 total        electrons   201.01499853684933     
 total        electrons   201.01499853684933     
 total        electrons   201.01499853684933     
 total        electrons   201.01499853684933     
 total        electrons   201.01499853684933     
 total        electrons   201.01499853684933     
 total        electrons   201.01499853684933     
 total        electrons   201.01499853684933     
 total        electrons   201.01499853684933     
 total        electrons   201.01499853684933     
 total        electrons   201.01499853684933     
 total        electrons   201.01499853684933     
 total        electrons   201.01499853684933     
 total        electrons   201.01499853684933     
 total        electrons   201.01499853684933     
 total        electrons   201.01499853684933     
 total        electrons   201.01499853684933     
 total        electrons   201.01499853684933     
 total        electrons   201.01499853684933     
 total        electrons   201.01499853684933     
 total        electrons   201.01499853684933     
 total        electrons   201.01499853684933     
 total        electrons   201.01499853684933     
 total        electrons   201.01499853684933     
 total        electrons   201.01499853684933     
 total        electrons   201.01499853684933     
 total        electrons   201.01499853684933     
 total        electrons   201.01499853684933     
 total        electrons   201.01499853684933     
 total        electrons   201.01499853684933     
 total        electrons   201.01499853684933     
 total        electrons   201.01499853684933     
 total        electrons   201.01499853684933     
 total        electrons   201.01499853684933     
 total        electrons   201.01499853684933     
 total        electrons   201.01499853684933     
 total        electrons   201.01499853684933     
 total        electrons   201.01499853684933     
 total        electrons   201.01499853684933     
 total        electrons   201.01499853684933     
 total        electrons   201.01499853684933     
 total        electrons   201.01499853684933     
 total        electrons   201.01499853684933     
 total        electrons   201.01499853684933     
 total        electrons   201.01499853684933     
 total        electrons   201.01499853684933     
 augmentation electrons   494.75010134224181     
 soft         electrons   0.0000000000000000     
 augmentation electrons   494.75010134224181     
 soft         electrons   0.0000000000000000     
 augmentation electrons   494.75010134224181     
 soft         electrons   0.0000000000000000     
 augmentation electrons   494.75010134224181     
 soft         electrons   0.0000000000000000     
 augmentation electrons   494.75010134224181     
 soft         electrons   0.0000000000000000     
 augmentation electrons   494.75010134224181     
 soft         electrons   0.0000000000000000     
 augmentation electrons   494.75010134224181     
 soft         electrons   0.0000000000000000     
 augmentation electrons   494.75010134224181     
 soft         electrons   0.0000000000000000     
 augmentation electrons   494.75010134224181     
 soft         electrons   0.0000000000000000     
 augmentation electrons   494.75010134224181     
 soft         electrons   0.0000000000000000     
 augmentation electrons   494.75010134224181     
 soft         electrons   0.0000000000000000     
 augmentation electrons   494.75010134224181     
 soft         electrons   0.0000000000000000     
 augmentation electrons   494.75010134224181     
 soft         electrons   0.0000000000000000     
 augmentation electrons   494.75010134224181     
 soft         electrons   0.0000000000000000     
 augmentation electrons   494.75010134224181     
 soft         electrons   0.0000000000000000     
 augmentation electrons   494.75010134224181     
 soft         electrons   0.0000000000000000     
 augmentation electrons   494.75010134224181     
 soft         electrons   0.0000000000000000     
 augmentation electrons   494.75010134224181     
 soft         electrons   0.0000000000000000     
 augmentation electrons   494.75010134224181     
 soft         electrons   0.0000000000000000     
 augmentation electrons   494.75010134224181     
 soft         electrons   0.0000000000000000     
 augmentation electrons   494.75010134224181     
 soft         electrons   0.0000000000000000     
 augmentation electrons   494.75010134224181     
 soft         electrons   0.0000000000000000     
 augmentation electrons   494.75010134224181     
 soft         electrons   0.0000000000000000     
 augmentation electrons   494.75010134224181     
 augmentation electrons   494.75010134224181     
 soft         electrons   0.0000000000000000     
 augmentation electrons   494.75010134224181     
 soft         electrons   0.0000000000000000     
 augmentation electrons   494.75010134224181     
 soft         electrons   0.0000000000000000     
 augmentation electrons   494.75010134224181     
 soft         electrons   0.0000000000000000     
 augmentation electrons   494.75010134224181     
 soft         electrons   0.0000000000000000     
 augmentation electrons   494.75010134224181     
 soft         electrons   0.0000000000000000     
 augmentation electrons   494.75010134224181     
 soft         electrons   0.0000000000000000     
 augmentation electrons   494.75010134224181     
 soft         electrons   0.0000000000000000     
 augmentation electrons   494.75010134224181     
 soft         electrons   0.0000000000000000     
 augmentation electrons   494.75010134224181     
 soft         electrons   0.0000000000000000     
 augmentation electrons   494.75010134224181     
 soft         electrons   0.0000000000000000     
 augmentation electrons   494.75010134224181     
 soft         electrons   0.0000000000000000     
 augmentation electrons   494.75010134224181     
 soft         electrons   0.0000000000000000     
 augmentation electrons   494.75010134224181     
 soft         electrons   0.0000000000000000     
 augmentation electrons   494.75010134224181     
 soft         electrons   0.0000000000000000     
 augmentation electrons   494.75010134224181     
 soft         electrons   0.0000000000000000     
 augmentation electrons   494.75010134224181     
 soft         electrons   0.0000000000000000     
 augmentation electrons   494.75010134224181     
 soft         electrons   0.0000000000000000     
 augmentation electrons   494.75010134224181     
 soft         electrons   0.0000000000000000     
 augmentation electrons   494.75010134224181     
 soft         electrons   0.0000000000000000     
 augmentation electrons   494.75010134224181     
 soft         electrons   0.0000000000000000     
 augmentation electrons   494.75010134224181     
 soft         electrons   0.0000000000000000     
 augmentation electrons   494.75010134224181     
 soft         electrons   0.0000000000000000     
 augmentation electrons   494.75010134224181     
 soft         electrons   0.0000000000000000     
 augmentation electrons   494.75010134224181     
 soft         electrons   0.0000000000000000     
 augmentation electrons   494.75010134224181     
 soft         electrons   0.0000000000000000     
 augmentation electrons   494.75010134224181     
 soft         electrons   0.0000000000000000     
 augmentation electrons   494.75010134224181     
 soft         electrons   0.0000000000000000     
 augmentation electrons   494.75010134224181     
 soft         electrons   0.0000000000000000     
 augmentation electrons   494.75010134224181     
 soft         electrons   0.0000000000000000     
 soft         electrons   0.0000000000000000     
 total        electrons   494.75010134224181     
 total        electrons   494.75010134224181     
 total        electrons   494.75010134224181     
 total        electrons   494.75010134224181     
 total        electrons   494.75010134224181     
 total        electrons   494.75010134224181     
 total        electrons   494.75010134224181     
 total        electrons   494.75010134224181     
 total        electrons   494.75010134224181     
 total        electrons   494.75010134224181     
 total        electrons   494.75010134224181     
 total        electrons   494.75010134224181     
 total        electrons   494.75010134224181     
 total        electrons   494.75010134224181     
 total        electrons   494.75010134224181     
 total        electrons   494.75010134224181     
 total        electrons   494.75010134224181     
 total        electrons   494.75010134224181     
 total        electrons   494.75010134224181     
 total        electrons   494.75010134224181     
 total        electrons   494.75010134224181     
 total        electrons   494.75010134224181     
 total        electrons   494.75010134224181     
 total        electrons   494.75010134224181     
 total        electrons   494.75010134224181     
 total        electrons   494.75010134224181     
 total        electrons   494.75010134224181     
 total        electrons   494.75010134224181     
 total        electrons   494.75010134224181     
 total        electrons   494.75010134224181     
 total        electrons   494.75010134224181     
 total        electrons   494.75010134224181     
 total        electrons   494.75010134224181     
 total        electrons   494.75010134224181     
 total        electrons   494.75010134224181     
 total        electrons   494.75010134224181     
 total        electrons   494.75010134224181     
 total        electrons   494.75010134224181     
 total        electrons   494.75010134224181     
 total        electrons   494.75010134224181     
 total        electrons   494.75010134224181     
 total        electrons   494.75010134224181     
 total        electrons   494.75010134224181     
 total        electrons   494.75010134224181     
 total        electrons   494.75010134224181     
 total        electrons   494.75010134224181     
 total        electrons   494.75010134224181     
 total        electrons   494.75010134224181     
 total        electrons   494.75010134224181     
 total        electrons   494.75010134224181     
 total        electrons   494.75010134224181     
 total        electrons   494.75010134224181     
 total        electrons   494.75010134224181     
 total        electrons   494.75010134224181     
 entering main loop
       N       E                     dE             d eps       ncg     rms          rms(c)
DAV:   1     0.193888340392E+04    0.19389E+04   -0.73470E+04 10824   0.137E+03
DAV:   2    -0.980002134022E+02   -0.20369E+04   -0.18680E+04 11340   0.362E+02
DAV:   3    -0.483476729412E+03   -0.38548E+03   -0.36806E+03 15492   0.161E+02
DAV:   4    -0.513994340997E+03   -0.30518E+02   -0.29800E+02 17616   0.514E+01
DAV:   5    -0.515088399503E+03   -0.10941E+01   -0.10757E+01 18216   0.107E+01    0.112E+02
RMM:   6    -0.505309101695E+03    0.97793E+01   -0.97349E+02 13516   0.105E+02    0.751E+01
RMM:   7    -0.526802322580E+03   -0.21493E+02   -0.38162E+02 13237   0.776E+01    0.435E+01
RMM:   8    -0.449995496540E+03    0.76807E+02   -0.59468E+01 13263   0.250E+01    0.253E+01
RMM:   9    -0.448120314281E+03    0.18752E+01   -0.26905E+01 11860   0.197E+01    0.252E+01
RMM:  10    -0.436770070414E+03    0.11350E+02   -0.99947E+00 14355   0.825E+00    0.178E+01
RMM:  11    -0.435080037564E+03    0.16900E+01   -0.22941E+00 12061   0.481E+00    0.153E+01
RMM:  12    -0.434967921219E+03    0.11212E+00   -0.57751E-01 14286   0.173E+00    0.145E+01
RMM:  13    -0.435055871137E+03   -0.87950E-01   -0.21471E-01 13441   0.130E+00    0.132E+01
RMM:  14    -0.434100205425E+03    0.95567E+00   -0.20360E+00 10915   0.602E+00    0.685E+00
RMM:  15    -0.433495595905E+03    0.60461E+00   -0.29665E+00 12315   0.509E+00    0.384E+00
RMM:  16    -0.433387311386E+03    0.10828E+00   -0.85309E-01 13793   0.231E+00    0.216E+00
RMM:  17    -0.433355056565E+03    0.32255E-01   -0.11384E-01 13377   0.801E-01    0.140E+00
RMM:  18    -0.433359449531E+03   -0.43930E-02   -0.68364E-02 12012   0.813E-01    0.153E+00
RMM:  19    -0.433341278777E+03    0.18171E-01   -0.57706E-02 11532   0.869E-01    0.103E+00
RMM:  20    -0.433330580465E+03    0.10698E-01   -0.40830E-02 12989   0.611E-01    0.517E-01
RMM:  21    -0.433328675809E+03    0.19047E-02   -0.15607E-02 13057   0.349E-01    0.428E-01
RMM:  22    -0.433328507661E+03    0.16815E-03   -0.61228E-03 12889   0.222E-01    0.389E-01
RMM:  23    -0.433327956980E+03    0.55068E-03   -0.31648E-03 11270   0.197E-01    0.198E-01
RMM:  24    -0.433328967565E+03   -0.10106E-02   -0.15922E-03 14411   0.697E-02    0.838E-02
RMM:  25    -0.433331634212E+03   -0.26666E-02   -0.26382E-03 12816   0.148E-01    0.225E-01
RMM:  26    -0.433332780140E+03   -0.11459E-02   -0.19067E-03 11011   0.171E-01    0.852E-02
RMM:  27    -0.433333589909E+03   -0.80977E-03   -0.76601E-04 12890   0.689E-02    0.670E-02
RMM:  28    -0.433333976828E+03   -0.38692E-03   -0.20724E-04 13391   0.355E-02    0.238E-02
RMM:  29    -0.433334193041E+03   -0.21621E-03   -0.74440E-05 12514   0.254E-02    0.221E-02
RMM:  30    -0.433334251239E+03   -0.58198E-04   -0.29066E-05 10417   0.183E-02    0.108E-02
RMM:  31    -0.433334270933E+03   -0.19694E-04   -0.11884E-05  8863   0.628E-03    0.703E-03
RMM:  32    -0.433334281208E+03   -0.10274E-04   -0.25354E-06  7607   0.526E-03    0.283E-03
RMM:  33    -0.433334287171E+03   -0.59634E-05   -0.13238E-06  6972   0.284E-03    0.147E-03
RMM:  34    -0.433334290145E+03   -0.29736E-05   -0.74969E-07  6665   0.322E-03    0.123E-03
RMM:  35    -0.433334291264E+03   -0.11192E-05   -0.45255E-07  6461   0.203E-03    0.132E-03
RMM:  36    -0.433334291672E+03   -0.40871E-06   -0.27378E-07  5794   0.170E-03
   1 F= -.43333429E+03 E0= -.43333920E+03  d E =-.433334E+03
 curvature:   0.00 expect dE= 0.000E+00 dE for cont linesearch  0.000E+00
 trial: gam= 0.00000 g(F)=  0.407E+00 g(S)=  0.000E+00 ort = 0.000E+00 (trialstep = 0.100E+01)
 search vector abs. value=  0.407E+00
 bond charge predicted
       N       E                     dE             d eps       ncg     rms          rms(c)
DAV:   1    -0.433516252445E+03   -0.18196E+00   -0.17982E+01 11760   0.102E+01    0.117E+00
RMM:   2    -0.433550864397E+03   -0.34612E-01   -0.52176E-01 13205   0.224E+00    0.142E+00
RMM:   3    -0.433544872682E+03    0.59917E-02   -0.85064E-02 12236   0.108E+00    0.107E+00
RMM:   4    -0.433537348972E+03    0.75237E-02   -0.69874E-02 14277   0.636E-01    0.940E-01
RMM:   5    -0.433523748790E+03    0.13600E-01   -0.30599E-02 11391   0.651E-01    0.514E-01
RMM:   6    -0.433524234070E+03   -0.48528E-03   -0.15056E-02 12939   0.368E-01    0.465E-01
RMM:   7    -0.433520690190E+03    0.35439E-02   -0.53304E-03 11730   0.261E-01    0.190E-01
RMM:   8    -0.433520428788E+03    0.26140E-03   -0.24223E-03 12667   0.151E-01    0.136E-01
RMM:   9    -0.433520359439E+03    0.69348E-04   -0.95134E-04 12173   0.974E-02    0.105E-01
RMM:  10    -0.433520267821E+03    0.91619E-04   -0.42061E-04 11870   0.652E-02    0.535E-02
RMM:  11    -0.433520268481E+03   -0.66079E-06   -0.21996E-04 12344   0.406E-02    0.467E-02
RMM:  12    -0.433520245642E+03    0.22839E-04   -0.73804E-05 11821   0.263E-02    0.186E-02
RMM:  13    -0.433520246707E+03   -0.10656E-05   -0.39405E-05 12004   0.139E-02    0.107E-02
RMM:  14    -0.433520245401E+03    0.13066E-05   -0.10005E-05  8899   0.840E-03    0.507E-03
RMM:  15    -0.433520245432E+03   -0.30830E-07   -0.24924E-06  7516   0.511E-03
   2 F= -.43352025E+03 E0= -.43352533E+03  d E =-.185954E+00
 trial-energy change:   -0.185954  1 .order   -0.199377   -0.407404    0.008651
 step:   0.9744(harm=  0.9792)  dis= 0.05534  next Energy=  -433.520356 (dE=-0.186E+00)
 bond charge predicted
       N       E                     dE             d eps       ncg     rms          rms(c)
DAV:   1    -0.433520348588E+03   -0.10319E-03   -0.11623E-02 12660   0.258E-01    0.296E-02
RMM:   2    -0.433520386929E+03   -0.38341E-04   -0.34546E-04 12391   0.631E-02    0.500E-02
RMM:   3    -0.433520361013E+03    0.25917E-04   -0.59790E-05 11687   0.292E-02    0.219E-02
RMM:   4    -0.433520364063E+03   -0.30504E-05   -0.43560E-05 12775   0.173E-02    0.266E-02
RMM:   5    -0.433520353863E+03    0.10200E-04   -0.20937E-05 10665   0.168E-02    0.145E-02
RMM:   6    -0.433520353282E+03    0.58110E-06   -0.10090E-05  9604   0.110E-02    0.120E-02
RMM:   7    -0.433520351104E+03    0.21782E-05   -0.33046E-06  7563   0.788E-03    0.626E-03
RMM:   8    -0.433520350812E+03    0.29189E-06   -0.13336E-06  6871   0.565E-03
   3 F= -.43352035E+03 E0= -.43352544E+03  d E =-.186059E+00
 curvature:  -0.46 expect dE=-0.668E-01 dE for cont linesearch -0.133E-06
 trial: gam= 0.35304 g(F)=  0.144E+00 g(S)=  0.000E+00 ort = 0.342E-03 (trialstep = 0.995E+00)
 search vector abs. value=  0.195E+00
 bond charge predicted
       N       E                     dE             d eps       ncg     rms          rms(c)
DAV:   1    -0.433612256246E+03   -0.91905E-01   -0.71341E+00 10824   0.659E+00    0.792E-01
RMM:   2    -0.433626348033E+03   -0.14092E-01   -0.19334E-01 12665   0.144E+00    0.875E-01
RMM:   3    -0.433625159775E+03    0.11883E-02   -0.37457E-02 12765   0.670E-01    0.767E-01
RMM:   4    -0.433617611939E+03    0.75478E-02   -0.23633E-02 14038   0.388E-01    0.473E-01
RMM:   5    -0.433616333840E+03    0.12781E-02   -0.12178E-02 11462   0.411E-01    0.432E-01
RMM:   6    -0.433614713436E+03    0.16204E-02   -0.50265E-03 11870   0.258E-01    0.259E-01
RMM:   7    -0.433614132931E+03    0.58050E-03   -0.20654E-03 11277   0.177E-01    0.162E-01
RMM:   8    -0.433613881492E+03    0.25144E-03   -0.75851E-04 11849   0.966E-02    0.811E-02
RMM:   9    -0.433613843412E+03    0.38080E-04   -0.39178E-04 12484   0.594E-02    0.473E-02
RMM:  10    -0.433613828054E+03    0.15358E-04   -0.16095E-04 13434   0.302E-02    0.182E-02
RMM:  11    -0.433613824752E+03    0.33019E-05   -0.43994E-05 13004   0.136E-02    0.150E-02
RMM:  12    -0.433613825429E+03   -0.67739E-06   -0.16116E-05  9955   0.138E-02    0.185E-02
RMM:  13    -0.433613822079E+03    0.33500E-05   -0.76580E-06  9036   0.970E-03    0.527E-03
RMM:  14    -0.433613822515E+03   -0.43622E-06   -0.32645E-06  7534   0.534E-03
   4 F= -.43361382E+03 E0= -.43361888E+03  d E =-.934717E-01
 trial-energy change:   -0.093472  1 .order   -0.092624   -0.143554   -0.041694
 step:   1.3758(harm=  1.4021)  dis= 0.03911  next Energy=  -433.621852 (dE=-0.102E+00)
 bond charge predicted
       N       E                     dE             d eps       ncg     rms          rms(c)
DAV:   1    -0.433621704096E+03   -0.78820E-02   -0.10476E+00 10848   0.252E+00    0.303E-01
RMM:   2    -0.433624065282E+03   -0.23612E-02   -0.28562E-02 12569   0.555E-01    0.362E-01
RMM:   3    -0.433623353407E+03    0.71188E-03   -0.54355E-03 12609   0.260E-01    0.272E-01
RMM:   4    -0.433622619634E+03    0.73377E-03   -0.39449E-03 14013   0.155E-01    0.200E-01
RMM:   5    -0.433622130711E+03    0.48892E-03   -0.17880E-03 11418   0.162E-01    0.132E-01
RMM:   6    -0.433622060265E+03    0.70446E-04   -0.81892E-04 12090   0.969E-02    0.116E-01
RMM:   7    -0.433621936655E+03    0.12361E-03   -0.30922E-04 11139   0.686E-02    0.547E-02
RMM:   8    -0.433621914516E+03    0.22139E-04   -0.12488E-04 12389   0.343E-02    0.329E-02
RMM:   9    -0.433621907325E+03    0.71903E-05   -0.51182E-05 11694   0.224E-02    0.186E-02
RMM:  10    -0.433621905597E+03    0.17285E-05   -0.22087E-05 10788   0.116E-02    0.112E-02
RMM:  11    -0.433621904747E+03    0.84992E-06   -0.65121E-06  8270   0.880E-03
   5 F= -.43362190E+03 E0= -.43362685E+03  d E =-.101554E+00
 curvature:  -0.94 expect dE=-0.867E-01 dE for cont linesearch -0.368E-07
 trial: gam= 0.61352 g(F)=  0.918E-01 g(S)=  0.000E+00 ort = 0.872E-04 (trialstep = 0.107E+01)
 search vector abs. value=  0.165E+00
 bond charge predicted
       N       E                     dE             d eps       ncg     rms          rms(c)
DAV:   1    -0.433693807737E+03   -0.71902E-01   -0.61374E+00 10824   0.619E+00    0.696E-01
RMM:   2    -0.433696537086E+03   -0.27293E-02   -0.13324E-01 12283   0.126E+00    0.533E-01
RMM:   3    -0.433701670424E+03   -0.51333E-02   -0.40778E-02 12393   0.709E-01    0.788E-01
RMM:   4    -0.433699876811E+03    0.17936E-02   -0.14384E-02 12818   0.400E-01    0.469E-01
RMM:   5    -0.433693689931E+03    0.61869E-02   -0.71371E-03 13230   0.241E-01    0.186E-01
RMM:   6    -0.433693933391E+03   -0.24346E-03   -0.29305E-03 11876   0.187E-01    0.249E-01
RMM:   7    -0.433693268169E+03    0.66522E-03   -0.11626E-03 11131   0.135E-01    0.107E-01
RMM:   8    -0.433693206968E+03    0.61201E-04   -0.60653E-04 12335   0.741E-02    0.611E-02
RMM:   9    -0.433693193826E+03    0.13142E-04   -0.26746E-04 12813   0.456E-02    0.447E-02
RMM:  10    -0.433693181995E+03    0.11830E-04   -0.10207E-04 11382   0.320E-02    0.291E-02
RMM:  11    -0.433693174066E+03    0.79297E-05   -0.43897E-05 11081   0.164E-02    0.118E-02
RMM:  12    -0.433693175680E+03   -0.16148E-05   -0.16453E-05  9814   0.111E-02    0.143E-02
RMM:  13    -0.433693173402E+03    0.22784E-05   -0.68146E-06  8950   0.831E-03    0.357E-03
RMM:  14    -0.433693173579E+03   -0.17683E-06   -0.20745E-06  7390   0.413E-03
   6 F= -.43369317E+03 E0= -.43369805E+03  d E =-.712688E-01
 trial-energy change:   -0.071269  1 .order   -0.070628   -0.098402   -0.042853
 step:   1.8107(harm=  1.8973)  dis= 0.03765  next Energy=  -433.708182 (dE=-0.863E-01)
 bond charge predicted
       N       E                     dE             d eps       ncg     rms          rms(c)
DAV:   1    -0.433708684839E+03   -0.15511E-01   -0.29426E+00 10824   0.429E+00    0.481E-01
RMM:   2    -0.433710043148E+03   -0.13583E-02   -0.63975E-02 12194   0.878E-01    0.371E-01
RMM:   3    -0.433712084789E+03   -0.20416E-02   -0.19287E-02 12483   0.488E-01    0.518E-01
RMM:   4    -0.433711735598E+03    0.34919E-03   -0.72314E-03 12830   0.280E-01    0.342E-01
RMM:   5    -0.433708554230E+03    0.31814E-02   -0.33398E-03 13257   0.164E-01    0.129E-01
RMM:   6    -0.433708785991E+03   -0.23176E-03   -0.15977E-03 11670   0.141E-01    0.200E-01
RMM:   7    -0.433708363674E+03    0.42232E-03   -0.62079E-04 11148   0.101E-01    0.707E-02
RMM:   8    -0.433708326470E+03    0.37204E-04   -0.30435E-04 12538   0.516E-02    0.415E-02
RMM:   9    -0.433708325816E+03    0.65428E-06   -0.13269E-04 12667   0.335E-02    0.361E-02
RMM:  10    -0.433708314756E+03    0.11060E-04   -0.50971E-05 11122   0.236E-02    0.178E-02
RMM:  11    -0.433708312427E+03    0.23293E-05   -0.24293E-05 10305   0.105E-02    0.815E-03
RMM:  12    -0.433708313144E+03   -0.71714E-06   -0.68460E-06  8420   0.825E-03
   7 F= -.43370831E+03 E0= -.43371308E+03  d E =-.864084E-01
 curvature:  -1.69 expect dE=-0.783E-01 dE for cont linesearch -0.528E-06
 trial: gam= 0.39749 g(F)=  0.464E-01 g(S)=  0.000E+00 ort = 0.227E-03 (trialstep = 0.122E+01)
 search vector abs. value=  0.727E-01
 bond charge predicted
       N       E                     dE             d eps       ncg     rms          rms(c)
DAV:   1    -0.433748519131E+03   -0.40207E-01   -0.39076E+00 10824   0.502E+00    0.589E-01
RMM:   2    -0.433755405616E+03   -0.68865E-02   -0.11810E-01 11672   0.125E+00    0.923E-01
RMM:   3    -0.433749181191E+03    0.62244E-02   -0.27639E-02 12434   0.632E-01    0.465E-01
RMM:   4    -0.433750536688E+03   -0.13555E-02   -0.14115E-02 14400   0.268E-01    0.419E-01
RMM:   5    -0.433748102819E+03    0.24339E-02   -0.66151E-03 12157   0.278E-01    0.377E-01
RMM:   6    -0.433746460033E+03    0.16428E-02   -0.35290E-03 11911   0.210E-01    0.198E-01
RMM:   7    -0.433746109179E+03    0.35085E-03   -0.16717E-03 12159   0.146E-01    0.138E-01
RMM:   8    -0.433746007264E+03    0.10191E-03   -0.81612E-04 11782   0.105E-01    0.109E-01
RMM:   9    -0.433745880487E+03    0.12678E-03   -0.28092E-04 11632   0.623E-02    0.440E-02
RMM:  10    -0.433745882668E+03   -0.21815E-05   -0.15299E-04 12640   0.339E-02    0.382E-02
RMM:  11    -0.433745871617E+03    0.11051E-04   -0.54147E-05 11268   0.242E-02    0.221E-02
RMM:  12    -0.433745865555E+03    0.60627E-05   -0.24473E-05 10792   0.124E-02    0.716E-03
RMM:  13    -0.433745865763E+03   -0.20846E-06   -0.84775E-06  9452   0.737E-03
   8 F= -.43374587E+03 E0= -.43375072E+03  d E =-.375526E-01
 trial-energy change:   -0.037553  1 .order   -0.037351   -0.056621   -0.018081
 step:   1.7660(harm=  1.7909)  dis= 0.03710  next Energy=  -433.749941 (dE=-0.416E-01)
 bond charge predicted
       N       E                     dE             d eps       ncg     rms          rms(c)
DAV:   1    -0.433750545794E+03   -0.46802E-02   -0.78797E-01 10896   0.225E+00    0.264E-01
RMM:   2    -0.433751958960E+03   -0.14132E-02   -0.23718E-02 11586   0.568E-01    0.415E-01
RMM:   3    -0.433750707264E+03    0.12517E-02   -0.55348E-03 12499   0.283E-01    0.208E-01
RMM:   4    -0.433750971354E+03   -0.26409E-03   -0.28357E-03 14376   0.121E-01    0.187E-01
RMM:   5    -0.433750510260E+03    0.46109E-03   -0.13494E-03 12140   0.125E-01    0.170E-01
RMM:   6    -0.433750179921E+03    0.33034E-03   -0.72053E-04 11898   0.948E-02    0.905E-02
RMM:   7    -0.433750102400E+03    0.77521E-04   -0.33556E-04 12093   0.659E-02    0.612E-02
RMM:   8    -0.433750084117E+03    0.18283E-04   -0.16314E-04 11784   0.466E-02    0.496E-02
RMM:   9    -0.433750057802E+03    0.26315E-04   -0.56526E-05 11406   0.282E-02    0.197E-02
RMM:  10    -0.433750058481E+03   -0.67909E-06   -0.31019E-05 11355   0.152E-02    0.171E-02
RMM:  11    -0.433750056230E+03    0.22508E-05   -0.10545E-05  8956   0.110E-02    0.991E-03
RMM:  12    -0.433750054982E+03    0.12483E-05   -0.44366E-06  7737   0.661E-03    0.352E-03
RMM:  13    -0.433750055008E+03   -0.26452E-07   -0.16428E-06  7029   0.447E-03
   9 F= -.43375006E+03 E0= -.43375494E+03  d E =-.417419E-01
 curvature:  -1.40 expect dE=-0.468E-01 dE for cont linesearch -0.191E-05
 trial: gam= 0.67720 g(F)=  0.335E-01 g(S)=  0.000E+00 ort = 0.315E-03 (trialstep = 0.133E+01)
 search vector abs. value=  0.672E-01
 bond charge predicted
       N       E                     dE             d eps       ncg     rms          rms(c)
DAV:   1    -0.433775976963E+03   -0.25922E-01   -0.48803E+00 10824   0.553E+00    0.524E-01
RMM:   2    -0.433782600042E+03   -0.66231E-02   -0.10042E-01 11762   0.121E+00    0.611E-01
RMM:   3    -0.433780082953E+03    0.25171E-02   -0.23853E-02 12825   0.563E-01    0.385E-01
RMM:   4    -0.433781614181E+03   -0.15312E-02   -0.89619E-03 13411   0.280E-01    0.401E-01
RMM:   5    -0.433779704609E+03    0.19096E-02   -0.45480E-03 12765   0.209E-01    0.244E-01
RMM:   6    -0.433779505990E+03    0.19862E-03   -0.30506E-03 12180   0.181E-01    0.265E-01
RMM:   7    -0.433778713515E+03    0.79247E-03   -0.14365E-03 11769   0.139E-01    0.117E-01
RMM:   8    -0.433778588680E+03    0.12483E-03   -0.49613E-04 11915   0.768E-02    0.650E-02
RMM:   9    -0.433778543762E+03    0.44918E-04   -0.17896E-04 11667   0.444E-02    0.354E-02
RMM:  10    -0.433778542267E+03    0.14955E-05   -0.99972E-05 12728   0.246E-02    0.247E-02
RMM:  11    -0.433778538085E+03    0.41813E-05   -0.32708E-05 11270   0.168E-02    0.203E-02
RMM:  12    -0.433778535194E+03    0.28913E-05   -0.14249E-05  9697   0.127E-02    0.112E-02
RMM:  13    -0.433778534596E+03    0.59775E-06   -0.73369E-06  8610   0.695E-03
  10 F= -.43377853E+03 E0= -.43378337E+03  d E =-.284796E-01
 trial-energy change:   -0.028480  1 .order   -0.028498   -0.044749   -0.012246
 step:   1.8289(harm=  1.8289)  dis= 0.03851  next Energy=  -433.780859 (dE=-0.308E-01)
 bond charge predicted
       N       E                     dE             d eps       ncg     rms          rms(c)
DAV:   1    -0.433780511864E+03   -0.19767E-02   -0.69158E-01 10824   0.208E+00    0.196E-01
RMM:   2    -0.433781467143E+03   -0.95528E-03   -0.14118E-02 11659   0.459E-01    0.234E-01
RMM:   3    -0.433781107063E+03    0.36008E-03   -0.34123E-03 12907   0.212E-01    0.144E-01
RMM:   4    -0.433781352098E+03   -0.24504E-03   -0.12935E-03 13553   0.103E-01    0.153E-01
RMM:   5    -0.433781058543E+03    0.29355E-03   -0.64727E-04 12941   0.773E-02    0.927E-02
RMM:   6    -0.433781031259E+03    0.27285E-04   -0.43308E-04 11970   0.701E-02    0.101E-01
RMM:   7    -0.433780916699E+03    0.11456E-03   -0.20697E-04 11728   0.527E-02    0.427E-02
RMM:   8    -0.433780900626E+03    0.16073E-04   -0.70749E-05 11815   0.289E-02    0.237E-02
RMM:   9    -0.433780894977E+03    0.56494E-05   -0.25423E-05 10391   0.168E-02    0.136E-02
RMM:  10    -0.433780894634E+03    0.34222E-06   -0.13073E-05  9106   0.968E-03    0.936E-03
RMM:  11    -0.433780893996E+03    0.63881E-06   -0.40425E-06  7683   0.731E-03
  11 F= -.43378089E+03 E0= -.43378571E+03  d E =-.308390E-01
 curvature:  -1.82 expect dE=-0.349E-01 dE for cont linesearch -0.241E-06
 trial: gam= 0.56988 g(F)=  0.191E-01 g(S)=  0.000E+00 ort = 0.943E-04 (trialstep = 0.143E+01)
 search vector abs. value=  0.411E-01
 bond charge predicted
       N       E                     dE             d eps       ncg     rms          rms(c)
DAV:   1    -0.433789979985E+03   -0.90854E-02   -0.30585E+00 10824   0.445E+00    0.418E-01
RMM:   2    -0.433793500649E+03   -0.35207E-02   -0.65586E-02 11941   0.936E-01    0.291E-01
RMM:   3    -0.433794944363E+03   -0.14437E-02   -0.16359E-02 13535   0.418E-01    0.367E-01
RMM:   4    -0.433794095693E+03    0.84867E-03   -0.47820E-03 12502   0.238E-01    0.280E-01
RMM:   5    -0.433793191546E+03    0.90415E-03   -0.25924E-03 12082   0.168E-01    0.169E-01
RMM:   6    -0.433793175786E+03    0.15760E-04   -0.14927E-03 13181   0.111E-01    0.140E-01
RMM:   7    -0.433792871989E+03    0.30380E-03   -0.57215E-04 11863   0.812E-02    0.832E-02
RMM:   8    -0.433792796231E+03    0.75759E-04   -0.27446E-04 12226   0.527E-02    0.372E-02
RMM:   9    -0.433792793677E+03    0.25534E-05   -0.11826E-04 12800   0.288E-02    0.304E-02
RMM:  10    -0.433792787936E+03    0.57413E-05   -0.41941E-05 11134   0.211E-02    0.188E-02
RMM:  11    -0.433792786723E+03    0.12130E-05   -0.20802E-05 10383   0.120E-02    0.113E-02
RMM:  12    -0.433792786728E+03   -0.46566E-08   -0.75506E-06  8382   0.904E-03
  12 F= -.43379279E+03 E0= -.43379753E+03  d E =-.118927E-01
 trial-energy change:   -0.011893  1 .order   -0.011858   -0.027421    0.003704
 step:   1.2585(harm=  1.2585)  dis= 0.01234  next Energy=  -433.792973 (dE=-0.121E-01)
 bond charge predicted
       N       E                     dE             d eps       ncg     rms          rms(c)
DAV:   1    -0.433792960987E+03   -0.17426E-03   -0.43209E-02 11736   0.529E-01    0.493E-02
RMM:   2    -0.433793008734E+03   -0.47747E-04   -0.90351E-04 11606   0.114E-01    0.343E-02
RMM:   3    -0.433793032814E+03   -0.24081E-04   -0.25343E-04 13842   0.493E-02    0.430E-02
RMM:   4    -0.433793018032E+03    0.14782E-04   -0.69924E-05 12199   0.285E-02    0.336E-02
RMM:   5    -0.433793007750E+03    0.10282E-04   -0.37942E-05 11109   0.211E-02    0.207E-02
RMM:   6    -0.433793007151E+03    0.59887E-06   -0.18734E-05 10869   0.133E-02    0.172E-02
RMM:   7    -0.433793002391E+03    0.47607E-05   -0.75962E-06  8645   0.100E-02    0.946E-03
RMM:   8    -0.433793001712E+03    0.67839E-06   -0.32111E-06  7454   0.750E-03
  13 F= -.43379300E+03 E0= -.43379776E+03  d E =-.121077E-01
 curvature:  -1.35 expect dE=-0.109E-01 dE for cont linesearch -0.900E-07
 trial: gam= 0.42859 g(F)=  0.810E-02 g(S)=  0.000E+00 ort = 0.524E-04 (trialstep = 0.139E+01)
 search vector abs. value=  0.157E-01
 bond charge predicted
       N       E                     dE             d eps       ncg     rms          rms(c)
DAV:   1    -0.433799414044E+03   -0.64117E-02   -0.89010E-01 10824   0.245E+00    0.262E-01
RMM:   2    -0.433801484756E+03   -0.20707E-02   -0.23047E-02 11901   0.540E-01    0.342E-01
RMM:   3    -0.433800907241E+03    0.57752E-03   -0.48013E-03 12283   0.271E-01    0.215E-01
RMM:   4    -0.433801356203E+03   -0.44896E-03   -0.32365E-03 14209   0.145E-01    0.223E-01
RMM:   5    -0.433800316499E+03    0.10397E-02   -0.11889E-03 11685   0.126E-01    0.126E-01
RMM:   6    -0.433800215414E+03    0.10108E-03   -0.65641E-04 11665   0.881E-02    0.861E-02
RMM:   7    -0.433800179353E+03    0.36061E-04   -0.27700E-04 12955   0.502E-02    0.429E-02
RMM:   8    -0.433800151741E+03    0.27612E-04   -0.10644E-04 12873   0.290E-02    0.265E-02
RMM:   9    -0.433800148559E+03    0.31824E-05   -0.38176E-05 11370   0.197E-02    0.196E-02
RMM:  10    -0.433800144893E+03    0.36658E-05   -0.15182E-05 10011   0.128E-02    0.106E-02
RMM:  11    -0.433800144292E+03    0.60066E-06   -0.68192E-06  8245   0.838E-03
  14 F= -.43380014E+03 E0= -.43380489E+03  d E =-.714258E-02
 trial-energy change:   -0.007143  1 .order   -0.007114   -0.011328   -0.002900
 step:   1.8615(harm=  1.8743)  dis= 0.01620  next Energy=  -433.800631 (dE=-0.763E-02)
 bond charge predicted
       N       E                     dE             d eps       ncg     rms          rms(c)
DAV:   1    -0.433800570824E+03   -0.42593E-03   -0.99969E-02 10968   0.820E-01    0.883E-02
RMM:   2    -0.433800813952E+03   -0.24313E-03   -0.26212E-03 11782   0.186E-01    0.118E-01
RMM:   3    -0.433800740617E+03    0.73334E-04   -0.55939E-04 12228   0.919E-02    0.712E-02
RMM:   4    -0.433800795967E+03   -0.55350E-04   -0.36446E-04 14262   0.482E-02    0.736E-02
RMM:   5    -0.433800682213E+03    0.11375E-03   -0.13817E-04 11785   0.420E-02    0.447E-02
RMM:   6    -0.433800667679E+03    0.14533E-04   -0.74329E-05 11268   0.303E-02    0.282E-02
RMM:   7    -0.433800664993E+03    0.26861E-05   -0.32017E-05 11888   0.171E-02    0.153E-02
RMM:   8    -0.433800661363E+03    0.36295E-05   -0.12003E-05  9669   0.106E-02    0.940E-03
RMM:   9    -0.433800660928E+03    0.43576E-06   -0.43778E-06  7773   0.770E-03
  15 F= -.43380066E+03 E0= -.43380541E+03  d E =-.765922E-02
 curvature:  -1.81 expect dE=-0.112E-01 dE for cont linesearch -0.590E-06
 trial: gam= 0.74743 g(F)=  0.621E-02 g(S)=  0.000E+00 ort = 0.716E-04 (trialstep = 0.149E+01)
 search vector abs. value=  0.151E-01
 bond charge predicted
       N       E                     dE             d eps       ncg     rms          rms(c)
DAV:   1    -0.433805249941E+03   -0.45886E-02   -0.93899E-01 10824   0.249E+00    0.225E-01
RMM:   2    -0.433806624875E+03   -0.13749E-02   -0.19412E-02 10934   0.570E-01    0.231E-01
RMM:   3    -0.433807207844E+03   -0.58297E-03   -0.52630E-03 13598   0.250E-01    0.238E-01
RMM:   4    -0.433806685886E+03    0.52196E-03   -0.20011E-03 14381   0.104E-01    0.160E-01
RMM:   5    -0.433806348545E+03    0.33734E-03   -0.86294E-04 11234   0.109E-01    0.102E-01
RMM:   6    -0.433806313816E+03    0.34729E-04   -0.50503E-04 13203   0.639E-02    0.670E-02
RMM:   7    -0.433806235910E+03    0.77906E-04   -0.15863E-04 11741   0.434E-02    0.364E-02
RMM:   8    -0.433806225188E+03    0.10722E-04   -0.70852E-05 11969   0.283E-02    0.243E-02
RMM:   9    -0.433806224398E+03    0.79025E-06   -0.33002E-05 11295   0.173E-02    0.193E-02
RMM:  10    -0.433806220973E+03    0.34244E-05   -0.13315E-05  9213   0.122E-02    0.920E-03
RMM:  11    -0.433806220736E+03    0.23769E-06   -0.63542E-06  8141   0.714E-03
  16 F= -.43380622E+03 E0= -.43381099E+03  d E =-.555981E-02
 trial-energy change:   -0.005560  1 .order   -0.005525   -0.009324   -0.001726
 step:   1.8150(harm=  1.8259)  dis= 0.01575  next Energy=  -433.806411 (dE=-0.575E-02)
 bond charge predicted
       N       E                     dE             d eps       ncg     rms          rms(c)
DAV:   1    -0.433806370381E+03   -0.14941E-03   -0.45439E-02 11424   0.548E-01    0.503E-02
RMM:   2    -0.433806446972E+03   -0.76591E-04   -0.97391E-04 10950   0.128E-01    0.566E-02
RMM:   3    -0.433806461979E+03   -0.15007E-04   -0.25530E-04 13345   0.567E-02    0.493E-02
RMM:   4    -0.433806450022E+03    0.11957E-04   -0.10654E-04 13905   0.220E-02    0.377E-02
RMM:   5    -0.433806427972E+03    0.22050E-04   -0.46647E-05 11001   0.251E-02    0.234E-02
RMM:   6    -0.433806426320E+03    0.16517E-05   -0.26339E-05 11447   0.157E-02    0.159E-02
RMM:   7    -0.433806423057E+03    0.32627E-05   -0.89381E-06  9054   0.110E-02    0.108E-02
RMM:   8    -0.433806421779E+03    0.12780E-05   -0.38577E-06  7631   0.845E-03    0.511E-03
RMM:   9    -0.433806421775E+03    0.42073E-08   -0.16383E-06  7042   0.477E-03
  17 F= -.43380642E+03 E0= -.43381119E+03  d E =-.576085E-02
 curvature:  -2.20 expect dE=-0.712E-02 dE for cont linesearch -0.226E-06
 trial: gam= 0.53671 g(F)=  0.324E-02 g(S)=  0.000E+00 ort = 0.394E-04 (trialstep = 0.155E+01)
 search vector abs. value=  0.763E-02
 bond charge predicted
       N       E                     dE             d eps       ncg     rms          rms(c)
DAV:   1    -0.433808728606E+03   -0.23068E-02   -0.54406E-01 10824   0.192E+00    0.182E-01
RMM:   2    -0.433809250089E+03   -0.52148E-03   -0.10556E-02 11038   0.428E-01    0.150E-01
RMM:   3    -0.433809776535E+03   -0.52645E-03   -0.30974E-03 13806   0.184E-01    0.205E-01
RMM:   4    -0.433809420796E+03    0.35574E-03   -0.98886E-04 12396   0.110E-01    0.108E-01
RMM:   5    -0.433809406768E+03    0.14028E-04   -0.71803E-04 12710   0.804E-02    0.121E-01
RMM:   6    -0.433809210013E+03    0.19675E-03   -0.27340E-04 11428   0.616E-02    0.454E-02
RMM:   7    -0.433809230591E+03   -0.20578E-04   -0.16251E-04 11861   0.439E-02    0.568E-02
RMM:   8    -0.433809194743E+03    0.35848E-04   -0.57977E-05 11285   0.286E-02    0.159E-02
RMM:   9    -0.433809194267E+03    0.47635E-06   -0.35204E-05 11278   0.125E-02    0.104E-02
RMM:  10    -0.433809193952E+03    0.31443E-06   -0.74934E-06  8301   0.960E-03
  18 F= -.43380919E+03 E0= -.43381398E+03  d E =-.277218E-02
 trial-energy change:   -0.002772  1 .order   -0.002762   -0.005072   -0.000452
 step:   1.7032(harm=  1.7054)  dis= 0.00938  next Energy=  -433.809216 (dE=-0.279E-02)
 bond charge predicted
       N       E                     dE             d eps       ncg     rms          rms(c)
DAV:   1    -0.433809211139E+03   -0.16873E-04   -0.50784E-03 11808   0.187E-01    0.195E-02
RMM:   2    -0.433809220683E+03   -0.95436E-05   -0.11981E-04 11532   0.421E-02    0.206E-02
RMM:   3    -0.433809221907E+03   -0.12244E-05   -0.32207E-05 12273   0.201E-02    0.197E-02
RMM:   4    -0.433809220222E+03    0.16857E-05   -0.11059E-05  9996   0.110E-02    0.119E-02
RMM:   5    -0.433809219476E+03    0.74542E-06   -0.50485E-06  8209   0.855E-03
  19 F= -.43380922E+03 E0= -.43381400E+03  d E =-.279770E-02
 curvature:  -1.99 expect dE=-0.342E-02 dE for cont linesearch -0.203E-06
 trial: gam= 0.51895 g(F)=  0.171E-02 g(S)=  0.000E+00 ort = 0.279E-04 (trialstep = 0.158E+01)
 search vector abs. value=  0.380E-02
 bond charge predicted
       N       E                     dE             d eps       ncg     rms          rms(c)
DAV:   1    -0.433810229015E+03   -0.10088E-02   -0.30882E-01 10824   0.143E+00    0.144E-01
RMM:   2    -0.433810599116E+03   -0.37010E-03   -0.65813E-03 11109   0.334E-01    0.128E-01
RMM:   3    -0.433810891876E+03   -0.29276E-03   -0.19001E-03 13506   0.148E-01    0.161E-01
RMM:   4    -0.433810651584E+03    0.24029E-03   -0.65074E-04 13088   0.832E-02    0.801E-02
RMM:   5    -0.433810657259E+03   -0.56742E-05   -0.44555E-04 12780   0.612E-02    0.997E-02
RMM:   6    -0.433810520094E+03    0.13716E-03   -0.17574E-04 11486   0.494E-02    0.372E-02
RMM:   7    -0.433810526485E+03   -0.63910E-05   -0.95508E-05 11952   0.337E-02    0.390E-02
RMM:   8    -0.433810509090E+03    0.17395E-04   -0.31542E-05 11049   0.206E-02    0.135E-02
RMM:   9    -0.433810507374E+03    0.17159E-05   -0.15328E-05  9427   0.939E-03    0.690E-03
RMM:  10    -0.433810507797E+03   -0.42277E-06   -0.38605E-06  7644   0.683E-03
  20 F= -.43381051E+03 E0= -.43381530E+03  d E =-.128832E-02
 trial-energy change:   -0.001288  1 .order   -0.001281   -0.002738    0.000176
 step:   1.4890(harm=  1.4876)  dis= 0.00629  next Energy=  -433.810513 (dE=-0.129E-02)
 bond charge predicted
       N       E                     dE             d eps       ncg     rms          rms(c)
DAV:   1    -0.433810510518E+03   -0.31437E-05   -0.10857E-03 11880   0.865E-02    0.909E-03
RMM:   2    -0.433810514002E+03   -0.34840E-05   -0.31382E-05 12379   0.197E-02    0.147E-02
RMM:   3    -0.433810512042E+03    0.19598E-05   -0.54565E-06  8409   0.103E-02    0.782E-03
RMM:   4    -0.433810512041E+03    0.10896E-08   -0.22277E-06  7068   0.617E-03    0.670E-03
RMM:   5    -0.433810511910E+03    0.13104E-06   -0.16908E-06  6921   0.652E-03
  21 F= -.43381051E+03 E0= -.43381531E+03  d E =-.129243E-02
 curvature:  -1.63 expect dE=-0.175E-02 dE for cont linesearch -0.841E-08
 trial: gam= 0.63115 g(F)=  0.107E-02 g(S)=  0.000E+00 ort = 0.442E-05 (trialstep = 0.156E+01)
 search vector abs. value=  0.259E-02
 bond charge predicted
       N       E                     dE             d eps       ncg     rms          rms(c)
DAV:   1    -0.433811109309E+03   -0.59727E-03   -0.22151E-01 10824   0.120E+00    0.111E-01
RMM:   2    -0.433811418910E+03   -0.30960E-03   -0.45455E-03 11034   0.280E-01    0.116E-01
RMM:   3    -0.433811483742E+03   -0.64833E-04   -0.12871E-03 13741   0.120E-01    0.114E-01
RMM:   4    -0.433811340290E+03    0.14345E-03   -0.42259E-04 12754   0.668E-02    0.514E-02
RMM:   5    -0.433811328630E+03    0.11661E-04   -0.19504E-04 12318   0.463E-02    0.380E-02
RMM:   6    -0.433811334668E+03   -0.60385E-05   -0.10190E-04 11871   0.320E-02    0.464E-02
RMM:   7    -0.433811310855E+03    0.23813E-04   -0.36002E-05 10596   0.230E-02    0.131E-02
RMM:   8    -0.433811311776E+03   -0.92092E-06   -0.21129E-05 10423   0.969E-03    0.123E-02
RMM:   9    -0.433811309981E+03    0.17945E-05   -0.51432E-06  8047   0.798E-03    0.894E-03
RMM:  10    -0.433811309160E+03    0.82072E-06   -0.23706E-06  7194   0.697E-03
  22 F= -.43381131E+03 E0= -.43381610E+03  d E =-.797250E-03
 trial-energy change:   -0.000797  1 .order   -0.000792   -0.001677    0.000094
 step:   1.4830(harm=  1.4815)  dis= 0.00490  next Energy=  -433.811312 (dE=-0.800E-03)
 bond charge predicted
       N       E                     dE             d eps       ncg     rms          rms(c)
DAV:   1    -0.433811310352E+03   -0.37117E-06   -0.59134E-04 11784   0.629E-02    0.618E-03
RMM:   2    -0.433811312593E+03   -0.22407E-05   -0.16406E-05 11074   0.154E-02    0.112E-02
RMM:   3    -0.433811310976E+03    0.16172E-05   -0.31062E-06  7528   0.800E-03    0.443E-03
RMM:   4    -0.433811311014E+03   -0.38504E-07   -0.12232E-06  6628   0.491E-03    0.479E-03
RMM:   5    -0.433811310905E+03    0.10924E-06   -0.95441E-07  6587   0.495E-03
  23 F= -.43381131E+03 E0= -.43381611E+03  d E =-.798995E-03
 curvature:  -1.79 expect dE=-0.735E-03 dE for cont linesearch -0.511E-07
 trial: gam= 0.38035 g(F)=  0.411E-03 g(S)=  0.000E+00 ort = 0.860E-05 (trialstep = 0.155E+01)
 search vector abs. value=  0.792E-03
 bond charge predicted
       N       E                     dE             d eps       ncg     rms          rms(c)
DAV:   1    -0.433811613188E+03   -0.30217E-03   -0.77973E-02 10824   0.714E-01    0.651E-02
RMM:   2    -0.433811691309E+03   -0.78120E-04   -0.14994E-03 11018   0.162E-01    0.532E-02
RMM:   3    -0.433811748333E+03   -0.57025E-04   -0.47276E-04 14083   0.683E-02    0.681E-02
RMM:   4    -0.433811703506E+03    0.44828E-04   -0.14519E-04 12104   0.429E-02    0.415E-02
RMM:   5    -0.433811700248E+03    0.32580E-05   -0.89615E-05 12415   0.299E-02    0.375E-02
RMM:   6    -0.433811684016E+03    0.16232E-04   -0.44246E-05 11923   0.206E-02    0.218E-02
RMM:   7    -0.433811678566E+03    0.54493E-05   -0.19042E-05  9961   0.161E-02    0.127E-02
RMM:   8    -0.433811677516E+03    0.10507E-05   -0.69588E-06  8470   0.902E-03    0.887E-03
RMM:   9    -0.433811676921E+03    0.59439E-06   -0.31758E-06  7460   0.694E-03
  24 F= -.43381168E+03 E0= -.43381643E+03  d E =-.366016E-03
 trial-energy change:   -0.000366  1 .order   -0.000366   -0.000642   -0.000090
 step:   1.8016(harm=  1.8016)  dis= 0.00262  next Energy=  -433.811684 (dE=-0.373E-03)
 reached required accuracy - stopping structural energy minimisation
 augmentation electrons   19.755804020245179     
 soft         electrons   181.29707047469469     
 augmentation electrons   19.755804020245179     
 soft         electrons   181.29707047469469     
 augmentation electrons   19.755804020245179     
 soft         electrons   181.29707047469469     
 augmentation electrons   19.755804020245179     
 soft         electrons   181.29707047469469     
 augmentation electrons   19.755804020245179     
 soft         electrons   181.29707047469469     
 augmentation electrons   19.755804020245179     
 soft         electrons   181.29707047469469     
 augmentation electrons   19.755804020245179     
 soft         electrons   181.29707047469469     
 augmentation electrons   19.755804020245179     
 soft         electrons   181.29707047469469     
 augmentation electrons   19.755804020245179     
 soft         electrons   181.29707047469469     
 augmentation electrons   19.755804020245179     
 soft         electrons   181.29707047469469     
 augmentation electrons   19.755804020245179     
 soft         electrons   181.29707047469469     
 augmentation electrons   19.755804020245179     
 soft         electrons   181.29707047469469     
 augmentation electrons   19.755804020245179     
 soft         electrons   181.29707047469469     
 augmentation electrons   19.755804020245179     
 soft         electrons   181.29707047469469     
 augmentation electrons   19.755804020245179     
 soft         electrons   181.29707047469469     
 augmentation electrons   19.755804020245179     
 soft         electrons   181.29707047469469     
 augmentation electrons   19.755804020245179     
 soft         electrons   181.29707047469469     
 augmentation electrons   19.755804020245179     
 soft         electrons   181.29707047469469     
 augmentation electrons   19.755804020245179     
 soft         electrons   181.29707047469469     
 augmentation electrons   19.755804020245179     
 soft         electrons   181.29707047469469     
 augmentation electrons   19.755804020245179     
 soft         electrons   181.29707047469469     
 augmentation electrons   19.755804020245179     
 soft         electrons   181.29707047469469     
 augmentation electrons   19.755804020245179     
 soft         electrons   181.29707047469469     
 augmentation electrons   19.755804020245179     
 soft         electrons   181.29707047469469     
 augmentation electrons   19.755804020245179     
 soft         electrons   181.29707047469469     
 augmentation electrons   19.755804020245179     
 soft         electrons   181.29707047469469     
 augmentation electrons   19.755804020245179     
 soft         electrons   181.29707047469469     
 augmentation electrons   19.755804020245179     
 soft         electrons   181.29707047469469     
 augmentation electrons   19.755804020245179     
 soft         electrons   181.29707047469469     
 augmentation electrons   19.755804020245179     
 soft         electrons   181.29707047469469     
 augmentation electrons   19.755804020245179     
 soft         electrons   181.29707047469469     
 augmentation electrons   19.755804020245179     
 soft         electrons   181.29707047469469     
 augmentation electrons   19.755804020245179     
 soft         electrons   181.29707047469469     
 augmentation electrons   19.755804020245179     
 soft         electrons   181.29707047469469     
 augmentation electrons   19.755804020245179     
 soft         electrons   181.29707047469469     
 augmentation electrons   19.755804020245179     
 augmentation electrons   19.755804020245179     
 soft         electrons   181.29707047469469     
 augmentation electrons   19.755804020245179     
 soft         electrons   181.29707047469469     
 augmentation electrons   19.755804020245179     
 soft         electrons   181.29707047469469     
 augmentation electrons   19.755804020245179     
 soft         electrons   181.29707047469469     
 augmentation electrons   19.755804020245179     
 soft         electrons   181.29707047469469     
 augmentation electrons   19.755804020245179     
 soft         electrons   181.29707047469469     
 augmentation electrons   19.755804020245179     
 soft         electrons   181.29707047469469     
 augmentation electrons   19.755804020245179     
 soft         electrons   181.29707047469469     
 augmentation electrons   19.755804020245179     
 soft         electrons   181.29707047469469     
 augmentation electrons   19.755804020245179     
 soft         electrons   181.29707047469469     
 augmentation electrons   19.755804020245179     
 soft         electrons   181.29707047469469     
 augmentation electrons   19.755804020245179     
 soft         electrons   181.29707047469469     
 augmentation electrons   19.755804020245179     
 soft         electrons   181.29707047469469     
 augmentation electrons   19.755804020245179     
 soft         electrons   181.29707047469469     
 augmentation electrons   19.755804020245179     
 soft         electrons   181.29707047469469     
 augmentation electrons   19.755804020245179     
 soft         electrons   181.29707047469469     
 augmentation electrons   19.755804020245179     
 soft         electrons   181.29707047469469     
 augmentation electrons   19.755804020245179     
 soft         electrons   181.29707047469469     
 soft         electrons   181.29707047469469     
 total        electrons   201.05287449493989     
 total        electrons   201.05287449493989     
 total        electrons   201.05287449493989     
 total        electrons   201.05287449493989     
 total        electrons   201.05287449493989     
 total        electrons   201.05287449493989     
 total        electrons   201.05287449493989     
 total        electrons   201.05287449493989     
 total        electrons   201.05287449493989     
 total        electrons   201.05287449493989     
 total        electrons   201.05287449493989     
 total        electrons   201.05287449493989     
 total        electrons   201.05287449493989     
 total        electrons   201.05287449493989     
 total        electrons   201.05287449493989     
 total        electrons   201.05287449493989     
 total        electrons   201.05287449493989     
 total        electrons   201.05287449493989     
 total        electrons   201.05287449493989     
 total        electrons   201.05287449493989     
 total        electrons   201.05287449493989     
 total        electrons   201.05287449493989     
 total        electrons   201.05287449493989     
 total        electrons   201.05287449493989     
 total        electrons   201.05287449493989     
 total        electrons   201.05287449493989     
 total        electrons   201.05287449493989     
 total        electrons   201.05287449493989     
 total        electrons   201.05287449493989     
 total        electrons   201.05287449493989     
 total        electrons   201.05287449493989     
 total        electrons   201.05287449493989     
 total        electrons   201.05287449493989     
 total        electrons   201.05287449493989     
 total        electrons   201.05287449493989     
 total        electrons   201.05287449493989     
 total        electrons   201.05287449493989     
 total        electrons   201.05287449493989     
 total        electrons   201.05287449493989     
 total        electrons   201.05287449493989     
 total        electrons   201.05287449493989     
 total        electrons   201.05287449493989     
 total        electrons   201.05287449493989     
 total        electrons   201.05287449493989     
 total        electrons   201.05287449493989     
 total        electrons   201.05287449493989     
 total        electrons   201.05287449493989     
 total        electrons   201.05287449493989     
 total        electrons   201.05287449493989     
 total        electrons   201.05287449493989     
 total        electrons   201.05287449493989     
 total        electrons   201.05287449493989     
 total        electrons   201.05287449493989     
 total        electrons   201.05287449493989     
Note: The following floating-point exceptions are signalling: IEEE_OVERFLOW_FLAG
Note: The following floating-point exceptions are signalling: IEEE_OVERFLOW_FLAG
Note: The following floating-point exceptions are signalling: IEEE_OVERFLOW_FLAG
Note: The following floating-point exceptions are signalling: IEEE_OVERFLOW_FLAG
Note: The following floating-point exceptions are signalling: IEEE_OVERFLOW_FLAG
Note: The following floating-point exceptions are signalling: IEEE_OVERFLOW_FLAG
Note: The following floating-point exceptions are signalling: IEEE_OVERFLOW_FLAG
Note: The following floating-point exceptions are signalling: IEEE_OVERFLOW_FLAG
Note: The following floating-point exceptions are signalling: IEEE_OVERFLOW_FLAG
Note: The following floating-point exceptions are signalling: IEEE_OVERFLOW_FLAG
Note: The following floating-point exceptions are signalling: IEEE_OVERFLOW_FLAG
Note: The following floating-point exceptions are signalling: IEEE_OVERFLOW_FLAG
Note: The following floating-point exceptions are signalling: IEEE_OVERFLOW_FLAG
Note: The following floating-point exceptions are signalling: IEEE_OVERFLOW_FLAG
Note: The following floating-point exceptions are signalling: IEEE_OVERFLOW_FLAG
Note: The following floating-point exceptions are signalling: IEEE_OVERFLOW_FLAG
Note: The following floating-point exceptions are signalling: IEEE_OVERFLOW_FLAG
Note: The following floating-point exceptions are signalling: IEEE_OVERFLOW_FLAG
Note: The following floating-point exceptions are signalling: IEEE_OVERFLOW_FLAG
Note: The following floating-point exceptions are signalling: IEEE_OVERFLOW_FLAG
Note: The following floating-point exceptions are signalling: IEEE_OVERFLOW_FLAG
Note: The following floating-point exceptions are signalling: IEEE_OVERFLOW_FLAG
Note: The following floating-point exceptions are signalling: IEEE_OVERFLOW_FLAG
Note: The following floating-point exceptions are signalling: IEEE_OVERFLOW_FLAG
Note: The following floating-point exceptions are signalling: IEEE_OVERFLOW_FLAG
Note: The following floating-point exceptions are signalling: IEEE_OVERFLOW_FLAG
Note: The following floating-point exceptions are signalling: IEEE_OVERFLOW_FLAG
Note: The following floating-point exceptions are signalling: IEEE_OVERFLOW_FLAG
Note: The following floating-point exceptions are signalling: IEEE_OVERFLOW_FLAG
Note: The following floating-point exceptions are signalling: IEEE_OVERFLOW_FLAG
Note: The following floating-point exceptions are signalling: IEEE_OVERFLOW_FLAG
Note: The following floating-point exceptions are signalling: IEEE_OVERFLOW_FLAG
Note: The following floating-point exceptions are signalling: IEEE_OVERFLOW_FLAG
Note: The following floating-point exceptions are signalling: IEEE_OVERFLOW_FLAG
Note: The following floating-point exceptions are signalling: IEEE_OVERFLOW_FLAG
Note: The following floating-point exceptions are signalling: IEEE_OVERFLOW_FLAG
Note: The following floating-point exceptions are signalling: IEEE_OVERFLOW_FLAG
Note: The following floating-point exceptions are signalling: IEEE_OVERFLOW_FLAG
Note: The following floating-point exceptions are signalling: IEEE_OVERFLOW_FLAG
Note: The following floating-point exceptions are signalling: IEEE_OVERFLOW_FLAG
Note: The following floating-point exceptions are signalling: IEEE_OVERFLOW_FLAG
Note: The following floating-point exceptions are signalling: IEEE_OVERFLOW_FLAG
Note: The following floating-point exceptions are signalling: IEEE_OVERFLOW_FLAG
Note: The following floating-point exceptions are signalling: IEEE_OVERFLOW_FLAG
Note: The following floating-point exceptions are signalling: IEEE_OVERFLOW_FLAG
Note: The following floating-point exceptions are signalling: IEEE_OVERFLOW_FLAG
Note: The following floating-point exceptions are signalling: IEEE_OVERFLOW_FLAG
Note: The following floating-point exceptions are signalling: IEEE_OVERFLOW_FLAG
Note: The following floating-point exceptions are signalling: IEEE_OVERFLOW_FLAG
Note: The following floating-point exceptions are signalling: IEEE_OVERFLOW_FLAG
Note: The following floating-point exceptions are signalling: IEEE_OVERFLOW_FLAG
Note: The following floating-point exceptions are signalling: IEEE_OVERFLOW_FLAG
Note: The following floating-point exceptions are signalling: IEEE_OVERFLOW_FLAG
Note: The following floating-point exceptions are signalling: IEEE_OVERFLOW_FLAG
