   56   56    1    1
  0.1269428E+02  0.6078000E-09  0.6078000E-09  0.2222000E-08  0.5000000E-15
   1.0000000000000000E-004
  CAR 
 Name                                    
    200     41    132

  0.3742002E-15  0.3742002E-15  0.1262379E-14  0.1234568E-01
    1      -11.184145   1.000000
    2      -10.599697   1.000000
    3       -9.809861   1.000000
    4       -8.871482   1.000000
    5       -8.294139   1.000000
    6       -8.200653   1.000000
    7       -7.822319   1.000000
    8       -7.694627   1.000000
    9       -7.418167   1.000000
   10       -7.408368   1.000000
   11       -7.397089   1.000000
   12       -7.315992   1.000000
   13       -7.295548   1.000000
   14       -7.245087   1.000000
   15       -7.064300   1.000000
   16       -7.044370   1.000000
   17       -6.968665   1.000000
   18       -6.874895   1.000000
   19       -6.639832   1.000000
   20       -6.619973   1.000000
   21       -6.432730   1.000000
   22       -6.111199   1.000000
   23       -5.873152   1.000000
   24       -5.715446   1.000000
   25       -5.579967   1.000000
   26       -5.542398   1.000000
   27       -5.451828   1.000000
   28       -5.377466   1.000000
   29       -5.308129   1.000000
   30       -4.927252   1.000000
   31       -4.655105   1.000000
   32       -4.320309   1.000000
   33       -4.181587   1.000000
   34       -4.144856   1.000000
   35       -4.078556   1.000000
   36       -4.014346   1.000000
   37       -3.779335   1.000000
   38       -3.148420   1.000000
   39       -2.866274   1.000000
   40       -2.797567   1.000000
   41       -2.634094   1.000000
   42       -2.387543   1.000000
   43       -2.377112   1.000000
   44       -2.209937   1.000000
   45       -2.125342   1.000000
   46       -2.083734   1.000000
   47       -2.057988   1.000000
   48       -1.907563   1.000000
   49       -1.688235   1.000000
   50       -1.654883   1.000000
   51       -1.575397   1.000000
   52       -1.553616   1.000000
   53       -1.522076   1.000000
   54       -1.439311   1.000000
   55       -1.322140   1.000000
   56       -1.287905   1.000000
   57       -1.199329   1.000000
   58       -1.135711   1.000000
   59       -1.072892   1.000000
   60       -1.017683   1.000000
   61       -1.005836   1.000000
   62       -0.905105   1.000000
   63       -0.855333   1.000000
   64       -0.772302   1.000000
   65       -0.712472   1.000000
   66       -0.691203   1.000000
   67       -0.529400   1.000000
   68       -0.489590   1.000000
   69       -0.467889   1.000000
   70       -0.373134   1.000000
   71       -0.322356   1.000000
   72       -0.296358   1.000000
   73       -0.262170   1.000000
   74        0.026415   1.000000
   75        0.080580   1.000000
   76        0.167050   1.000000
   77        0.263533   1.000000
   78        0.277715   1.000000
   79        0.372779   1.000000
   80        0.602530   1.000000
   81        0.625000   1.000000
   82        0.814101   1.000000
   83        1.053970   1.000000
   84        1.184588   1.000000
   85        1.384653   1.000000
   86        1.516220   1.000000
   87        1.553468   1.000000
   88        1.685184   1.000000
   89        1.727515   1.000000
   90        1.847002   1.000000
   91        1.915071   1.000000
   92        1.941116   1.000000
   93        1.972679   1.000000
   94        1.978831   1.000000
   95        2.093208   1.000000
   96        2.134961   1.000000
   97        2.430816   1.001877
   98        2.544123   1.013596
   99        2.990434   0.183615
  100        3.071717   0.006008
  101        3.113976  -0.027719
  102        3.272820  -0.013624
  103        3.322462  -0.006344
  104        3.494579  -0.000137
  105        3.530902  -0.000049
  106        3.591565  -0.000008
  107        3.631021  -0.000002
  108        3.867586  -0.000000
  109        3.898817  -0.000000
  110        3.935048  -0.000000
  111        3.947236  -0.000000
  112        3.997081  -0.000000
  113        4.022569  -0.000000
  114        4.079624  -0.000000
  115        4.126768  -0.000000
  116        4.163007  -0.000000
  117        4.173693  -0.000000
  118        4.296236  -0.000000
  119        4.302852  -0.000000
  120        4.383198  -0.000000
  121        4.471581  -0.000000
  122        4.481168  -0.000000
  123        4.586869  -0.000000
  124        4.655278  -0.000000
  125        4.670328  -0.000000
  126        4.679383  -0.000000
  127        5.238559  -0.000000
  128        5.875377  -0.000000
  129        6.355827  -0.000000
  130        6.462855  -0.000000
  131        6.595795  -0.000000
  132        6.824094  -0.000000

  0.1111111E+00  0.3756941E-15  0.1262379E-14  0.2469136E-01
    1      -11.126859   1.000000
    2      -10.547342   1.000000
    3       -9.768210   1.000000
    4       -8.842588   1.000000
    5       -8.264102   1.000000
    6       -8.220968   1.000000
    7       -7.967429   1.000000
    8       -7.962211   1.000000
    9       -7.703862   1.000000
   10       -7.550999   1.000000
   11       -7.521605   1.000000
   12       -7.510405   1.000000
   13       -7.462293   1.000000
   14       -7.445029   1.000000
   15       -6.991056   1.000000
   16       -6.793184   1.000000
   17       -6.733633   1.000000
   18       -6.574315   1.000000
   19       -6.465977   1.000000
   20       -6.419865   1.000000
   21       -6.293224   1.000000
   22       -6.119652   1.000000
   23       -5.804843   1.000000
   24       -5.727087   1.000000
   25       -5.606689   1.000000
   26       -5.449777   1.000000
   27       -5.442666   1.000000
   28       -5.348415   1.000000
   29       -5.269173   1.000000
   30       -4.872502   1.000000
   31       -4.625378   1.000000
   32       -4.146637   1.000000
   33       -4.121588   1.000000
   34       -4.031940   1.000000
   35       -3.946720   1.000000
   36       -3.884688   1.000000
   37       -3.651551   1.000000
   38       -3.136352   1.000000
   39       -2.880174   1.000000
   40       -2.797342   1.000000
   41       -2.658289   1.000000
   42       -2.490704   1.000000
   43       -2.378710   1.000000
   44       -2.304845   1.000000
   45       -2.180863   1.000000
   46       -2.149163   1.000000
   47       -2.079258   1.000000
   48       -2.024474   1.000000
   49       -1.792954   1.000000
   50       -1.672072   1.000000
   51       -1.640964   1.000000
   52       -1.580025   1.000000
   53       -1.522682   1.000000
   54       -1.403472   1.000000
   55       -1.316379   1.000000
   56       -1.292903   1.000000
   57       -1.226094   1.000000
   58       -1.132283   1.000000
   59       -1.085160   1.000000
   60       -1.045886   1.000000
   61       -0.995457   1.000000
   62       -0.977328   1.000000
   63       -0.885587   1.000000
   64       -0.816214   1.000000
   65       -0.740830   1.000000
   66       -0.712843   1.000000
   67       -0.636983   1.000000
   68       -0.564860   1.000000
   69       -0.471569   1.000000
   70       -0.383030   1.000000
   71       -0.351703   1.000000
   72       -0.274939   1.000000
   73       -0.176068   1.000000
   74       -0.115457   1.000000
   75        0.036503   1.000000
   76        0.116934   1.000000
   77        0.218503   1.000000
   78        0.286078   1.000000
   79        0.429848   1.000000
   80        0.511111   1.000000
   81        0.584862   1.000000
   82        0.758390   1.000000
   83        0.871361   1.000000
   84        1.173111   1.000000
   85        1.323208   1.000000
   86        1.410045   1.000000
   87        1.450544   1.000000
   88        1.530519   1.000000
   89        1.640538   1.000000
   90        1.764034   1.000000
   91        1.861928   1.000000
   92        1.870972   1.000000
   93        1.927160   1.000000
   94        1.982478   1.000000
   95        2.130149   1.000000
   96        2.253029   1.000018
   97        2.680624   1.034207
   98        2.741284   0.998765
   99        2.989380   0.186976
  100        3.062847   0.017608
  101        3.115049  -0.028180
  102        3.167254  -0.034795
  103        3.263464  -0.015427
  104        3.348226  -0.004000
  105        3.631712  -0.000002
  106        3.680731  -0.000000
  107        3.795999  -0.000000
  108        3.862719  -0.000000
  109        3.885754  -0.000000
  110        3.905029  -0.000000
  111        3.928676  -0.000000
  112        3.982200  -0.000000
  113        4.013210  -0.000000
  114        4.042624  -0.000000
  115        4.095499  -0.000000
  116        4.129366  -0.000000
  117        4.180451  -0.000000
  118        4.189984  -0.000000
  119        4.256283  -0.000000
  120        4.329628  -0.000000
  121        4.348896  -0.000000
  122        4.382173  -0.000000
  123        4.444595  -0.000000
  124        4.553600  -0.000000
  125        4.609535  -0.000000
  126        4.725855  -0.000000
  127        5.254842  -0.000000
  128        5.391648  -0.000000
  129        6.033424  -0.000000
  130        6.488689  -0.000000
  131        6.724416  -0.000000
  132        6.837275  -0.000000

  0.2222222E+00  0.3503827E-15  0.1262379E-14  0.2469136E-01
    1      -10.956958   1.000000
    2      -10.392591   1.000000
    3       -9.646456   1.000000
    4       -8.765068   1.000000
    5       -8.625301   1.000000
    6       -8.390729   1.000000
    7       -8.329668   1.000000
    8       -8.141924   1.000000
    9       -7.792257   1.000000
   10       -7.783383   1.000000
   11       -7.725852   1.000000
   12       -7.710289   1.000000
   13       -7.643892   1.000000
   14       -7.602294   1.000000
   15       -7.068926   1.000000
   16       -6.720808   1.000000
   17       -6.602378   1.000000
   18       -6.336408   1.000000
   19       -6.290799   1.000000
   20       -6.185971   1.000000
   21       -6.094125   1.000000
   22       -5.760889   1.000000
   23       -5.628565   1.000000
   24       -5.528254   1.000000
   25       -5.460330   1.000000
   26       -5.359452   1.000000
   27       -5.286679   1.000000
   28       -5.250371   1.000000
   29       -4.868514   1.000000
   30       -4.676013   1.000000
   31       -4.502462   1.000000
   32       -3.951020   1.000000
   33       -3.910143   1.000000
   34       -3.844078   1.000000
   35       -3.710514   1.000000
   36       -3.448929   1.000000
   37       -3.263430   1.000000
   38       -3.114571   1.000000
   39       -2.952837   1.000000
   40       -2.916352   1.000000
   41       -2.828521   1.000000
   42       -2.771402   1.000000
   43       -2.666365   1.000000
   44       -2.477760   1.000000
   45       -2.323793   1.000000
   46       -2.183539   1.000000
   47       -2.145601   1.000000
   48       -2.026736   1.000000
   49       -1.846412   1.000000
   50       -1.774977   1.000000
   51       -1.673923   1.000000
   52       -1.606806   1.000000
   53       -1.593740   1.000000
   54       -1.554074   1.000000
   55       -1.460006   1.000000
   56       -1.408490   1.000000
   57       -1.267466   1.000000
   58       -1.181189   1.000000
   59       -1.135938   1.000000
   60       -1.116330   1.000000
   61       -1.069441   1.000000
   62       -1.053569   1.000000
   63       -0.966798   1.000000
   64       -0.922592   1.000000
   65       -0.840234   1.000000
   66       -0.765309   1.000000
   67       -0.730542   1.000000
   68       -0.670549   1.000000
   69       -0.628109   1.000000
   70       -0.508555   1.000000
   71       -0.475785   1.000000
   72       -0.296303   1.000000
   73       -0.239429   1.000000
   74       -0.156590   1.000000
   75       -0.068293   1.000000
   76       -0.009653   1.000000
   77        0.111440   1.000000
   78        0.319446   1.000000
   79        0.391669   1.000000
   80        0.399950   1.000000
   81        0.609041   1.000000
   82        0.725744   1.000000
   83        0.798582   1.000000
   84        0.993846   1.000000
   85        1.061739   1.000000
   86        1.218420   1.000000
   87        1.289368   1.000000
   88        1.405980   1.000000
   89        1.565799   1.000000
   90        1.688066   1.000000
   91        1.753119   1.000000
   92        1.809145   1.000000
   93        1.850761   1.000000
   94        1.901147   1.000000
   95        2.188685   1.000002
   96        2.361144   1.000377
   97        2.617680   1.029631
   98        2.721545   1.017002
   99        2.806027   0.876942
  100        3.070327   0.007711
  101        3.155294  -0.035446
  102        3.365265  -0.002882
  103        3.436898  -0.000601
  104        3.497220  -0.000128
  105        3.616527  -0.000003
  106        3.656781  -0.000001
  107        3.718273  -0.000000
  108        3.737046  -0.000000
  109        3.766824  -0.000000
  110        3.802858  -0.000000
  111        3.856488  -0.000000
  112        3.938816  -0.000000
  113        4.011793  -0.000000
  114        4.031243  -0.000000
  115        4.056146  -0.000000
  116        4.099416  -0.000000
  117        4.125186  -0.000000
  118        4.194137  -0.000000
  119        4.212176  -0.000000
  120        4.246370  -0.000000
  121        4.306958  -0.000000
  122        4.343784  -0.000000
  123        4.406940  -0.000000
  124        4.430884  -0.000000
  125        4.496228  -0.000000
  126        4.592627  -0.000000
  127        4.647515  -0.000000
  128        4.741912  -0.000000
  129        4.888064  -0.000000
  130        5.010932  -0.000000
  131        5.229371  -0.000000
  132        6.309267  -0.000000

  0.3333333E+00  0.3779629E-15  0.1262379E-14  0.2469136E-01
    1      -10.680975   1.000000
    2      -10.142963   1.000000
    3       -9.455124   1.000000
    4       -9.244743   1.000000
    5       -8.885901   1.000000
    6       -8.653285   1.000000
    7       -8.555011   1.000000
    8       -7.980804   1.000000
    9       -7.939772   1.000000
   10       -7.902373   1.000000
   11       -7.884275   1.000000
   12       -7.813337   1.000000
   13       -7.736955   1.000000
   14       -7.647048   1.000000
   15       -7.239483   1.000000
   16       -6.969547   1.000000
   17       -6.906681   1.000000
   18       -6.086328   1.000000
   19       -6.068665   1.000000
   20       -5.886232   1.000000
   21       -5.700796   1.000000
   22       -5.613759   1.000000
   23       -5.475626   1.000000
   24       -5.408202   1.000000
   25       -5.346502   1.000000
   26       -5.208176   1.000000
   27       -4.735762   1.000000
   28       -4.619763   1.000000
   29       -4.393255   1.000000
   30       -4.372819   1.000000
   31       -4.144335   1.000000
   32       -3.704585   1.000000
   33       -3.638862   1.000000
   34       -3.619756   1.000000
   35       -3.458871   1.000000
   36       -3.385826   1.000000
   37       -3.310347   1.000000
   38       -3.251244   1.000000
   39       -3.208047   1.000000
   40       -3.146507   1.000000
   41       -3.038042   1.000000
   42       -2.982831   1.000000
   43       -2.682904   1.000000
   44       -2.415351   1.000000
   45       -2.316523   1.000000
   46       -2.214055   1.000000
   47       -2.190975   1.000000
   48       -2.110853   1.000000
   49       -2.043470   1.000000
   50       -1.924891   1.000000
   51       -1.830031   1.000000
   52       -1.756044   1.000000
   53       -1.699023   1.000000
   54       -1.646594   1.000000
   55       -1.597918   1.000000
   56       -1.531431   1.000000
   57       -1.459031   1.000000
   58       -1.345486   1.000000
   59       -1.293295   1.000000
   60       -1.233087   1.000000
   61       -1.188772   1.000000
   62       -1.139180   1.000000
   63       -1.097573   1.000000
   64       -1.041873   1.000000
   65       -1.017863   1.000000
   66       -0.884019   1.000000
   67       -0.840793   1.000000
   68       -0.739128   1.000000
   69       -0.686999   1.000000
   70       -0.600223   1.000000
   71       -0.442624   1.000000
   72       -0.323600   1.000000
   73       -0.263923   1.000000
   74       -0.204753   1.000000
   75       -0.096682   1.000000
   76       -0.074503   1.000000
   77       -0.019536   1.000000
   78        0.058127   1.000000
   79        0.292660   1.000000
   80        0.425018   1.000000
   81        0.478445   1.000000
   82        0.728373   1.000000
   83        0.801723   1.000000
   84        0.893405   1.000000
   85        1.001947   1.000000
   86        1.231496   1.000000
   87        1.274300   1.000000
   88        1.334177   1.000000
   89        1.521680   1.000000
   90        1.572910   1.000000
   91        1.617072   1.000000
   92        1.764465   1.000000
   93        1.784769   1.000000
   94        1.883041   1.000000
   95        2.100631   1.000000
   96        2.435573   1.002073
   97        2.523728   1.010137
   98        2.577516   1.020540
   99        2.634451   1.032795
  100        2.971004   0.249471
  101        3.148590  -0.035362
  102        3.185379  -0.032336
  103        3.273370  -0.013522
  104        3.356892  -0.003393
  105        3.456655  -0.000370
  106        3.523982  -0.000060
  107        3.625822  -0.000002
  108        3.654663  -0.000001
  109        3.709836  -0.000000
  110        3.771625  -0.000000
  111        3.822932  -0.000000
  112        3.868120  -0.000000
  113        3.901529  -0.000000
  114        4.012646  -0.000000
  115        4.027811  -0.000000
  116        4.124466  -0.000000
  117        4.146169  -0.000000
  118        4.202194  -0.000000
  119        4.270659  -0.000000
  120        4.276571  -0.000000
  121        4.306175  -0.000000
  122        4.339922  -0.000000
  123        4.427193  -0.000000
  124        4.490496  -0.000000
  125        4.527601  -0.000000
  126        4.609509  -0.000000
  127        4.682734  -0.000000
  128        4.721039  -0.000000
  129        4.902861  -0.000000
  130        4.984315  -0.000000
  131        5.165626  -0.000000
  132        5.446610  -0.000000

  0.4444444E+00  0.3698634E-15  0.1262379E-14  0.2469136E-01
    1      -10.321291   1.000000
    2       -9.826942   1.000000
    3       -9.769311   1.000000
    4       -9.352565   1.000000
    5       -9.204961   1.000000
    6       -8.862707   1.000000
    7       -8.534273   1.000000
    8       -8.036519   1.000000
    9       -7.991370   1.000000
   10       -7.938752   1.000000
   11       -7.862783   1.000000
   12       -7.805663   1.000000
   13       -7.701282   1.000000
   14       -7.639604   1.000000
   15       -7.402753   1.000000
   16       -7.354115   1.000000
   17       -6.980858   1.000000
   18       -6.016028   1.000000
   19       -6.002615   1.000000
   20       -5.790137   1.000000
   21       -5.414996   1.000000
   22       -5.322512   1.000000
   23       -5.265408   1.000000
   24       -5.259638   1.000000
   25       -5.228199   1.000000
   26       -5.163522   1.000000
   27       -4.314616   1.000000
   28       -4.105391   1.000000
   29       -3.910878   1.000000
   30       -3.869720   1.000000
   31       -3.827530   1.000000
   32       -3.781742   1.000000
   33       -3.639167   1.000000
   34       -3.583489   1.000000
   35       -3.519291   1.000000
   36       -3.424787   1.000000
   37       -3.405710   1.000000
   38       -3.301274   1.000000
   39       -3.261734   1.000000
   40       -3.197464   1.000000
   41       -3.118383   1.000000
   42       -3.086117   1.000000
   43       -2.954438   1.000000
   44       -2.808800   1.000000
   45       -2.475387   1.000000
   46       -2.330563   1.000000
   47       -2.197841   1.000000
   48       -2.124229   1.000000
   49       -2.032590   1.000000
   50       -1.943631   1.000000
   51       -1.896822   1.000000
   52       -1.819638   1.000000
   53       -1.722374   1.000000
   54       -1.699396   1.000000
   55       -1.629346   1.000000
   56       -1.552289   1.000000
   57       -1.516012   1.000000
   58       -1.466605   1.000000
   59       -1.426545   1.000000
   60       -1.354925   1.000000
   61       -1.264238   1.000000
   62       -1.220911   1.000000
   63       -1.171396   1.000000
   64       -1.122193   1.000000
   65       -1.081489   1.000000
   66       -0.935216   1.000000
   67       -0.880306   1.000000
   68       -0.814968   1.000000
   69       -0.736882   1.000000
   70       -0.668067   1.000000
   71       -0.534393   1.000000
   72       -0.402387   1.000000
   73       -0.287150   1.000000
   74       -0.217217   1.000000
   75       -0.187106   1.000000
   76       -0.138729   1.000000
   77       -0.075999   1.000000
   78        0.070032   1.000000
   79        0.155325   1.000000
   80        0.450157   1.000000
   81        0.539416   1.000000
   82        0.625124   1.000000
   83        0.751747   1.000000
   84        0.935754   1.000000
   85        1.042472   1.000000
   86        1.125376   1.000000
   87        1.318718   1.000000
   88        1.375316   1.000000
   89        1.399433   1.000000
   90        1.545953   1.000000
   91        1.638352   1.000000
   92        1.679367   1.000000
   93        1.865007   1.000000
   94        1.901042   1.000000
   95        2.202094   1.000004
   96        2.367088   1.000437
   97        2.472718   1.004297
   98        2.616323   1.029345
   99        2.645348   1.034328
  100        2.712964   1.022682
  101        2.751278   0.986473
  102        3.000174   0.153757
  103        3.082530  -0.005835
  104        3.211045  -0.027091
  105        3.361792  -0.003085
  106        3.433204  -0.000656
  107        3.544675  -0.000033
  108        3.579420  -0.000011
  109        3.642280  -0.000001
  110        3.689859  -0.000000
  111        3.750599  -0.000000
  112        3.783014  -0.000000
  113        3.839963  -0.000000
  114        3.952264  -0.000000
  115        3.974233  -0.000000
  116        4.073373  -0.000000
  117        4.130258  -0.000000
  118        4.158299  -0.000000
  119        4.223700  -0.000000
  120        4.297558  -0.000000
  121        4.362849  -0.000000
  122        4.388467  -0.000000
  123        4.453510  -0.000000
  124        4.542142  -0.000000
  125        4.653869  -0.000000
  126        4.682016  -0.000000
  127        4.717489  -0.000000
  128        4.774851  -0.000000
  129        5.009898  -0.000000
  130        5.213073  -0.000000
  131        5.317323  -0.000000
  132        5.535177  -0.000000

  0.3742002E-15  0.1111111E+00  0.1262379E-14  0.2469136E-01
    1      -11.126858   1.000000
    2      -10.547323   1.000000
    3       -9.767927   1.000000
    4       -8.836221   1.000000
    5       -8.264032   1.000000
    6       -8.220839   1.000000
    7       -7.967835   1.000000
    8       -7.959244   1.000000
    9       -7.704136   1.000000
   10       -7.551975   1.000000
   11       -7.522253   1.000000
   12       -7.511435   1.000000
   13       -7.463370   1.000000
   14       -7.445429   1.000000
   15       -7.064329   1.000000
   16       -6.792759   1.000000
   17       -6.748251   1.000000
   18       -6.558057   1.000000
   19       -6.469644   1.000000
   20       -6.373564   1.000000
   21       -6.224170   1.000000
   22       -6.100334   1.000000
   23       -5.840675   1.000000
   24       -5.740787   1.000000
   25       -5.601445   1.000000
   26       -5.462182   1.000000
   27       -5.441961   1.000000
   28       -5.349146   1.000000
   29       -5.268724   1.000000
   30       -4.872624   1.000000
   31       -4.646159   1.000000
   32       -4.157865   1.000000
   33       -4.123336   1.000000
   34       -4.043021   1.000000
   35       -3.925712   1.000000
   36       -3.837571   1.000000
   37       -3.677726   1.000000
   38       -3.135604   1.000000
   39       -2.879418   1.000000
   40       -2.790790   1.000000
   41       -2.665651   1.000000
   42       -2.496128   1.000000
   43       -2.376592   1.000000
   44       -2.304984   1.000000
   45       -2.180281   1.000000
   46       -2.141329   1.000000
   47       -2.092504   1.000000
   48       -2.005734   1.000000
   49       -1.834433   1.000000
   50       -1.661212   1.000000
   51       -1.631970   1.000000
   52       -1.568197   1.000000
   53       -1.518047   1.000000
   54       -1.401093   1.000000
   55       -1.313658   1.000000
   56       -1.295298   1.000000
   57       -1.226554   1.000000
   58       -1.129595   1.000000
   59       -1.092089   1.000000
   60       -1.045700   1.000000
   61       -0.999994   1.000000
   62       -0.979901   1.000000
   63       -0.888778   1.000000
   64       -0.788792   1.000000
   65       -0.741625   1.000000
   66       -0.715768   1.000000
   67       -0.644552   1.000000
   68       -0.563252   1.000000
   69       -0.461653   1.000000
   70       -0.409137   1.000000
   71       -0.327050   1.000000
   72       -0.267757   1.000000
   73       -0.210251   1.000000
   74       -0.121322   1.000000
   75        0.031733   1.000000
   76        0.114643   1.000000
   77        0.199515   1.000000
   78        0.276456   1.000000
   79        0.427037   1.000000
   80        0.525464   1.000000
   81        0.615852   1.000000
   82        0.723750   1.000000
   83        0.899524   1.000000
   84        1.156303   1.000000
   85        1.319628   1.000000
   86        1.400526   1.000000
   87        1.472347   1.000000
   88        1.543146   1.000000
   89        1.659906   1.000000
   90        1.761088   1.000000
   91        1.855305   1.000000
   92        1.870420   1.000000
   93        1.927413   1.000000
   94        1.978764   1.000000
   95        2.144129   1.000000
   96        2.252708   1.000018
   97        2.620296   1.030172
   98        2.766425   0.963525
   99        2.982588   0.209242
  100        3.041438   0.053155
  101        3.137081  -0.034300
  102        3.207932  -0.027789
  103        3.240578  -0.020315
  104        3.335038  -0.005092
  105        3.640324  -0.000001
  106        3.714287  -0.000000
  107        3.778563  -0.000000
  108        3.866302  -0.000000
  109        3.886437  -0.000000
  110        3.909320  -0.000000
  111        3.939588  -0.000000
  112        3.982579  -0.000000
  113        4.005969  -0.000000
  114        4.051299  -0.000000
  115        4.096591  -0.000000
  116        4.140737  -0.000000
  117        4.160739  -0.000000
  118        4.193061  -0.000000
  119        4.277929  -0.000000
  120        4.317499  -0.000000
  121        4.326580  -0.000000
  122        4.406565  -0.000000
  123        4.468167  -0.000000
  124        4.502944  -0.000000
  125        4.593425  -0.000000
  126        4.675813  -0.000000
  127        5.015294  -0.000000
  128        6.028119  -0.000000
  129        6.321299  -0.000000
  130        6.474302  -0.000000
  131        6.771364  -0.000000
  132        6.823729  -0.000000

  0.1111111E+00  0.1111111E+00  0.1262379E-14  0.2469136E-01
    1      -11.012464   1.000000
    2      -10.443458   1.000000
    3       -9.685638   1.000000
    4       -8.779132   1.000000
    5       -8.351891   1.000000
    6       -8.266569   1.000000
    7       -8.202341   1.000000
    8       -8.186002   1.000000
    9       -8.092535   1.000000
   10       -7.912174   1.000000
   11       -7.795633   1.000000
   12       -7.594394   1.000000
   13       -7.362141   1.000000
   14       -7.164721   1.000000
   15       -7.070048   1.000000
   16       -6.957607   1.000000
   17       -6.574440   1.000000
   18       -6.487607   1.000000
   19       -6.413769   1.000000
   20       -6.258278   1.000000
   21       -5.942388   1.000000
   22       -5.834147   1.000000
   23       -5.761833   1.000000
   24       -5.600268   1.000000
   25       -5.495984   1.000000
   26       -5.350117   1.000000
   27       -5.253184   1.000000
   28       -5.217414   1.000000
   29       -5.061588   1.000000
   30       -4.803176   1.000000
   31       -4.720443   1.000000
   32       -4.248165   1.000000
   33       -3.879629   1.000000
   34       -3.687337   1.000000
   35       -3.644701   1.000000
   36       -3.603298   1.000000
   37       -3.391920   1.000000
   38       -3.176219   1.000000
   39       -2.970985   1.000000
   40       -2.933790   1.000000
   41       -2.827661   1.000000
   42       -2.744198   1.000000
   43       -2.530427   1.000000
   44       -2.279224   1.000000
   45       -2.144329   1.000000
   46       -2.115385   1.000000
   47       -2.083928   1.000000
   48       -2.021853   1.000000
   49       -1.902486   1.000000
   50       -1.825871   1.000000
   51       -1.702758   1.000000
   52       -1.623044   1.000000
   53       -1.520612   1.000000
   54       -1.470862   1.000000
   55       -1.433397   1.000000
   56       -1.339481   1.000000
   57       -1.315152   1.000000
   58       -1.252955   1.000000
   59       -1.146950   1.000000
   60       -1.017846   1.000000
   61       -0.979849   1.000000
   62       -0.926950   1.000000
   63       -0.921736   1.000000
   64       -0.850704   1.000000
   65       -0.819447   1.000000
   66       -0.778369   1.000000
   67       -0.735578   1.000000
   68       -0.675351   1.000000
   69       -0.578428   1.000000
   70       -0.482278   1.000000
   71       -0.366847   1.000000
   72       -0.322488   1.000000
   73       -0.264598   1.000000
   74       -0.208730   1.000000
   75       -0.065587   1.000000
   76       -0.012452   1.000000
   77        0.133447   1.000000
   78        0.314997   1.000000
   79        0.445773   1.000000
   80        0.502204   1.000000
   81        0.598710   1.000000
   82        0.693875   1.000000
   83        0.850398   1.000000
   84        0.870172   1.000000
   85        1.110660   1.000000
   86        1.237737   1.000000
   87        1.323773   1.000000
   88        1.578053   1.000000
   89        1.642910   1.000000
   90        1.716482   1.000000
   91        1.776953   1.000000
   92        1.780076   1.000000
   93        1.844068   1.000000
   94        1.953793   1.000000
   95        2.022110   1.000000
   96        2.432207   1.001932
   97        2.616350   1.029351
   98        2.790761   0.914987