   75   75    1    1
  0.2059393E+02  0.1036705E-08  0.2428040E-08  0.6136055E-09  0.5000000E-15
   1.0000000000000000E-004
  CAR 
 Name                                    
    279     23    180

  0.3742002E-15  0.1262379E-14  0.3742002E-15  0.2222222E-01
    1      -13.876432   1.000000
    2      -12.737471   1.000000
    3      -12.683685   1.000000
    4      -12.674351   1.000000
    5      -11.751603   1.000000
    6      -11.709441   1.000000
    7      -11.507428   1.000000
    8      -11.334639   1.000000
    9      -11.309833   1.000000
   10      -11.278120   1.000000
   11      -11.150287   1.000000
   12      -10.855819   1.000000
   13      -10.809483   1.000000
   14      -10.541206   1.000000
   15      -10.534160   1.000000
   16      -10.333134   1.000000
   17      -10.253474   1.000000
   18      -10.017896   1.000000
   19       -9.949191   1.000000
   20       -9.850217   1.000000
   21       -9.486647   1.000000
   22       -9.446793   1.000000
   23       -9.374917   1.000000
   24       -9.332160   1.000000
   25       -8.985676   1.000000
   26       -8.815790   1.000000
   27       -8.659822   1.000000
   28       -8.467697   1.000000
   29       -8.272711   1.000000
   30       -8.001552   1.000000
   31       -7.967553   1.000000
   32       -7.680747   1.000000
   33       -7.607149   1.000000
   34       -7.606377   1.000000
   35       -7.485341   1.000000
   36       -7.046493   1.000000
   37       -7.027922   1.000000
   38       -6.847641   1.000000
   39       -6.600758   1.000000
   40       -6.538705   1.000000
   41       -6.516391   1.000000
   42       -6.515785   1.000000
   43       -6.440492   1.000000
   44       -6.286622   1.000000
   45       -6.257624   1.000000
   46       -6.126422   1.000000
   47       -6.012825   1.000000
   48       -5.976612   1.000000
   49       -5.970110   1.000000
   50       -5.919812   1.000000
   51       -5.894230   1.000000
   52       -5.636832   1.000000
   53       -5.590542   1.000000
   54       -5.486581   1.000000
   55       -5.449534   1.000000
   56       -5.441838   1.000000
   57       -5.324594   1.000000
   58       -5.233802   1.000000
   59       -5.174917   1.000000
   60       -5.079516   1.000000
   61       -5.048963   1.000000
   62       -5.010643   1.000000
   63       -4.879938   1.000000
   64       -4.552818   1.000000
   65       -4.509850   1.000000
   66       -4.378318   1.000000
   67       -4.356484   1.000000
   68       -4.337543   1.000000
   69       -4.275391   1.000000
   70       -4.035326   1.000000
   71       -3.962895   1.000000
   72       -3.865328   1.000000
   73       -3.839444   1.000000
   74       -3.812948   1.000000
   75       -3.780991   1.000000
   76       -3.766159   1.000000
   77       -3.746110   1.000000
   78       -3.713016   1.000000
   79       -3.684513   1.000000
   80       -3.519707   1.000000
   81       -3.497738   1.000000
   82       -3.420832   1.000000
   83       -3.391468   1.000000
   84       -3.382131   1.000000
   85       -3.321061   1.000000
   86       -3.316962   1.000000
   87       -3.314521   1.000000
   88       -3.303854   1.000000
   89       -3.271852   1.000000
   90       -3.212958   1.000000
   91       -3.204853   1.000000
   92       -3.075028   1.000000
   93       -3.000611   1.000000
   94       -2.852011   1.000000
   95       -2.766678   1.000000
   96       -2.742869   1.000000
   97       -2.740495   1.000000
   98       -2.563643   1.000000
   99       -2.522425   1.000000
  100       -2.405549   1.000000
  101       -2.241335   1.000000
  102       -2.143936   1.000000
  103       -2.121592   1.000000
  104       -2.090997   1.000000
  105       -2.047914   1.000000
  106       -1.958503   1.000000
  107       -1.879410   1.000000
  108       -1.866356   1.000000
  109       -1.862513   1.000000
  110       -1.824082   1.000000
  111       -1.781517   1.000000
  112       -1.764204   1.000000
  113       -1.590262   1.000000
  114       -1.588799   1.000000
  115       -1.539043   1.000000
  116       -1.404902   1.000000
  117       -1.385065   1.000000
  118       -1.374396   1.000000
  119       -1.242819   1.000000
  120       -1.234663   1.000000
  121       -1.192011   1.000000
  122       -0.940927   1.000000
  123       -0.801852   1.000000
  124       -0.734829   1.000000
  125       -0.617791   1.000000
  126       -0.475100   1.000000
  127       -0.381031   1.000000
  128       -0.269153   1.000000
  129       -0.242544   1.000000
  130       -0.134204   1.000000
  131        0.117826   1.000000
  132        0.119851   1.000000
  133        0.144459   1.000000
  134        0.297668   1.000570
  135        0.472942   1.011385
  136        0.474180   1.009181
  137        0.499667   0.934140
  138        0.550939   0.600711
  139        0.587381   0.299812
  140        0.667562  -0.029287
  141        0.676094  -0.033945
  142        0.741335  -0.015054
  143        0.802393  -0.001831
  144        0.812406  -0.001186
  145        0.813891  -0.001109
  146        0.823506  -0.000713
  147        0.842192  -0.000284
  148        0.875934  -0.000044
  149        1.037685  -0.000000
  150        1.070566  -0.000000
  151        1.216492  -0.000000
  152        1.274067  -0.000000
  153        1.295562  -0.000000
  154        1.323564  -0.000000
  155        1.372827  -0.000000
  156        1.408553  -0.000000
  157        1.419152  -0.000000
  158        1.516029  -0.000000
  159        1.532970  -0.000000
  160        1.582979  -0.000000
  161        1.588469  -0.000000
  162        1.595597  -0.000000
  163        1.609869  -0.000000
  164        1.621004  -0.000000
  165        1.622191  -0.000000
  166        1.745429  -0.000000
  167        1.818352  -0.000000
  168        1.856701  -0.000000
  169        1.881052  -0.000000
  170        1.905726  -0.000000
  171        1.934301  -0.000000
  172        1.949292  -0.000000
  173        2.001751  -0.000000
  174        2.410841  -0.000000
  175        2.450332  -0.000000
  176        2.612588  -0.000000
  177        2.842786  -0.000000
  178        2.889448  -0.000000
  179        3.032405  -0.000000
  180        3.784419   0.000000

  0.2000000E+00  0.1262379E-14  0.3742002E-15  0.4444444E-01
    1      -13.827197   1.000000
    2      -13.109417   1.000000
    3      -12.660003   1.000000
    4      -12.211693   1.000000
    5      -11.992204   1.000000
    6      -11.732390   1.000000
    7      -11.478676   1.000000
    8      -11.277664   1.000000
    9      -11.182379   1.000000
   10      -11.142456   1.000000
   11      -11.099567   1.000000
   12      -10.942232   1.000000
   13      -10.698459   1.000000
   14      -10.628737   1.000000
   15      -10.534713   1.000000
   16      -10.426756   1.000000
   17      -10.421332   1.000000
   18      -10.245094   1.000000
   19       -9.980627   1.000000
   20       -9.885399   1.000000
   21       -9.459138   1.000000
   22       -9.319361   1.000000
   23       -9.306611   1.000000
   24       -9.257821   1.000000
   25       -9.054602   1.000000
   26       -8.929931   1.000000
   27       -8.472719   1.000000
   28       -8.313252   1.000000
   29       -8.148258   1.000000
   30       -8.002519   1.000000
   31       -7.983726   1.000000
   32       -7.882378   1.000000
   33       -7.556142   1.000000
   34       -7.496498   1.000000
   35       -7.380358   1.000000
   36       -7.243620   1.000000
   37       -7.043411   1.000000
   38       -6.986936   1.000000
   39       -6.753617   1.000000
   40       -6.590591   1.000000
   41       -6.505102   1.000000
   42       -6.469831   1.000000
   43       -6.439728   1.000000
   44       -6.302862   1.000000
   45       -6.280124   1.000000
   46       -6.220782   1.000000
   47       -5.997520   1.000000
   48       -5.964213   1.000000
   49       -5.877008   1.000000
   50       -5.851154   1.000000
   51       -5.829409   1.000000
   52       -5.782233   1.000000
   53       -5.565326   1.000000
   54       -5.502620   1.000000
   55       -5.425249   1.000000
   56       -5.185607   1.000000
   57       -5.164913   1.000000
   58       -5.148808   1.000000
   59       -5.103129   1.000000
   60       -5.073050   1.000000
   61       -5.044184   1.000000
   62       -5.024665   1.000000
   63       -4.972318   1.000000
   64       -4.723853   1.000000
   65       -4.626164   1.000000
   66       -4.438343   1.000000
   67       -4.331114   1.000000
   68       -4.313958   1.000000
   69       -4.255307   1.000000
   70       -4.047216   1.000000
   71       -3.957369   1.000000
   72       -3.911337   1.000000
   73       -3.862561   1.000000
   74       -3.852565   1.000000
   75       -3.832163   1.000000
   76       -3.753525   1.000000
   77       -3.699608   1.000000
   78       -3.684345   1.000000
   79       -3.632165   1.000000
   80       -3.489174   1.000000
   81       -3.484210   1.000000
   82       -3.443795   1.000000
   83       -3.429619   1.000000
   84       -3.391944   1.000000
   85       -3.371003   1.000000
   86       -3.328582   1.000000
   87       -3.314836   1.000000
   88       -3.281045   1.000000
   89       -3.256651   1.000000
   90       -3.254682   1.000000
   91       -3.128846   1.000000
   92       -3.082916   1.000000
   93       -2.999566   1.000000
   94       -2.916545   1.000000
   95       -2.791644   1.000000
   96       -2.717731   1.000000
   97       -2.648064   1.000000
   98       -2.606319   1.000000
   99       -2.517997   1.000000
  100       -2.443191   1.000000
  101       -2.302254   1.000000
  102       -2.216420   1.000000
  103       -2.113664   1.000000
  104       -2.062144   1.000000
  105       -2.019723   1.000000
  106       -1.991504   1.000000
  107       -1.911007   1.000000
  108       -1.810908   1.000000
  109       -1.777986   1.000000
  110       -1.760964   1.000000
  111       -1.743954   1.000000
  112       -1.684402   1.000000
  113       -1.665586   1.000000
  114       -1.559111   1.000000
  115       -1.442047   1.000000
  116       -1.414395   1.000000
  117       -1.340345   1.000000
  118       -1.261858   1.000000
  119       -1.257558   1.000000
  120       -1.183624   1.000000
  121       -1.102332   1.000000
  122       -0.965104   1.000000
  123       -0.862459   1.000000
  124       -0.733332   1.000000
  125       -0.631626   1.000000
  126       -0.580923   1.000000
  127       -0.458279   1.000000
  128       -0.261770   1.000000
  129       -0.243711   1.000000
  130       -0.218358   1.000000
  131       -0.078874   1.000000
  132       -0.006640   1.000000
  133        0.101275   1.000000
  134        0.207034   1.000003
  135        0.331618   1.002561
  136        0.371972   1.010587
  137        0.447476   1.034625
  138        0.522359   0.814043
  139        0.615074   0.118378
  140        0.636879   0.027106
  141        0.758338  -0.009248
  142        0.767220  -0.006944
  143        0.847042  -0.000221
  144        0.852169  -0.000168
  145        0.890527  -0.000018
  146        0.900028  -0.000010
  147        0.945970  -0.000000
  148        0.960597  -0.000000
  149        0.999288  -0.000000
  150        1.044759  -0.000000
  151        1.266430  -0.000000
  152        1.312963  -0.000000
  153        1.325397  -0.000000
  154        1.370500  -0.000000
  155        1.393615  -0.000000
  156        1.464932  -0.000000
  157        1.470280  -0.000000
  158        1.535101  -0.000000
  159        1.555607  -0.000000
  160        1.559664  -0.000000
  161        1.604593  -0.000000
  162        1.630642  -0.000000
  163        1.636869  -0.000000
  164        1.652378  -0.000000
  165        1.673866  -0.000000
  166        1.758943  -0.000000
  167        1.813611  -0.000000
  168        1.836563  -0.000000
  169        1.848023  -0.000000
  170        1.890005  -0.000000
  171        1.947881  -0.000000
  172        1.995923  -0.000000
  173        2.043718  -0.000000
  174        2.108627  -0.000000
  175        2.269511  -0.000000
  176        2.456437  -0.000000
  177        2.518855  -0.000000
  178        2.597095  -0.000000
  179        2.956725  -0.000000
  180        3.249309  -0.000000

  0.4000000E+00  0.1262379E-14  0.3742002E-15  0.4444444E-01
    1      -13.680604   1.000000
    2      -13.439266   1.000000
    3      -12.527831   1.000000
    4      -12.297212   1.000000
    5      -11.683554   1.000000
    6      -11.655393   1.000000
    7      -11.598605   1.000000
    8      -11.206296   1.000000
    9      -11.123341   1.000000
   10      -11.071224   1.000000
   11      -11.005755   1.000000
   12      -10.934190   1.000000
   13      -10.876425   1.000000
   14      -10.645917   1.000000
   15      -10.592882   1.000000
   16      -10.539398   1.000000
   17      -10.507547   1.000000
   18      -10.259343   1.000000
   19      -10.164199   1.000000
   20       -9.911017   1.000000
   21       -9.686112   1.000000
   22       -9.310772   1.000000
   23       -9.282264   1.000000
   24       -9.108401   1.000000
   25       -9.024836   1.000000
   26       -8.738017   1.000000
   27       -8.279858   1.000000
   28       -8.261206   1.000000
   29       -8.096577   1.000000
   30       -8.002155   1.000000
   31       -7.868785   1.000000
   32       -7.666353   1.000000
   33       -7.593994   1.000000
   34       -7.547087   1.000000
   35       -7.477598   1.000000
   36       -7.306665   1.000000
   37       -7.184715   1.000000
   38       -7.134281   1.000000
   39       -6.956761   1.000000
   40       -6.806600   1.000000
   41       -6.646470   1.000000
   42       -6.372888   1.000000
   43       -6.312714   1.000000
   44       -6.296712   1.000000
   45       -6.272211   1.000000
   46       -6.161326   1.000000
   47       -6.129484   1.000000
   48       -5.991088   1.000000
   49       -5.798213   1.000000
   50       -5.702139   1.000000
   51       -5.669248   1.000000
   52       -5.635465   1.000000
   53       -5.554218   1.000000
   54       -5.533128   1.000000
   55       -5.494780   1.000000
   56       -5.335293   1.000000
   57       -5.265366   1.000000
   58       -5.164126   1.000000
   59       -5.035712   1.000000
   60       -4.975571   1.000000
   61       -4.929708   1.000000
   62       -4.878375   1.000000
   63       -4.784233   1.000000
   64       -4.705263   1.000000
   65       -4.612126   1.000000
   66       -4.506444   1.000000
   67       -4.466727   1.000000
   68       -4.345936   1.000000
   69       -4.198043   1.000000
   70       -4.142403   1.000000
   71       -4.079446   1.000000
   72       -4.011650   1.000000
   73       -3.936768   1.000000
   74       -3.860161   1.000000
   75       -3.804814   1.000000
   76       -3.796543   1.000000
   77       -3.668374   1.000000
   78       -3.609612   1.000000
   79       -3.603677   1.000000
   80       -3.582714   1.000000
   81       -3.552907   1.000000
   82       -3.506754   1.000000
   83       -3.473769   1.000000
   84       -3.440852   1.000000
   85       -3.377041   1.000000
   86       -3.315115   1.000000
   87       -3.268314   1.000000
   88       -3.221411   1.000000
   89       -3.177666   1.000000
   90       -3.123168   1.000000
   91       -3.095046   1.000000
   92       -3.080196   1.000000
   93       -2.980962   1.000000
   94       -2.871241   1.000000
   95       -2.853577   1.000000
   96       -2.764925   1.000000
   97       -2.733061   1.000000
   98       -2.646924   1.000000
   99       -2.484011   1.000000
  100       -2.447041   1.000000
  101       -2.334691   1.000000
  102       -2.205826   1.000000
  103       -2.188424   1.000000
  104       -2.086416   1.000000
  105       -1.990241   1.000000
  106       -1.983308   1.000000
  107       -1.936699   1.000000
  108       -1.822293   1.000000
  109       -1.777856   1.000000
  110       -1.754973   1.000000
  111       -1.663714   1.000000
  112       -1.607513   1.000000
  113       -1.487756   1.000000
  114       -1.439821   1.000000
  115       -1.403644   1.000000
  116       -1.328699   1.000000
  117       -1.317281   1.000000
  118       -1.140333   1.000000
  119       -1.076994   1.000000
  120       -1.071207   1.000000
  121       -0.944883   1.000000
  122       -0.906439   1.000000
  123       -0.896115   1.000000
  124       -0.856858   1.000000
  125       -0.738844   1.000000
  126       -0.672889   1.000000
  127       -0.580140   1.000000
  128       -0.511615   1.000000
  129       -0.485257   1.000000
  130       -0.368572   1.000000
  131       -0.216681   1.000000
  132       -0.200619   1.000000
  133        0.079604   1.000000
  134        0.124104   1.000000
  135        0.266922   1.000117
  136        0.337473   1.003228
  137        0.503722   0.916451
  138        0.521910   0.816902
  139        0.539319   0.693806
  140        0.633914   0.036755
  141        0.678537  -0.034660
  142        0.768685  -0.006610
  143        0.831609  -0.000483
  144        0.869225  -0.000065
  145        0.900494  -0.000010
  146        0.921214  -0.000002
  147        0.959862  -0.000000
  148        1.040005  -0.000000
  149        1.166369  -0.000000
  150        1.194379  -0.000000
  151        1.213511  -0.000000
  152        1.337836  -0.000000
  153        1.374291  -0.000000
  154        1.411370  -0.000000
  155        1.432995  -0.000000
  156        1.486528  -0.000000
  157        1.587974  -0.000000
  158        1.641985  -0.000000
  159        1.650402  -0.000000
  160        1.667245  -0.000000
  161        1.681730  -0.000000
  162        1.696719  -0.000000
  163        1.706529  -0.000000
  164        1.722701  -0.000000
  165        1.797067  -0.000000
  166        1.817341  -0.000000
  167        1.829374  -0.000000
  168        1.842617  -0.000000
  169        1.905194  -0.000000
  170        1.928908  -0.000000
  171        1.946078  -0.000000
  172        2.055067  -0.000000
  173        2.066559  -0.000000
  174        2.082666  -0.000000
  175        2.288937  -0.000000
  176        2.735864  -0.000000
  177        2.844219  -0.000000
  178        3.133013  -0.000000
  179        3.190607  -0.000000
  180        3.485814   0.000000

  0.3742002E-15  0.1262379E-14  0.1111111E+00  0.4444444E-01
    1      -13.831139   1.000000
    2      -12.701332   1.000000
    3      -12.647177   1.000000
    4      -12.639914   1.000000
    5      -11.854676   1.000000
    6      -11.682180   1.000000
    7      -11.479926   1.000000
    8      -11.380052   1.000000
    9      -11.356188   1.000000
   10      -11.283268   1.000000
   11      -11.182628   1.000000
   12      -10.864936   1.000000
   13      -10.825353   1.000000
   14      -10.566891   1.000000
   15      -10.530117   1.000000
   16      -10.309408   1.000000
   17      -10.253316   1.000000
   18       -9.995818   1.000000
   19       -9.929308   1.000000
   20       -9.829028   1.000000
   21       -9.477547   1.000000
   22       -9.470081   1.000000
   23       -9.360346   1.000000
   24       -9.354603   1.000000
   25       -8.980906   1.000000
   26       -8.797291   1.000000
   27       -8.688890   1.000000
   28       -8.487023   1.000000
   29       -8.267113   1.000000
   30       -7.981736   1.000000
   31       -7.839556   1.000000
   32       -7.734634   1.000000
   33       -7.618741   1.000000
   34       -7.608037   1.000000
   35       -7.492512   1.000000
   36       -7.151493   1.000000
   37       -7.075701   1.000000
   38       -6.821913   1.000000
   39       -6.590233   1.000000
   40       -6.503485   1.000000
   41       -6.470521   1.000000
   42       -6.453708   1.000000
   43       -6.432192   1.000000
   44       -6.271110   1.000000
   45       -6.247120   1.000000
   46       -6.129481   1.000000
   47       -6.028867   1.000000
   48       -6.009601   1.000000
   49       -5.985039   1.000000
   50       -5.945384   1.000000
   51       -5.903621   1.000000
   52       -5.584271   1.000000
   53       -5.571043   1.000000
   54       -5.477869   1.000000
   55       -5.468256   1.000000
   56       -5.434541   1.000000
   57       -5.229135   1.000000
   58       -5.221422   1.000000
   59       -5.106257   1.000000
   60       -5.069502   1.000000
   61       -5.039737   1.000000
   62       -4.989259   1.000000
   63       -4.838488   1.000000
   64       -4.504731   1.000000
   65       -4.475743   1.000000
   66       -4.369255   1.000000
   67       -4.347652   1.000000
   68       -4.304028   1.000000
   69       -4.272641   1.000000
   70       -4.043825   1.000000
   71       -3.945457   1.000000
   72       -3.895926   1.000000
   73       -3.848321   1.000000
   74       -3.844115   1.000000
   75       -3.796536   1.000000
   76       -3.765860   1.000000
   77       -3.743508   1.000000
   78       -3.738603   1.000000
   79       -3.728424   1.000000
   80       -3.627440   1.000000
   81       -3.591733   1.000000
   82       -3.555707   1.000000
   83       -3.485847   1.000000
   84       -3.460854   1.000000
   85       -3.448150   1.000000
   86       -3.377340   1.000000
   87       -3.365487   1.000000
   88       -3.294539   1.000000
   89       -3.286951   1.000000
   90       -3.189795   1.000000
   91       -3.185853   1.000000
   92       -3.081624   1.000000
   93       -2.952800   1.000000
   94       -2.790533   1.000000
   95       -2.743854   1.000000
   96       -2.721106   1.000000
   97       -2.684654   1.000000
   98       -2.528136   1.000000
   99       -2.432342   1.000000
  100       -2.340842   1.000000
  101       -2.270997   1.000000
  102       -2.232552   1.000000
  103       -2.196747   1.000000
  104       -2.093255   1.000000
  105       -2.041445   1.000000
  106       -2.030181   1.000000
  107       -1.927158   1.000000
  108       -1.827610   1.000000
  109       -1.821694   1.000000
  110       -1.786300   1.000000
  111       -1.773251   1.000000
  112       -1.735875   1.000000
  113       -1.613259   1.000000
  114       -1.598794   1.000000
  115       -1.514716   1.000000
  116       -1.453242   1.000000
  117       -1.401434   1.000000
  118       -1.333126   1.000000
  119       -1.279307   1.000000
  120       -1.149997   1.000000
  121       -1.088126   1.000000
  122       -0.969027   1.000000
  123       -0.754508   1.000000
  124       -0.735499   1.000000
  125       -0.693230   1.000000
  126       -0.480147   1.000000
  127       -0.362934   1.000000
  128       -0.325459   1.000000
  129       -0.300926   1.000000
  130       -0.094453   1.000000
  131        0.005710   1.000000
  132        0.024273   1.000000
  133        0.133292   1.000000
  134        0.333493   1.002760
  135        0.460891   1.027120
  136        0.468368   1.018531
  137        0.492126   0.962667
  138        0.493364   0.958365
  139        0.602442   0.192835
  140        0.622528   0.081817
  141        0.639428   0.019475
  142        0.649996  -0.005972
  143        0.652087  -0.009900
  144        0.820152  -0.000834
  145        0.824240  -0.000689
  146        0.834641  -0.000416
  147        1.000869  -0.000000
  148        1.027891  -0.000000
  149        1.109520  -0.000000
  150        1.175991  -0.000000
  151        1.223788  -0.000000
  152        1.289497  -0.000000
  153        1.317502  -0.000000
  154        1.337295  -0.000000
  155        1.360766  -0.000000
  156        1.434494  -0.000000
  157        1.450499  -0.000000
  158        1.478370  -0.000000
  159        1.516142  -0.000000
  160        1.560879  -0.000000
  161        1.564124  -0.000000
  162        1.596181  -0.000000
  163        1.632364  -0.000000
  164        1.641259  -0.000000
  165        1.691585  -0.000000
  166        1.759204  -0.000000
  167        1.799509  -0.000000
  168        1.833005  -0.000000
  169        1.870535  -0.000000
  170        1.901182  -0.000000
  171        1.994220  -0.000000
  172        2.023504  -0.000000
  173        2.086759  -0.000000
  174        2.166246  -0.000000
  175        2.451667  -0.000000
  176        2.495129  -0.000000
  177        2.670447  -0.000000
  178        2.686629  -0.000000
  179        3.162932  -0.000000
  180        4.149869   0.000000

  0.2000000E+00  0.1262379E-14  0.1111111E+00  0.4444444E-01
    1      -13.782303   1.000000
    2      -13.070801   1.000000
    3      -12.622481   1.000000
    4      -12.182522   1.000000
    5      -11.960786   1.000000
    6      -11.834203   1.000000
    7      -11.540414   1.000000
    8      -11.270298   1.000000
    9      -11.207170   1.000000
   10      -11.167577   1.000000
   11      -11.097325   1.000000
   12      -10.966490   1.000000
   13      -10.700378   1.000000
   14      -10.626081   1.000000
   15      -10.549657   1.000000
   16      -10.411214   1.000000
   17      -10.401428   1.000000
   18      -10.250462   1.000000
   19       -9.970692   1.000000
   20       -9.874607   1.000000
   21       -9.445767   1.000000
   22       -9.342862   1.000000
   23       -9.300871   1.000000
   24       -9.248095   1.000000
   25       -9.049875   1.000000
   26       -8.928060   1.000000
   27       -8.486172   1.000000
   28       -8.313822   1.000000
   29       -8.159057   1.000000
   30       -8.007600   1.000000
   31       -7.968599   1.000000
   32       -7.752852   1.000000
   33       -7.601652   1.000000
   34       -7.537536   1.000000
   35       -7.375428   1.000000
   36       -7.302059   1.000000
   37       -7.034016   1.000000
   38       -6.921653   1.000000
   39       -6.750333   1.000000
   40       -6.589184   1.000000
   41       -6.537036   1.000000
   42       -6.479770   1.000000
   43       -6.384919   1.000000
   44       -6.323762   1.000000
   45       -6.287769   1.000000
   46       -6.264805   1.000000
   47       -6.094014   1.000000
   48       -5.944377   1.000000
   49       -5.912073   1.000000
   50       -5.845667   1.000000
   51       -5.717367   1.000000
   52       -5.672181   1.000000
   53       -5.581434   1.000000
   54       -5.506161   1.000000
   55       -5.436526   1.000000
   56       -5.196110   1.000000
   57       -5.150437   1.000000
   58       -5.103034   1.000000
   59       -5.077081   1.000000
   60       -5.055019   1.000000
   61       -5.014298   1.000000
   62       -4.964895   1.000000
   63       -4.935153   1.000000
   64       -4.697401   1.000000
   65       -4.579634   1.000000
   66       -4.411966   1.000000
   67       -4.332533   1.000000
   68       -4.277099   1.000000
   69       -4.217085   1.000000
   70       -4.050486   1.000000
   71       -3.964139   1.000000
   72       -3.910945   1.000000
   73       -3.898108   1.000000
   74       -3.836849   1.000000
   75       -3.825117   1.000000
   76       -3.787823   1.000000
   77       -3.764647   1.000000
   78       -3.711631   1.000000
   79       -3.679256   1.000000
   80       -3.609060   1.000000
   81       -3.571219   1.000000
   82       -3.526864   1.000000
   83       -3.496073   1.000000
   84       -3.456302   1.000000
   85       -3.438074   1.000000
   86       -3.397205   1.000000
   87       -3.374133   1.000000
   88       -3.308412   1.000000
   89       -3.238577   1.000000
   90       -3.182169   1.000000
   91       -3.124817   1.000000
   92       -3.052161   1.000000
   93       -3.002140   1.000000
   94       -2.852374   1.000000
   95       -2.759342   1.000000
   96       -2.693606   1.000000
   97       -2.629621   1.000000
   98       -2.598040   1.000000
   99       -2.500468   1.000000
  100       -2.438918   1.000000
  101       -2.294279   1.000000
  102       -2.234165   1.000000
  103       -2.130717   1.000000
  104       -2.075924   1.000000
  105       -2.043611   1.000000
  106       -1.998989   1.000000
  107       -1.944101   1.000000
  108       -1.864026   1.000000
  109       -1.797786   1.000000
  110       -1.764073   1.000000
  111       -1.709277   1.000000
  112       -1.642942   1.000000
  113       -1.586726   1.000000
  114       -1.553152   1.000000
  115       -1.497852   1.000000
  116       -1.431529   1.000000
  117       -1.391317   1.000000
  118       -1.287815   1.000000
  119       -1.199055   1.000000
  120       -1.192758   1.000000
  121       -1.083850   1.000000
  122       -1.001045   1.000000
  123       -0.858445   1.000000
  124       -0.739761   1.000000
  125       -0.693617   1.000000
  126       -0.582132   1.000000
  127       -0.472494   1.000000
  128       -0.430271   1.000000
  129       -0.193758   1.000000
  130       -0.173615   1.000000
  131       -0.037542   1.000000
  132        0.108254   1.000000
  133        0.184119   1.000001
  134        0.300218   1.000644
  135        0.341781   1.003807
  136        0.360702   1.007433
  137        0.395800   1.019812
  138        0.431175   1.034291
  139        0.549129   0.615607
  140        0.629246   0.053670
  141        0.690791  -0.035043
  142        0.718169  -0.025270
  143        0.746048  -0.013264
  144        0.824738  -0.000672
  145        0.860320  -0.000108
  146        0.867111  -0.000074
  147        0.935841  -0.000001
  148        1.107029  -0.000000
  149        1.138000  -0.000000
  150        1.190234  -0.000000
  151        1.218046  -0.000000
  152        1.271363  -0.000000
  153        1.329615  -0.000000
  154        1.394404  -0.000000
  155        1.453438  -0.000000
  156        1.477903  -0.000000
  157        1.510414  -0.000000
  158        1.523637  -0.000000
  159        1.547017  -0.000000
  160        1.557392  -0.000000
  161        1.581929  -0.000000
  162        1.616020  -0.000000
  163        1.622142  -0.000000
  164        1.674129  -0.000000
  165        1.721412  -0.000000
  166        1.731132  -0.000000
  167        1.795365  -0.000000
  168        1.809217  -0.000000
  169        1.869942  -0.000000
  170        1.887123  -0.000000
  171        1.926296  -0.000000
  172        1.948173  -0.000000
  173        2.052278  -0.000000