 running on   72 total cores
 distrk:  each k-point on   72 cores,    1 groups
 distr:  one band on   12 cores,    6 groups
 using from now: INCAR     
 vasp.5.4.4.18Apr17-6-g9f103f2a35 (build Dec  7 2020 12:43:57) complex           
 POSCAR found type information on POSCAR  Mo V  B  H 
 POSCAR found :  4 types and      75 ions
 scaLAPACK will be used

 ----------------------------------------------------------------------------- 
|                                                                             |
|  ADVICE TO THIS USER RUNNING 'VASP/VAMP'   (HEAR YOUR MASTER'S VOICE ...):  |
|                                                                             |
|      You enforced a specific xc-type in the INCAR file,                     |
|      a different type was found on the POTCAR file                          |
|          I HOPE YOU KNOW, WHAT YOU ARE  DOING                               |
|                                                                             |
 ----------------------------------------------------------------------------- 

 LDA part: xc-table for Pade appr. of Perdew
 POSCAR, INCAR and KPOINTS ok, starting setup
 resort distribution
 resort distribution
 resort distribution
 resort distribution
 resort distribution
 resort distribution
 resort distribution
 resort distribution
 resort distribution
 resort distribution
 resort distribution
 resort distribution
 resort distribution
 resort distribution
 resort distribution
 resort distribution
 resort distribution
 resort distribution
 resort distribution
 resort distribution
 resort distribution
 resort distribution
 resort distribution
 resort distribution
 resort distribution
 resort distribution
 resort distribution
 resort distribution
 resort distribution
 resort distribution
 resort distribution
 resort distribution
 resort distribution
 resort distribution
 resort distribution
 resort distribution
 resort distribution
 resort distribution
 resort distribution
 resort distribution
 resort distribution
 resort distribution
 resort distribution
 resort distribution
 resort distribution
 resort distribution
 resort distribution
 resort distribution
 resort distribution
 resort distribution
 resort distribution
 resort distribution
 resort distribution
 resort distribution
 resort distribution
 resort distribution
 resort distribution
 resort distribution
 resort distribution
 resort distribution
 resort distribution
 resort distribution
 resort distribution
 resort distribution
 resort distribution
 resort distribution
 resort distribution
 resort distribution
 resort distribution
 resort distribution
 resort distribution
 resort distribution
 FFT: planning ...
 WAVECAR not read
 augmentation electrons   279.02614313995031     
 soft         electrons   0.0000000000000000     
 augmentation electrons   279.02614313995031     
 soft         electrons   0.0000000000000000     
 augmentation electrons   279.02614313995031     
 soft         electrons   0.0000000000000000     
 augmentation electrons   279.02614313995031     
 soft         electrons   0.0000000000000000     
 augmentation electrons   279.02614313995031     
 soft         electrons   0.0000000000000000     
 augmentation electrons   279.02614313995031     
 soft         electrons   0.0000000000000000     
 augmentation electrons   279.02614313995031     
 soft         electrons   0.0000000000000000     
 augmentation electrons   279.02614313995031     
 soft         electrons   0.0000000000000000     
 augmentation electrons   279.02614313995031     
 soft         electrons   0.0000000000000000     
 augmentation electrons   279.02614313995031     
 soft         electrons   0.0000000000000000     
 augmentation electrons   279.02614313995031     
 soft         electrons   0.0000000000000000     
 augmentation electrons   279.02614313995031     
 soft         electrons   0.0000000000000000     
 augmentation electrons   279.02614313995031     
 soft         electrons   0.0000000000000000     
 augmentation electrons   279.02614313995031     
 soft         electrons   0.0000000000000000     
 augmentation electrons   279.02614313995031     
 soft         electrons   0.0000000000000000     
 augmentation electrons   279.02614313995031     
 soft         electrons   0.0000000000000000     
 augmentation electrons   279.02614313995031     
 soft         electrons   0.0000000000000000     
 augmentation electrons   279.02614313995031     
 soft         electrons   0.0000000000000000     
 augmentation electrons   279.02614313995031     
 soft         electrons   0.0000000000000000     
 augmentation electrons   279.02614313995031     
 soft         electrons   0.0000000000000000     
 augmentation electrons   279.02614313995031     
 soft         electrons   0.0000000000000000     
 augmentation electrons   279.02614313995031     
 soft         electrons   0.0000000000000000     
 augmentation electrons   279.02614313995031     
 soft         electrons   0.0000000000000000     
 augmentation electrons   279.02614313995031     
 soft         electrons   0.0000000000000000     
 augmentation electrons   279.02614313995031     
 soft         electrons   0.0000000000000000     
 augmentation electrons   279.02614313995031     
 soft         electrons   0.0000000000000000     
 augmentation electrons   279.02614313995031     
 soft         electrons   0.0000000000000000     
 augmentation electrons   279.02614313995031     
 soft         electrons   0.0000000000000000     
 augmentation electrons   279.02614313995031     
 soft         electrons   0.0000000000000000     
 augmentation electrons   279.02614313995031     
 soft         electrons   0.0000000000000000     
 augmentation electrons   279.02614313995031     
 soft         electrons   0.0000000000000000     
 augmentation electrons   279.02614313995031     
 soft         electrons   0.0000000000000000     
 augmentation electrons   279.02614313995031     
 soft         electrons   0.0000000000000000     
 augmentation electrons   279.02614313995031     
 soft         electrons   0.0000000000000000     
 augmentation electrons   279.02614313995031     
 soft         electrons   0.0000000000000000     
 augmentation electrons   279.02614313995031     
 soft         electrons   0.0000000000000000     
 augmentation electrons   279.02614313995031     
 soft         electrons   0.0000000000000000     
 augmentation electrons   279.02614313995031     
 soft         electrons   0.0000000000000000     
 augmentation electrons   279.02614313995031     
 soft         electrons   0.0000000000000000     
 augmentation electrons   279.02614313995031     
 soft         electrons   0.0000000000000000     
 augmentation electrons   279.02614313995031     
 soft         electrons   0.0000000000000000     
 augmentation electrons   279.02614313995031     
 soft         electrons   0.0000000000000000     
 augmentation electrons   279.02614313995031     
 soft         electrons   0.0000000000000000     
 augmentation electrons   279.02614313995031     
 soft         electrons   0.0000000000000000     
 augmentation electrons   279.02614313995031     
 soft         electrons   0.0000000000000000     
 augmentation electrons   279.02614313995031     
 soft         electrons   0.0000000000000000     
 augmentation electrons   279.02614313995031     
 soft         electrons   0.0000000000000000     
 augmentation electrons   279.02614313995031     
 soft         electrons   0.0000000000000000     
 augmentation electrons   279.02614313995031     
 soft         electrons   0.0000000000000000     
 augmentation electrons   279.02614313995031     
 soft         electrons   0.0000000000000000     
 augmentation electrons   279.02614313995031     
 soft         electrons   0.0000000000000000     
 augmentation electrons   279.02614313995031     
 soft         electrons   0.0000000000000000     
 augmentation electrons   279.02614313995031     
 soft         electrons   0.0000000000000000     
 augmentation electrons   279.02614313995031     
 soft         electrons   0.0000000000000000     
 augmentation electrons   279.02614313995031     
 soft         electrons   0.0000000000000000     
 augmentation electrons   279.02614313995031     
 soft         electrons   0.0000000000000000     
 augmentation electrons   279.02614313995031     
 soft         electrons   0.0000000000000000     
 augmentation electrons   279.02614313995031     
 soft         electrons   0.0000000000000000     
 augmentation electrons   279.02614313995031     
 soft         electrons   0.0000000000000000     
 augmentation electrons   279.02614313995031     
 soft         electrons   0.0000000000000000     
 augmentation electrons   279.02614313995031     
 soft         electrons   0.0000000000000000     
 augmentation electrons   279.02614313995031     
 soft         electrons   0.0000000000000000     
 augmentation electrons   279.02614313995031     
 soft         electrons   0.0000000000000000     
 augmentation electrons   279.02614313995031     
 soft         electrons   0.0000000000000000     
 augmentation electrons   279.02614313995031     
 soft         electrons   0.0000000000000000     
 augmentation electrons   279.02614313995031     
 soft         electrons   0.0000000000000000     
 augmentation electrons   279.02614313995031     
 soft         electrons   0.0000000000000000     
 augmentation electrons   279.02614313995031     
 soft         electrons   0.0000000000000000     
 augmentation electrons   279.02614313995031     
 soft         electrons   0.0000000000000000     
 augmentation electrons   279.02614313995031     
 soft         electrons   0.0000000000000000     
 augmentation electrons   279.02614313995031     
 soft         electrons   0.0000000000000000     
 augmentation electrons   279.02614313995031     
 soft         electrons   0.0000000000000000     
 total        electrons   279.02614313995031     
 total        electrons   279.02614313995031     
 total        electrons   279.02614313995031     
 total        electrons   279.02614313995031     
 total        electrons   279.02614313995031     
 total        electrons   279.02614313995031     
 total        electrons   279.02614313995031     
 total        electrons   279.02614313995031     
 total        electrons   279.02614313995031     
 total        electrons   279.02614313995031     
 total        electrons   279.02614313995031     
 total        electrons   279.02614313995031     
 total        electrons   279.02614313995031     
 total        electrons   279.02614313995031     
 total        electrons   279.02614313995031     
 total        electrons   279.02614313995031     
 total        electrons   279.02614313995031     
 total        electrons   279.02614313995031     
 total        electrons   279.02614313995031     
 total        electrons   279.02614313995031     
 total        electrons   279.02614313995031     
 total        electrons   279.02614313995031     
 total        electrons   279.02614313995031     
 total        electrons   279.02614313995031     
 total        electrons   279.02614313995031     
 total        electrons   279.02614313995031     
 total        electrons   279.02614313995031     
 total        electrons   279.02614313995031     
 total        electrons   279.02614313995031     
 total        electrons   279.02614313995031     
 total        electrons   279.02614313995031     
 total        electrons   279.02614313995031     
 total        electrons   279.02614313995031     
 total        electrons   279.02614313995031     
 total        electrons   279.02614313995031     
 total        electrons   279.02614313995031     
 total        electrons   279.02614313995031     
 total        electrons   279.02614313995031     
 total        electrons   279.02614313995031     
 total        electrons   279.02614313995031     
 total        electrons   279.02614313995031     
 total        electrons   279.02614313995031     
 total        electrons   279.02614313995031     
 total        electrons   279.02614313995031     
 total        electrons   279.02614313995031     
 total        electrons   279.02614313995031     
 total        electrons   279.02614313995031     
 total        electrons   279.02614313995031     
 total        electrons   279.02614313995031     
 total        electrons   279.02614313995031     
 total        electrons   279.02614313995031     
 total        electrons   279.02614313995031     
 total        electrons   279.02614313995031     
 total        electrons   279.02614313995031     
 total        electrons   279.02614313995031     
 total        electrons   279.02614313995031     
 total        electrons   279.02614313995031     
 total        electrons   279.02614313995031     
 total        electrons   279.02614313995031     
 total        electrons   279.02614313995031     
 total        electrons   279.02614313995031     
 total        electrons   279.02614313995031     
 total        electrons   279.02614313995031     
 total        electrons   279.02614313995031     
 total        electrons   279.02614313995031     
 total        electrons   279.02614313995031     
 total        electrons   279.02614313995031     
 total        electrons   279.02614313995031     
 total        electrons   279.02614313995031     
 total        electrons   279.02614313995031     
 total        electrons   279.02614313995031     
 total        electrons   279.02614313995031     
 augmentation electrons   864.17172981569820     
 soft         electrons   0.0000000000000000     
 augmentation electrons   864.17172981569820     
 soft         electrons   0.0000000000000000     
 augmentation electrons   864.17172981569820     
 soft         electrons   0.0000000000000000     
 augmentation electrons   864.17172981569820     
 soft         electrons   0.0000000000000000     
 augmentation electrons   864.17172981569820     
 soft         electrons   0.0000000000000000     
 augmentation electrons   864.17172981569820     
 soft         electrons   0.0000000000000000     
 augmentation electrons   864.17172981569820     
 soft         electrons   0.0000000000000000     
 augmentation electrons   864.17172981569820     
 soft         electrons   0.0000000000000000     
 augmentation electrons   864.17172981569820     
 soft         electrons   0.0000000000000000     
 augmentation electrons   864.17172981569820     
 soft         electrons   0.0000000000000000     
 augmentation electrons   864.17172981569820     
 soft         electrons   0.0000000000000000     
 augmentation electrons   864.17172981569820     
 soft         electrons   0.0000000000000000     
 augmentation electrons   864.17172981569820     
 soft         electrons   0.0000000000000000     
 augmentation electrons   864.17172981569820     
 soft         electrons   0.0000000000000000     
 augmentation electrons   864.17172981569820     
 soft         electrons   0.0000000000000000     
 augmentation electrons   864.17172981569820     
 soft         electrons   0.0000000000000000     
 augmentation electrons   864.17172981569820     
 soft         electrons   0.0000000000000000     
 augmentation electrons   864.17172981569820     
 soft         electrons   0.0000000000000000     
 augmentation electrons   864.17172981569820     
 soft         electrons   0.0000000000000000     
 augmentation electrons   864.17172981569820     
 soft         electrons   0.0000000000000000     
 augmentation electrons   864.17172981569820     
 soft         electrons   0.0000000000000000     
 augmentation electrons   864.17172981569820     
 soft         electrons   0.0000000000000000     
 augmentation electrons   864.17172981569820     
 soft         electrons   0.0000000000000000     
 augmentation electrons   864.17172981569820     
 soft         electrons   0.0000000000000000     
 augmentation electrons   864.17172981569820     
 soft         electrons   0.0000000000000000     
 augmentation electrons   864.17172981569820     
 soft         electrons   0.0000000000000000     
 augmentation electrons   864.17172981569820     
 soft         electrons   0.0000000000000000     
 augmentation electrons   864.17172981569820     
 soft         electrons   0.0000000000000000     
 augmentation electrons   864.17172981569820     
 soft         electrons   0.0000000000000000     
 augmentation electrons   864.17172981569820     
 soft         electrons   0.0000000000000000     
 augmentation electrons   864.17172981569820     
 soft         electrons   0.0000000000000000     
 augmentation electrons   864.17172981569820     
 soft         electrons   0.0000000000000000     
 augmentation electrons   864.17172981569820     
 soft         electrons   0.0000000000000000     
 augmentation electrons   864.17172981569820     
 soft         electrons   0.0000000000000000     
 augmentation electrons   864.17172981569820     
 soft         electrons   0.0000000000000000     
 augmentation electrons   864.17172981569820     
 soft         electrons   0.0000000000000000     
 augmentation electrons   864.17172981569820     
 soft         electrons   0.0000000000000000     
 augmentation electrons   864.17172981569820     
 soft         electrons   0.0000000000000000     
 augmentation electrons   864.17172981569820     
 soft         electrons   0.0000000000000000     
 augmentation electrons   864.17172981569820     
 soft         electrons   0.0000000000000000     
 augmentation electrons   864.17172981569820     
 soft         electrons   0.0000000000000000     
 augmentation electrons   864.17172981569820     
 soft         electrons   0.0000000000000000     
 augmentation electrons   864.17172981569820     
 soft         electrons   0.0000000000000000     
 augmentation electrons   864.17172981569820     
 soft         electrons   0.0000000000000000     
 augmentation electrons   864.17172981569820     
 soft         electrons   0.0000000000000000     
 augmentation electrons   864.17172981569820     
 soft         electrons   0.0000000000000000     
 augmentation electrons   864.17172981569820     
 soft         electrons   0.0000000000000000     
 augmentation electrons   864.17172981569820     
 soft         electrons   0.0000000000000000     
 augmentation electrons   864.17172981569820     
 soft         electrons   0.0000000000000000     
 augmentation electrons   864.17172981569820     
 soft         electrons   0.0000000000000000     
 augmentation electrons   864.17172981569820     
 soft         electrons   0.0000000000000000     
 augmentation electrons   864.17172981569820     
 soft         electrons   0.0000000000000000     
 augmentation electrons   864.17172981569820     
 soft         electrons   0.0000000000000000     
 augmentation electrons   864.17172981569820     
 soft         electrons   0.0000000000000000     
 augmentation electrons   864.17172981569820     
 soft         electrons   0.0000000000000000     
 augmentation electrons   864.17172981569820     
 soft         electrons   0.0000000000000000     
 augmentation electrons   864.17172981569820     
 soft         electrons   0.0000000000000000     
 augmentation electrons   864.17172981569820     
 soft         electrons   0.0000000000000000     
 augmentation electrons   864.17172981569820     
 soft         electrons   0.0000000000000000     
 augmentation electrons   864.17172981569820     
 soft         electrons   0.0000000000000000     
 augmentation electrons   864.17172981569820     
 soft         electrons   0.0000000000000000     
 augmentation electrons   864.17172981569820     
 soft         electrons   0.0000000000000000     
 augmentation electrons   864.17172981569820     
 soft         electrons   0.0000000000000000     
 augmentation electrons   864.17172981569820     
 soft         electrons   0.0000000000000000     
 augmentation electrons   864.17172981569820     
 soft         electrons   0.0000000000000000     
 augmentation electrons   864.17172981569820     
 soft         electrons   0.0000000000000000     
 augmentation electrons   864.17172981569820     
 soft         electrons   0.0000000000000000     
 augmentation electrons   864.17172981569820     
 soft         electrons   0.0000000000000000     
 augmentation electrons   864.17172981569820     
 soft         electrons   0.0000000000000000     
 augmentation electrons   864.17172981569820     
 soft         electrons   0.0000000000000000     
 augmentation electrons   864.17172981569820     
 soft         electrons   0.0000000000000000     
 augmentation electrons   864.17172981569820     
 soft         electrons   0.0000000000000000     
 total        electrons   864.17172981569820     
 total        electrons   864.17172981569820     
 total        electrons   864.17172981569820     
 total        electrons   864.17172981569820     
 total        electrons   864.17172981569820     
 total        electrons   864.17172981569820     
 total        electrons   864.17172981569820     
 total        electrons   864.17172981569820     
 total        electrons   864.17172981569820     
 total        electrons   864.17172981569820     
 total        electrons   864.17172981569820     
 total        electrons   864.17172981569820     
 total        electrons   864.17172981569820     
 total        electrons   864.17172981569820     
 total        electrons   864.17172981569820     
 total        electrons   864.17172981569820     
 total        electrons   864.17172981569820     
 total        electrons   864.17172981569820     
 total        electrons   864.17172981569820     
 total        electrons   864.17172981569820     
 total        electrons   864.17172981569820     
 total        electrons   864.17172981569820     
 total        electrons   864.17172981569820     
 total        electrons   864.17172981569820     
 total        electrons   864.17172981569820     
 total        electrons   864.17172981569820     
 total        electrons   864.17172981569820     
 total        electrons   864.17172981569820     
 total        electrons   864.17172981569820     
 total        electrons   864.17172981569820     
 total        electrons   864.17172981569820     
 total        electrons   864.17172981569820     
 total        electrons   864.17172981569820     
 total        electrons   864.17172981569820     
 total        electrons   864.17172981569820     
 total        electrons   864.17172981569820     
 total        electrons   864.17172981569820     
 total        electrons   864.17172981569820     
 total        electrons   864.17172981569820     
 total        electrons   864.17172981569820     
 total        electrons   864.17172981569820     
 total        electrons   864.17172981569820     
 total        electrons   864.17172981569820     
 total        electrons   864.17172981569820     
 total        electrons   864.17172981569820     
 total        electrons   864.17172981569820     
 total        electrons   864.17172981569820     
 total        electrons   864.17172981569820     
 total        electrons   864.17172981569820     
 total        electrons   864.17172981569820     
 total        electrons   864.17172981569820     
 total        electrons   864.17172981569820     
 total        electrons   864.17172981569820     
 total        electrons   864.17172981569820     
 total        electrons   864.17172981569820     
 total        electrons   864.17172981569820     
 total        electrons   864.17172981569820     
 total        electrons   864.17172981569820     
 total        electrons   864.17172981569820     
 total        electrons   864.17172981569820     
 total        electrons   864.17172981569820     
 total        electrons   864.17172981569820     
 total        electrons   864.17172981569820     
 total        electrons   864.17172981569820     
 total        electrons   864.17172981569820     
 total        electrons   864.17172981569820     
 total        electrons   864.17172981569820     
 total        electrons   864.17172981569820     
 total        electrons   864.17172981569820     
 total        electrons   864.17172981569820     
 total        electrons   864.17172981569820     
 total        electrons   864.17172981569820     
 entering main loop
       N       E                     dE             d eps       ncg     rms          rms(c)
DAV:   1     0.308160033263E+04    0.30816E+04   -0.95752E+04  8280   0.130E+03
DAV:   2     0.854274743539E+02   -0.29962E+04   -0.27821E+04  8904   0.338E+02
DAV:   3    -0.613001469449E+03   -0.69843E+03   -0.67368E+03 12180   0.195E+02
DAV:   4    -0.677376336339E+03   -0.64375E+02   -0.62037E+02 13548   0.663E+01
DAV:   5    -0.680773910340E+03   -0.33976E+01   -0.32635E+01 13860   0.156E+01    0.141E+02
RMM:   6    -0.622051563608E+03    0.58722E+02   -0.14360E+03 11438   0.114E+02    0.712E+01
RMM:   7    -0.651071690655E+03   -0.29020E+02   -0.75849E+02  9721   0.107E+02    0.563E+01
RMM:   8    -0.575444191133E+03    0.75627E+02   -0.10354E+02  8971   0.376E+01    0.261E+01
RMM:   9    -0.579204220911E+03   -0.37600E+01   -0.75399E+01 10985   0.233E+01    0.270E+01
RMM:  10    -0.560733052305E+03    0.18471E+02   -0.16007E+01 10334   0.119E+01    0.165E+01
RMM:  11    -0.561320747515E+03   -0.58770E+00   -0.71032E+00 12671   0.401E+00    0.147E+01
RMM:  12    -0.561107804109E+03    0.21294E+00   -0.90739E-01 11183   0.224E+00    0.135E+01
RMM:  13    -0.560968399270E+03    0.13940E+00   -0.31262E+00 11328   0.507E+00    0.104E+01
RMM:  14    -0.561204909887E+03   -0.23651E+00   -0.49401E+00  9924   0.710E+00    0.922E+00
RMM:  15    -0.560127841304E+03    0.10771E+01   -0.13823E+00  9039   0.439E+00    0.331E+00
RMM:  16    -0.560089696057E+03    0.38145E-01   -0.98835E-01 11350   0.249E+00    0.303E+00
RMM:  17    -0.560013824968E+03    0.75871E-01   -0.50757E-01 11817   0.181E+00    0.188E+00
RMM:  18    -0.560012617534E+03    0.12074E-02   -0.21888E-01 12615   0.885E-01    0.154E+00
RMM:  19    -0.559997805108E+03    0.14812E-01   -0.75289E-02 10118   0.793E-01    0.104E+00
RMM:  20    -0.559983104160E+03    0.14701E-01   -0.85059E-02 12204   0.659E-01    0.872E-01
RMM:  21    -0.559980196600E+03    0.29076E-02   -0.34700E-02 10291   0.536E-01    0.886E-01
RMM:  22    -0.559974948567E+03    0.52480E-02   -0.11988E-02 10819   0.308E-01    0.587E-01
RMM:  23    -0.559972947250E+03    0.20013E-02   -0.15369E-02 12851   0.233E-01    0.209E-01
RMM:  24    -0.559972149644E+03    0.79761E-03   -0.84525E-03 12196   0.226E-01    0.252E-01
RMM:  25    -0.559970886170E+03    0.12635E-02   -0.31306E-03 12265   0.131E-01    0.225E-01
RMM:  26    -0.559969956158E+03    0.93001E-03   -0.24158E-03 12607   0.104E-01    0.111E-01
RMM:  27    -0.559970531310E+03   -0.57515E-03   -0.21371E-03 12693   0.983E-02    0.103E-01
RMM:  28    -0.559970904880E+03   -0.37357E-03   -0.67530E-04 11047   0.720E-02    0.643E-02
RMM:  29    -0.559971396038E+03   -0.49116E-03   -0.36868E-04 11536   0.396E-02    0.515E-02
RMM:  30    -0.559971627460E+03   -0.23142E-03   -0.22979E-04 10910   0.339E-02    0.406E-02
RMM:  31    -0.559971712573E+03   -0.85113E-04   -0.10752E-04 11610   0.218E-02    0.307E-02
RMM:  32    -0.559971889565E+03   -0.17699E-03   -0.74524E-05 11738   0.165E-02    0.310E-02
RMM:  33    -0.559971954647E+03   -0.65082E-04   -0.52898E-05 12380   0.129E-02    0.150E-02
RMM:  34    -0.559972020317E+03   -0.65669E-04   -0.26017E-05 11275   0.108E-02    0.105E-02
RMM:  35    -0.559972076237E+03   -0.55921E-04   -0.10210E-05  8309   0.795E-03    0.119E-02
RMM:  36    -0.559972176720E+03   -0.10048E-03   -0.81775E-06  7579   0.604E-03    0.120E-02
RMM:  37    -0.559972320088E+03   -0.14337E-03   -0.10873E-05  8106   0.567E-03    0.837E-03
RMM:  38    -0.559972378011E+03   -0.57923E-04   -0.44688E-06  7313   0.536E-03    0.631E-03
RMM:  39    -0.559972483131E+03   -0.10512E-03   -0.93020E-06  7541   0.422E-03    0.295E-03
RMM:  40    -0.559972515212E+03   -0.32082E-04   -0.32089E-06  6934   0.412E-03    0.158E-03
RMM:  41    -0.559972552280E+03   -0.37068E-04   -0.36786E-06  7057   0.316E-03    0.255E-03
RMM:  42    -0.559972570866E+03   -0.18585E-04   -0.16450E-06  6492   0.307E-03    0.114E-03
RMM:  43    -0.559972580124E+03   -0.92580E-05   -0.10763E-06  6050   0.182E-03    0.894E-04
RMM:  44    -0.559972582979E+03   -0.28555E-05   -0.39405E-07  5553   0.195E-03    0.445E-04
RMM:  45    -0.559972585148E+03   -0.21692E-05   -0.31122E-07  4129   0.103E-03    0.459E-04
RMM:  46    -0.559972586214E+03   -0.10654E-05   -0.21338E-07  4031   0.123E-03    0.378E-04
RMM:  47    -0.559972586594E+03   -0.38010E-06   -0.12852E-07  3625   0.813E-04
   1 F= -.55997259E+03 E0= -.55997293E+03  d E =0.102888E-02
 augmentation electrons   35.652310878041718     
 soft         electrons   243.44330814468333     
 augmentation electrons   35.652310878041718     
 soft         electrons   243.44330814468333     
 augmentation electrons   35.652310878041718     
 soft         electrons   243.44330814468333     
 augmentation electrons   35.652310878041718     
 soft         electrons   243.44330814468333     
 augmentation electrons   35.652310878041718     
 soft         electrons   243.44330814468333     
 augmentation electrons   35.652310878041718     
 soft         electrons   243.44330814468333     
 augmentation electrons   35.652310878041718     
 soft         electrons   243.44330814468333     
 augmentation electrons   35.652310878041718     
 soft         electrons   243.44330814468333     
 augmentation electrons   35.652310878041718     
 soft         electrons   243.44330814468333     
 augmentation electrons   35.652310878041718     
 soft         electrons   243.44330814468333     
 augmentation electrons   35.652310878041718     
 soft         electrons   243.44330814468333     
 augmentation electrons   35.652310878041718     
 soft         electrons   243.44330814468333     
 augmentation electrons   35.652310878041718     
 soft         electrons   243.44330814468333     
 augmentation electrons   35.652310878041718     
 soft         electrons   243.44330814468333     
 augmentation electrons   35.652310878041718     
 soft         electrons   243.44330814468333     
 augmentation electrons   35.652310878041718     
 soft         electrons   243.44330814468333     
 augmentation electrons   35.652310878041718     
 soft         electrons   243.44330814468333     
 augmentation electrons   35.652310878041718     
 soft         electrons   243.44330814468333     
 augmentation electrons   35.652310878041718     
 soft         electrons   243.44330814468333     
 augmentation electrons   35.652310878041718     
 soft         electrons   243.44330814468333     
 augmentation electrons   35.652310878041718     
 soft         electrons   243.44330814468333     
 augmentation electrons   35.652310878041718     
 soft         electrons   243.44330814468333     
 augmentation electrons   35.652310878041718     
 soft         electrons   243.44330814468333     
 augmentation electrons   35.652310878041718     
 soft         electrons   243.44330814468333     
 augmentation electrons   35.652310878041718     
 soft         electrons   243.44330814468333     
 augmentation electrons   35.652310878041718     
 soft         electrons   243.44330814468333     
 augmentation electrons   35.652310878041718     
 soft         electrons   243.44330814468333     
 augmentation electrons   35.652310878041718     
 soft         electrons   243.44330814468333     
 augmentation electrons   35.652310878041718     
 soft         electrons   243.44330814468333     
 augmentation electrons   35.652310878041718     
 soft         electrons   243.44330814468333     
 augmentation electrons   35.652310878041718     
 soft         electrons   243.44330814468333     
 augmentation electrons   35.652310878041718     
 soft         electrons   243.44330814468333     
 augmentation electrons   35.652310878041718     
 soft         electrons   243.44330814468333     
 augmentation electrons   35.652310878041718     
 soft         electrons   243.44330814468333     
 augmentation electrons   35.652310878041718     
 soft         electrons   243.44330814468333     
 augmentation electrons   35.652310878041718     
 soft         electrons   243.44330814468333     
 augmentation electrons   35.652310878041718     
 soft         electrons   243.44330814468333     
 augmentation electrons   35.652310878041718     
 soft         electrons   243.44330814468333     
 augmentation electrons   35.652310878041718     
 soft         electrons   243.44330814468333     
 augmentation electrons   35.652310878041718     
 soft         electrons   243.44330814468333     
 augmentation electrons   35.652310878041718     
 soft         electrons   243.44330814468333     
 augmentation electrons   35.652310878041718     
 soft         electrons   243.44330814468333     
 augmentation electrons   35.652310878041718     
 soft         electrons   243.44330814468333     
 augmentation electrons   35.652310878041718     
 soft         electrons   243.44330814468333     
 augmentation electrons   35.652310878041718     
 soft         electrons   243.44330814468333     
 augmentation electrons   35.652310878041718     
 soft         electrons   243.44330814468333     
 augmentation electrons   35.652310878041718     
 soft         electrons   243.44330814468333     
 augmentation electrons   35.652310878041718     
 soft         electrons   243.44330814468333     
 augmentation electrons   35.652310878041718     
 soft         electrons   243.44330814468333     
 augmentation electrons   35.652310878041718     
 soft         electrons   243.44330814468333     
 augmentation electrons   35.652310878041718     
 soft         electrons   243.44330814468333     
 augmentation electrons   35.652310878041718     
 soft         electrons   243.44330814468333     
 augmentation electrons   35.652310878041718     
 soft         electrons   243.44330814468333     
 augmentation electrons   35.652310878041718     
 soft         electrons   243.44330814468333     
 augmentation electrons   35.652310878041718     
 soft         electrons   243.44330814468333     
 augmentation electrons   35.652310878041718     
 soft         electrons   243.44330814468333     
 augmentation electrons   35.652310878041718     
 soft         electrons   243.44330814468333     
 augmentation electrons   35.652310878041718     
 soft         electrons   243.44330814468333     
 augmentation electrons   35.652310878041718     
 soft         electrons   243.44330814468333     
 augmentation electrons   35.652310878041718     
 soft         electrons   243.44330814468333     
 augmentation electrons   35.652310878041718     
 soft         electrons   243.44330814468333     
 augmentation electrons   35.652310878041718     
 soft         electrons   243.44330814468333     
 augmentation electrons   35.652310878041718     
 soft         electrons   243.44330814468333     
 augmentation electrons   35.652310878041718     
 soft         electrons   243.44330814468333     
 augmentation electrons   35.652310878041718     
 soft         electrons   243.44330814468333     
 augmentation electrons   35.652310878041718     
 soft         electrons   243.44330814468333     
 augmentation electrons   35.652310878041718     
 soft         electrons   243.44330814468333     
 augmentation electrons   35.652310878041718     
 soft         electrons   243.44330814468333     
 augmentation electrons   35.652310878041718     
 soft         electrons   243.44330814468333     
 augmentation electrons   35.652310878041718     
 soft         electrons   243.44330814468333     
 augmentation electrons   35.652310878041718     
 soft         electrons   243.44330814468333     
 augmentation electrons   35.652310878041718     
 soft         electrons   243.44330814468333     
 total        electrons   279.09561902272503     
 total        electrons   279.09561902272503     
 total        electrons   279.09561902272503     
 total        electrons   279.09561902272503     
 total        electrons   279.09561902272503     
 total        electrons   279.09561902272503     
 total        electrons   279.09561902272503     
 total        electrons   279.09561902272503     
 total        electrons   279.09561902272503     
 total        electrons   279.09561902272503     
 total        electrons   279.09561902272503     
 total        electrons   279.09561902272503     
 total        electrons   279.09561902272503     
 total        electrons   279.09561902272503     
 total        electrons   279.09561902272503     
 total        electrons   279.09561902272503     
 total        electrons   279.09561902272503     
 total        electrons   279.09561902272503     
 total        electrons   279.09561902272503     
 total        electrons   279.09561902272503     
 total        electrons   279.09561902272503     
 total        electrons   279.09561902272503     
 total        electrons   279.09561902272503     
 total        electrons   279.09561902272503     
 total        electrons   279.09561902272503     
 total        electrons   279.09561902272503     
 total        electrons   279.09561902272503     
 total        electrons   279.09561902272503     
 total        electrons   279.09561902272503     
 total        electrons   279.09561902272503     
 total        electrons   279.09561902272503     
 total        electrons   279.09561902272503     
 total        electrons   279.09561902272503     
 total        electrons   279.09561902272503     
 total        electrons   279.09561902272503     
 total        electrons   279.09561902272503     
 total        electrons   279.09561902272503     
 total        electrons   279.09561902272503     
 total        electrons   279.09561902272503     
 total        electrons   279.09561902272503     
 total        electrons   279.09561902272503     
 total        electrons   279.09561902272503     
 total        electrons   279.09561902272503     
 total        electrons   279.09561902272503     
 total        electrons   279.09561902272503     
 total        electrons   279.09561902272503     
 total        electrons   279.09561902272503     
 total        electrons   279.09561902272503     
 total        electrons   279.09561902272503     
 total        electrons   279.09561902272503     
 total        electrons   279.09561902272503     
 total        electrons   279.09561902272503     
 total        electrons   279.09561902272503     
 total        electrons   279.09561902272503     
 total        electrons   279.09561902272503     
 total        electrons   279.09561902272503     
 total        electrons   279.09561902272503     
 total        electrons   279.09561902272503     
 total        electrons   279.09561902272503     
 total        electrons   279.09561902272503     
 total        electrons   279.09561902272503     
 total        electrons   279.09561902272503     
 total        electrons   279.09561902272503     
 total        electrons   279.09561902272503     
 total        electrons   279.09561902272503     
 total        electrons   279.09561902272503     
 total        electrons   279.09561902272503     
 total        electrons   279.09561902272503     
 total        electrons   279.09561902272503     
 total        electrons   279.09561902272503     
 total        electrons   279.09561902272503     
 total        electrons   279.09561902272503     
Note: The following floating-point exceptions are signalling: IEEE_OVERFLOW_FLAG
Note: The following floating-point exceptions are signalling: IEEE_OVERFLOW_FLAG
Note: The following floating-point exceptions are signalling: IEEE_OVERFLOW_FLAG
Note: The following floating-point exceptions are signalling: IEEE_OVERFLOW_FLAG
Note: The following floating-point exceptions are signalling: IEEE_OVERFLOW_FLAG
Note: The following floating-point exceptions are signalling: IEEE_OVERFLOW_FLAG
Note: The following floating-point exceptions are signalling: IEEE_OVERFLOW_FLAG
Note: The following floating-point exceptions are signalling: IEEE_OVERFLOW_FLAG
Note: The following floating-point exceptions are signalling: IEEE_OVERFLOW_FLAG
Note: The following floating-point exceptions are signalling: IEEE_OVERFLOW_FLAG
Note: The following floating-point exceptions are signalling: IEEE_OVERFLOW_FLAG
Note: The following floating-point exceptions are signalling: IEEE_OVERFLOW_FLAG
Note: The following floating-point exceptions are signalling: IEEE_OVERFLOW_FLAG
Note: The following floating-point exceptions are signalling: IEEE_OVERFLOW_FLAG
Note: The following floating-point exceptions are signalling: IEEE_OVERFLOW_FLAG
Note: The following floating-point exceptions are signalling: IEEE_OVERFLOW_FLAG
Note: The following floating-point exceptions are signalling: IEEE_OVERFLOW_FLAG
Note: The following floating-point exceptions are signalling: IEEE_OVERFLOW_FLAG
Note: The following floating-point exceptions are signalling: IEEE_OVERFLOW_FLAG
Note: The following floating-point exceptions are signalling: IEEE_OVERFLOW_FLAG
Note: The following floating-point exceptions are signalling: IEEE_OVERFLOW_FLAG
Note: The following floating-point exceptions are signalling: IEEE_OVERFLOW_FLAG
Note: The following floating-point exceptions are signalling: IEEE_OVERFLOW_FLAG
Note: The following floating-point exceptions are signalling: IEEE_OVERFLOW_FLAG
Note: The following floating-point exceptions are signalling: IEEE_OVERFLOW_FLAG
Note: The following floating-point exceptions are signalling: IEEE_OVERFLOW_FLAG
Note: The following floating-point exceptions are signalling: IEEE_OVERFLOW_FLAG
Note: The following floating-point exceptions are signalling: IEEE_OVERFLOW_FLAG
Note: The following floating-point exceptions are signalling: IEEE_OVERFLOW_FLAG
Note: The following floating-point exceptions are signalling: IEEE_OVERFLOW_FLAG
Note: The following floating-point exceptions are signalling: IEEE_OVERFLOW_FLAG
Note: The following floating-point exceptions are signalling: IEEE_OVERFLOW_FLAG
Note: The following floating-point exceptions are signalling: IEEE_OVERFLOW_FLAG
Note: The following floating-point exceptions are signalling: IEEE_OVERFLOW_FLAG
Note: The following floating-point exceptions are signalling: IEEE_OVERFLOW_FLAG
Note: The following floating-point exceptions are signalling: IEEE_OVERFLOW_FLAG
Note: The following floating-point exceptions are signalling: IEEE_OVERFLOW_FLAG
Note: The following floating-point exceptions are signalling: IEEE_OVERFLOW_FLAG
Note: The following floating-point exceptions are signalling: IEEE_OVERFLOW_FLAG
Note: The following floating-point exceptions are signalling: IEEE_OVERFLOW_FLAG
Note: The following floating-point exceptions are signalling: IEEE_OVERFLOW_FLAG
Note: The following floating-point exceptions are signalling: IEEE_OVERFLOW_FLAG
Note: The following floating-point exceptions are signalling: IEEE_OVERFLOW_FLAG
Note: The following floating-point exceptions are signalling: IEEE_OVERFLOW_FLAG
Note: The following floating-point exceptions are signalling: IEEE_OVERFLOW_FLAG
Note: The following floating-point exceptions are signalling: IEEE_OVERFLOW_FLAG
Note: The following floating-point exceptions are signalling: IEEE_OVERFLOW_FLAG
Note: The following floating-point exceptions are signalling: IEEE_OVERFLOW_FLAG
Note: The following floating-point exceptions are signalling: IEEE_OVERFLOW_FLAG
Note: The following floating-point exceptions are signalling: IEEE_OVERFLOW_FLAG
Note: The following floating-point exceptions are signalling: IEEE_OVERFLOW_FLAG
Note: The following floating-point exceptions are signalling: IEEE_OVERFLOW_FLAG
Note: The following floating-point exceptions are signalling: IEEE_OVERFLOW_FLAG
Note: The following floating-point exceptions are signalling: IEEE_OVERFLOW_FLAG
Note: The following floating-point exceptions are signalling: IEEE_OVERFLOW_FLAG
Note: The following floating-point exceptions are signalling: IEEE_OVERFLOW_FLAG
Note: The following floating-point exceptions are signalling: IEEE_OVERFLOW_FLAG
Note: The following floating-point exceptions are signalling: IEEE_OVERFLOW_FLAG
Note: The following floating-point exceptions are signalling: IEEE_OVERFLOW_FLAG
Note: The following floating-point exceptions are signalling: IEEE_OVERFLOW_FLAG
Note: The following floating-point exceptions are signalling: IEEE_OVERFLOW_FLAG
Note: The following floating-point exceptions are signalling: IEEE_OVERFLOW_FLAG
Note: The following floating-point exceptions are signalling: IEEE_OVERFLOW_FLAG
Note: The following floating-point exceptions are signalling: IEEE_OVERFLOW_FLAG
Note: The following floating-point exceptions are signalling: IEEE_OVERFLOW_FLAG
Note: The following floating-point exceptions are signalling: IEEE_OVERFLOW_FLAG
Note: The following floating-point exceptions are signalling: IEEE_OVERFLOW_FLAG
Note: The following floating-point exceptions are signalling: IEEE_OVERFLOW_FLAG
Note: The following floating-point exceptions are signalling: IEEE_OVERFLOW_FLAG
Note: The following floating-point exceptions are signalling: IEEE_OVERFLOW_FLAG
Note: The following floating-point exceptions are signalling: IEEE_OVERFLOW_FLAG
Note: The following floating-point exceptions are signalling: IEEE_OVERFLOW_FLAG
