   50   50   85    1
  0.2363123E+02  0.8645320E-09  0.6085000E-09  0.2593596E-08  0.5000000E-15
   1.0000000000000000E-004
  CAR 
 Name                                    
    190    149    128

  0.3742002E-15  0.3742002E-15  0.3742002E-15  0.3367003E-02
    1      -14.046211   1.000000
    2      -12.702173   1.000000
    3      -12.540209   1.000000
    4      -12.074745   1.000000
    5      -11.707351   1.000000
    6      -11.278118   1.000000
    7      -11.237348   1.000000
    8      -11.198631   1.000000
    9      -11.181732   1.000000
   10      -10.768907   1.000000
   11      -10.761806   1.000000
   12      -10.417039   1.000000
   13      -10.242354   1.000000
   14      -10.221510   1.000000
   15       -9.915778   1.000000
   16       -9.886995   1.000000
   17       -9.051197   1.000000
   18       -8.960816   1.000000
   19       -8.916960   1.000000
   20       -8.831300   1.000000
   21       -8.703204   1.000000
   22       -8.681188   1.000000
   23       -8.605903   1.000000
   24       -8.188955   1.000000
   25       -8.092296   1.000000
   26       -8.066282   1.000000
   27       -7.408932   1.000000
   28       -7.299193   1.000000
   29       -6.998927   1.000000
   30       -6.789982   1.000000
   31       -6.601861   1.000000
   32       -6.597278   1.000000
   33       -6.205826   1.000000
   34       -6.107611   1.000000
   35       -5.851938   1.000000
   36       -5.736179   1.000000
   37       -5.685761   1.000000
   38       -5.549516   1.000000
   39       -5.476580   1.000000
   40       -5.403975   1.000000
   41       -5.322842   1.000000
   42       -5.256246   1.000000
   43       -5.211071   1.000000
   44       -5.149154   1.000000
   45       -5.034500   1.000000
   46       -4.893707   1.000000
   47       -4.843150   1.000000
   48       -4.825589   1.000000
   49       -4.708449   1.000000
   50       -4.645836   1.000000
   51       -4.636057   1.000000
   52       -4.547474   1.000000
   53       -4.542902   1.000000
   54       -4.446439   1.000000
   55       -4.292869   1.000000
   56       -4.180608   1.000000
   57       -4.177788   1.000000
   58       -4.150969   1.000000
   59       -4.141451   1.000000
   60       -3.969168   1.000000
   61       -3.867523   1.000000
   62       -3.627634   1.000000
   63       -3.565301   1.000000
   64       -3.519926   1.000000
   65       -3.496842   1.000000
   66       -3.447074   1.000000
   67       -3.419380   1.000000
   68       -3.348394   1.000000
   69       -3.334497   1.000000
   70       -3.326991   1.000000
   71       -3.150125   1.000000
   72       -2.911565   1.000000
   73       -2.853678   1.000000
   74       -2.753452   1.000000
   75       -2.615613   1.000000
   76       -2.549946   1.000000
   77       -2.349507   1.000000
   78       -2.326439   1.000000
   79       -2.312197   1.000000
   80       -2.282583   1.000000
   81       -1.850922   1.000000
   82       -1.684439   1.000000
   83       -1.402976   1.000000
   84       -1.340540   1.000000
   85       -1.216312   1.000000
   86       -1.153048   1.000000
   87       -1.055488   1.000000
   88       -0.969621   1.000000
   89       -0.829958   1.000000
   90       -0.445990   1.000000
   91       -0.420378   1.000000
   92       -0.140649   1.034823
   93       -0.071530   0.920366
   94       -0.026836   0.628504
   95        0.013309   0.297415
   96        0.122489  -0.033733
   97        0.170814  -0.013576
   98        0.492553  -0.000000
   99        0.499693  -0.000000
  100        0.525602  -0.000000
  101        0.600419  -0.000000
  102        0.633556  -0.000000
  103        0.708455  -0.000000
  104        0.756217  -0.000000
  105        0.797148  -0.000000
  106        1.149610  -0.000000
  107        1.157963  -0.000000
  108        1.218244  -0.000000
  109        1.239106  -0.000000
  110        1.333816  -0.000000
  111        1.371804  -0.000000
  112        1.398008  -0.000000
  113        1.425443  -0.000000
  114        1.530126  -0.000000
  115        1.555205  -0.000000
  116        1.630644  -0.000000
  117        1.638267  -0.000000
  118        1.704207  -0.000000
  119        1.729999  -0.000000
  120        1.813453  -0.000000
  121        1.917087  -0.000000
  122        2.014084  -0.000000
  123        2.074140  -0.000000
  124        2.143234  -0.000000
  125        2.182137  -0.000000
  126        2.216023  -0.000000
  127        2.251634  -0.000000
  128        2.321229  -0.000000

  0.1111111E+00  0.3729374E-15  0.3860503E-15  0.6734007E-02
    1      -14.019195   1.000000
    2      -12.678231   1.000000
    3      -12.661995   1.000000
    4      -12.013691   1.000000
    5      -11.690617   1.000000
    6      -11.259964   1.000000
    7      -11.256787   1.000000
    8      -11.195293   1.000000
    9      -11.191333   1.000000
   10      -10.767587   1.000000
   11      -10.759268   1.000000
   12      -10.440881   1.000000
   13      -10.240546   1.000000
   14      -10.223620   1.000000
   15       -9.894751   1.000000
   16       -9.868754   1.000000
   17       -9.035236   1.000000
   18       -8.941189   1.000000
   19       -8.921170   1.000000
   20       -8.850543   1.000000
   21       -8.712597   1.000000
   22       -8.671842   1.000000
   23       -8.644504   1.000000
   24       -8.198573   1.000000
   25       -8.137627   1.000000
   26       -8.075243   1.000000
   27       -7.503138   1.000000
   28       -7.319167   1.000000
   29       -6.905449   1.000000
   30       -6.795481   1.000000
   31       -6.579622   1.000000
   32       -6.575050   1.000000
   33       -6.182618   1.000000
   34       -6.081248   1.000000
   35       -5.833712   1.000000
   36       -5.715291   1.000000
   37       -5.683193   1.000000
   38       -5.575301   1.000000
   39       -5.494551   1.000000
   40       -5.423102   1.000000
   41       -5.339494   1.000000
   42       -5.249321   1.000000
   43       -5.201854   1.000000
   44       -5.122604   1.000000
   45       -4.975631   1.000000
   46       -4.904641   1.000000
   47       -4.830970   1.000000
   48       -4.755580   1.000000
   49       -4.742609   1.000000
   50       -4.622718   1.000000
   51       -4.621586   1.000000
   52       -4.539036   1.000000
   53       -4.532898   1.000000
   54       -4.423758   1.000000
   55       -4.288830   1.000000
   56       -4.189765   1.000000
   57       -4.181991   1.000000
   58       -4.163955   1.000000
   59       -4.129355   1.000000
   60       -3.953843   1.000000
   61       -3.873141   1.000000
   62       -3.654615   1.000000
   63       -3.574036   1.000000
   64       -3.502604   1.000000
   65       -3.482593   1.000000
   66       -3.475622   1.000000
   67       -3.417762   1.000000
   68       -3.357286   1.000000
   69       -3.349170   1.000000
   70       -3.281848   1.000000
   71       -3.173940   1.000000
   72       -2.934436   1.000000
   73       -2.933015   1.000000
   74       -2.733992   1.000000
   75       -2.578740   1.000000
   76       -2.550653   1.000000
   77       -2.405164   1.000000
   78       -2.387371   1.000000
   79       -2.347638   1.000000
   80       -2.250086   1.000000
   81       -1.771082   1.000000
   82       -1.714387   1.000000
   83       -1.410452   1.000000
   84       -1.372790   1.000000
   85       -1.212688   1.000000
   86       -1.113686   1.000000
   87       -1.039441   1.000000
   88       -0.878155   1.000000
   89       -0.858977   1.000000
   90       -0.515804   1.000000
   91       -0.481053   1.000000
   92       -0.127630   1.034793
   93       -0.072373   0.924106
   94       -0.012853   0.511858
   95        0.064705   0.020449
   96        0.131678  -0.030574
   97        0.135413  -0.029024
   98        0.465373  -0.000000
   99        0.507126  -0.000000
  100        0.523861  -0.000000
  101        0.622496  -0.000000
  102        0.657164  -0.000000
  103        0.729757  -0.000000
  104        0.781144  -0.000000
  105        0.813620  -0.000000
  106        1.147866  -0.000000
  107        1.154939  -0.000000
  108        1.198449  -0.000000
  109        1.266625  -0.000000
  110        1.330503  -0.000000
  111        1.397270  -0.000000
  112        1.427699  -0.000000
  113        1.445942  -0.000000
  114        1.535588  -0.000000
  115        1.591616  -0.000000
  116        1.612012  -0.000000
  117        1.613324  -0.000000
  118        1.710587  -0.000000
  119        1.738610  -0.000000
  120        1.814680  -0.000000
  121        1.917608  -0.000000
  122        1.973953  -0.000000
  123        2.053312  -0.000000
  124        2.124852  -0.000000
  125        2.149857  -0.000000
  126        2.173836  -0.000000
  127        2.259517  -0.000000
  128        2.278518  -0.000000

  0.2222222E+00  0.3922785E-15  0.3630220E-15  0.6734007E-02
    1      -13.938909   1.000000
    2      -12.902835   1.000000
    3      -12.607691   1.000000
    4      -11.968548   1.000000
    5      -11.643015   1.000000
    6      -11.321174   1.000000
    7      -11.214383   1.000000
    8      -11.190561   1.000000
    9      -11.164199   1.000000
   10      -10.762922   1.000000
   11      -10.751470   1.000000
   12      -10.520705   1.000000
   13      -10.240772   1.000000
   14      -10.232483   1.000000
   15       -9.831902   1.000000
   16       -9.812035   1.000000
   17       -8.991068   1.000000
   18       -8.926633   1.000000
   19       -8.911090   1.000000
   20       -8.879775   1.000000
   21       -8.815653   1.000000
   22       -8.666503   1.000000
   23       -8.653565   1.000000
   24       -8.284631   1.000000
   25       -8.251152   1.000000
   26       -8.004354   1.000000
   27       -7.722481   1.000000
   28       -7.289607   1.000000
   29       -6.865733   1.000000
   30       -6.719886   1.000000
   31       -6.544288   1.000000
   32       -6.522232   1.000000
   33       -6.196436   1.000000
   34       -6.003499   1.000000
   35       -5.827519   1.000000
   36       -5.765179   1.000000
   37       -5.650967   1.000000
   38       -5.638209   1.000000
   39       -5.431046   1.000000
   40       -5.321571   1.000000
   41       -5.301613   1.000000
   42       -5.210186   1.000000
   43       -5.180502   1.000000
   44       -5.045370   1.000000
   45       -5.030271   1.000000
   46       -4.933897   1.000000
   47       -4.844254   1.000000
   48       -4.707800   1.000000
   49       -4.632840   1.000000
   50       -4.600870   1.000000
   51       -4.573119   1.000000
   52       -4.518650   1.000000
   53       -4.485291   1.000000
   54       -4.366434   1.000000
   55       -4.289900   1.000000
   56       -4.212321   1.000000
   57       -4.193243   1.000000
   58       -4.153776   1.000000
   59       -4.100937   1.000000
   60       -3.914535   1.000000
   61       -3.886476   1.000000
   62       -3.735838   1.000000
   63       -3.640751   1.000000
   64       -3.512338   1.000000
   65       -3.478031   1.000000
   66       -3.451409   1.000000
   67       -3.431229   1.000000
   68       -3.378524   1.000000
   69       -3.312440   1.000000
   70       -3.264123   1.000000
   71       -3.183146   1.000000
   72       -3.047050   1.000000
   73       -2.984855   1.000000
   74       -2.683441   1.000000
   75       -2.593583   1.000000
   76       -2.551056   1.000000
   77       -2.537846   1.000000
   78       -2.508174   1.000000
   79       -2.411677   1.000000
   80       -2.139832   1.000000
   81       -1.893254   1.000000
   82       -1.554447   1.000000
   83       -1.455141   1.000000
   84       -1.411576   1.000000
   85       -1.167985   1.000000
   86       -1.027103   1.000000
   87       -0.993352   1.000000
   88       -0.951956   1.000000
   89       -0.652770   1.000000
   90       -0.640432   1.000000
   91       -0.608178   1.000000
   92       -0.251946   1.001752
   93       -0.019568   0.568439
   94        0.012467   0.303864
   95        0.069437   0.007714
   96        0.151356  -0.021773
   97        0.321873  -0.000013
   98        0.429814  -0.000000
   99        0.435752  -0.000000
  100        0.447908  -0.000000
  101        0.646227  -0.000000
  102        0.751020  -0.000000
  103        0.806200  -0.000000
  104        0.823430  -0.000000
  105        0.849465  -0.000000
  106        1.110168  -0.000000
  107        1.202411  -0.000000
  108        1.207749  -0.000000
  109        1.311689  -0.000000
  110        1.364004  -0.000000
  111        1.397392  -0.000000
  112        1.482857  -0.000000
  113        1.487496  -0.000000
  114        1.541491  -0.000000
  115        1.562078  -0.000000
  116        1.593365  -0.000000
  117        1.667923  -0.000000
  118        1.696161  -0.000000
  119        1.770683  -0.000000
  120        1.822969  -0.000000
  121        1.897053  -0.000000
  122        1.927017  -0.000000
  123        1.999817  -0.000000
  124        2.005129  -0.000000
  125        2.090244  -0.000000
  126        2.131245  -0.000000
  127        2.262333  -0.000000
  128        2.291167  -0.000000

  0.3333333E+00  0.3713828E-15  0.3468587E-15  0.6734007E-02
    1      -13.807724   1.000000
    2      -13.164045   1.000000
    3      -12.494774   1.000000
    4      -12.037420   1.000000
    5      -11.572755   1.000000
    6      -11.374536   1.000000
    7      -11.180904   1.000000
    8      -11.176323   1.000000
    9      -11.087590   1.000000
   10      -10.759589   1.000000
   11      -10.739687   1.000000
   12      -10.646479   1.000000
   13      -10.249141   1.000000
   14      -10.246311   1.000000
   15       -9.733241   1.000000
   16       -9.720780   1.000000
   17       -9.068259   1.000000
   18       -9.015166   1.000000
   19       -8.893670   1.000000
   20       -8.876326   1.000000
   21       -8.750217   1.000000
   22       -8.673774   1.000000
   23       -8.638979   1.000000
   24       -8.399376   1.000000
   25       -8.381931   1.000000
   26       -7.986535   1.000000
   27       -7.834361   1.000000
   28       -7.150143   1.000000
   29       -7.043462   1.000000
   30       -6.546823   1.000000
   31       -6.539537   1.000000
   32       -6.462837   1.000000
   33       -6.337075   1.000000
   34       -6.049365   1.000000
   35       -5.869136   1.000000
   36       -5.650479   1.000000
   37       -5.548337   1.000000
   38       -5.539795   1.000000
   39       -5.328302   1.000000
   40       -5.306621   1.000000
   41       -5.261345   1.000000
   42       -5.219760   1.000000
   43       -5.128268   1.000000
   44       -5.091399   1.000000
   45       -4.968345   1.000000
   46       -4.900689   1.000000
   47       -4.839335   1.000000
   48       -4.678365   1.000000
   49       -4.634660   1.000000
   50       -4.571854   1.000000
   51       -4.536488   1.000000
   52       -4.467404   1.000000
   53       -4.402282   1.000000
   54       -4.324186   1.000000
   55       -4.270051   1.000000
   56       -4.247376   1.000000
   57       -4.136260   1.000000
   58       -4.096198   1.000000
   59       -4.066373   1.000000
   60       -3.929747   1.000000
   61       -3.905930   1.000000
   62       -3.783612   1.000000
   63       -3.761197   1.000000
   64       -3.516395   1.000000
   65       -3.508513   1.000000
   66       -3.493080   1.000000
   67       -3.428115   1.000000
   68       -3.411861   1.000000
   69       -3.305903   1.000000
   70       -3.252070   1.000000
   71       -3.080154   1.000000
   72       -3.056596   1.000000
   73       -3.016878   1.000000
   74       -2.783269   1.000000
   75       -2.762288   1.000000
   76       -2.642834   1.000000
   77       -2.576254   1.000000
   78       -2.475775   1.000000
   79       -2.434553   1.000000
   80       -2.083435   1.000000
   81       -1.964675   1.000000
   82       -1.617226   1.000000
   83       -1.541409   1.000000
   84       -1.237781   1.000000
   85       -1.162323   1.000000
   86       -0.986439   1.000000
   87       -0.947020   1.000000
   88       -0.863010   1.000000
   89       -0.796402   1.000000
   90       -0.728416   1.000000
   91       -0.455515   1.000000
   92       -0.327883   1.000036
   93       -0.034458   0.689100
   94        0.008943   0.331328
   95        0.093086  -0.029218
   96        0.248807  -0.000723
   97        0.298028  -0.000054
   98        0.342519  -0.000003
   99        0.356484  -0.000001
  100        0.651070  -0.000000
  101        0.738634  -0.000000
  102        0.791962  -0.000000
  103        0.825930  -0.000000
  104        0.846259  -0.000000
  105        0.942452  -0.000000
  106        0.974450  -0.000000
  107        1.293874  -0.000000
  108        1.312640  -0.000000
  109        1.364058  -0.000000
  110        1.377469  -0.000000
  111        1.444606  -0.000000
  112        1.476150  -0.000000
  113        1.505548  -0.000000
  114        1.508410  -0.000000
  115        1.570749  -0.000000
  116        1.605786  -0.000000
  117        1.631772  -0.000000
  118        1.684088  -0.000000
  119        1.784564  -0.000000
  120        1.818524  -0.000000
  121        1.847013  -0.000000
  122        1.887241  -0.000000
  123        1.960684  -0.000000
  124        2.009312  -0.000000
  125        2.045010  -0.000000
  126        2.064668  -0.000000
  127        2.108298  -0.000000
  128        2.258519  -0.000000

  0.4444444E+00  0.3870091E-15  0.3932070E-15  0.6734007E-02
    1      -13.629856   1.000000
    2      -13.411915   1.000000
    3      -12.348042   1.000000
    4      -12.184197   1.000000
    5      -11.494204   1.000000
    6      -11.425313   1.000000
    7      -11.167266   1.000000
    8      -11.166579   1.000000
    9      -10.967317   1.000000
   10      -10.828920   1.000000
   11      -10.729082   1.000000
   12      -10.721352   1.000000
   13      -10.258937   1.000000
   14      -10.258252   1.000000
   15       -9.634147   1.000000
   16       -9.630129   1.000000
   17       -9.174107   1.000000
   18       -9.158044   1.000000
   19       -8.842624   1.000000
   20       -8.836903   1.000000
   21       -8.704059   1.000000
   22       -8.702800   1.000000
   23       -8.520420   1.000000
   24       -8.470481   1.000000
   25       -8.452301   1.000000
   26       -8.251778   1.000000
   27       -7.589272   1.000000
   28       -7.305483   1.000000
   29       -6.924801   1.000000
   30       -6.675274   1.000000
   31       -6.485098   1.000000
   32       -6.452824   1.000000
   33       -6.335181   1.000000
   34       -6.199165   1.000000
   35       -5.706148   1.000000
   36       -5.535995   1.000000
   37       -5.507848   1.000000
   38       -5.463381   1.000000
   39       -5.397959   1.000000
   40       -5.322392   1.000000
   41       -5.258292   1.000000
   42       -5.253697   1.000000
   43       -5.054382   1.000000
   44       -5.013920   1.000000
   45       -4.915850   1.000000
   46       -4.839654   1.000000
   47       -4.771450   1.000000
   48       -4.756510   1.000000
   49       -4.690746   1.000000
   50       -4.608615   1.000000
   51       -4.464837   1.000000
   52       -4.411269   1.000000
   53       -4.366471   1.000000
   54       -4.351245   1.000000
   55       -4.218972   1.000000
   56       -4.177067   1.000000
   57       -4.114389   1.000000
   58       -4.087120   1.000000
   59       -4.014737   1.000000
   60       -3.945004   1.000000
   61       -3.933003   1.000000
   62       -3.844054   1.000000
   63       -3.770727   1.000000
   64       -3.697916   1.000000
   65       -3.484033   1.000000
   66       -3.483779   1.000000
   67       -3.412163   1.000000
   68       -3.411285   1.000000
   69       -3.253156   1.000000
   70       -3.232220   1.000000
   71       -3.072128   1.000000
   72       -3.056259   1.000000
   73       -2.945105   1.000000
   74       -2.938601   1.000000
   75       -2.882416   1.000000
   76       -2.770460   1.000000
   77       -2.488369   1.000000
   78       -2.447435   1.000000
   79       -2.415619   1.000000
   80       -2.271412   1.000000
   81       -1.807690   1.000000
   82       -1.719197   1.000000
   83       -1.528871   1.000000
   84       -1.363187   1.000000
   85       -1.082909   1.000000
   86       -0.963400   1.000000
   87       -0.906980   1.000000
   88       -0.887134   1.000000
   89       -0.739600   1.000000
   90       -0.622497   1.000000
   91       -0.575606   1.000000
   92       -0.250831   1.001837
   93       -0.061417   0.869910
   94       -0.007047   0.462767
   95        0.062685   0.026509
   96        0.222189  -0.002331
   97        0.289888  -0.000087
   98        0.295435  -0.000063
   99        0.551289  -0.000000
  100        0.661281  -0.000000
  101        0.700436  -0.000000
  102        0.735517  -0.000000
  103        0.836395  -0.000000
  104        0.838178  -0.000000
  105        1.129079  -0.000000
  106        1.138293  -0.000000
  107        1.263746  -0.000000
  108        1.365214  -0.000000
  109        1.384659  -0.000000
  110        1.412693  -0.000000
  111        1.470885  -0.000000
  112        1.487906  -0.000000
  113        1.498381  -0.000000
  114        1.520598  -0.000000
  115        1.538363  -0.000000
  116        1.603487  -0.000000
  117        1.619725  -0.000000
  118        1.648491  -0.000000
  119        1.690307  -0.000000
  120        1.765779  -0.000000
  121        1.791622  -0.000000
  122        1.816400  -0.000000
  123        1.988391  -0.000000
  124        2.018319  -0.000000
  125        2.040160  -0.000000
  126        2.105271  -0.000000
  127        2.176583  -0.000000
  128        2.194605  -0.000000

  0.3742002E-15  0.9090909E-01  0.3596334E-15  0.6734007E-02
    1      -14.012982   1.000000
    2      -12.672957   1.000000
    3      -12.547198   1.000000
    4      -12.041316   1.000000
    5      -11.688554   1.000000
    6      -11.410970   1.000000
    7      -11.364340   1.000000
    8      -11.231227   1.000000
    9      -11.188091   1.000000
   10      -10.794249   1.000000
   11      -10.744189   1.000000
   12      -10.381424   1.000000
   13      -10.196127   1.000000
   14      -10.179617   1.000000
   15       -9.887991   1.000000
   16       -9.882195   1.000000
   17       -9.144506   1.000000
   18       -9.038806   1.000000
   19       -9.000649   1.000000
   20       -8.776074   1.000000
   21       -8.761720   1.000000
   22       -8.591466   1.000000
   23       -8.354980   1.000000
   24       -8.088178   1.000000
   25       -7.963569   1.000000
   26       -7.955751   1.000000
   27       -7.460060   1.000000
   28       -7.269705   1.000000
   29       -6.947386   1.000000
   30       -6.794414   1.000000
   31       -6.641105   1.000000
   32       -6.591583   1.000000
   33       -6.196319   1.000000
   34       -6.122175   1.000000
   35       -5.841428   1.000000
   36       -5.765958   1.000000
   37       -5.698249   1.000000
   38       -5.497506   1.000000
   39       -5.439919   1.000000
   40       -5.433049   1.000000
   41       -5.376069   1.000000
   42       -5.266323   1.000000
   43       -5.254099   1.000000
   44       -5.148997   1.000000
   45       -5.113970   1.000000
   46       -5.021117   1.000000
   47       -4.882859   1.000000
   48       -4.810666   1.000000
   49       -4.767386   1.000000
   50       -4.665973   1.000000
   51       -4.640944   1.000000
   52       -4.539186   1.000000
   53       -4.517721   1.000000
   54       -4.472699   1.000000
   55       -4.436194   1.000000
   56       -4.234071   1.000000
   57       -4.150737   1.000000
   58       -4.110971   1.000000
   59       -4.017742   1.000000
   60       -3.974563   1.000000
   61       -3.880854   1.000000
   62       -3.643672   1.000000
   63       -3.600417   1.000000
   64       -3.542380   1.000000
   65       -3.526116   1.000000
   66       -3.460244   1.000000
   67       -3.438129   1.000000
   68       -3.317835   1.000000
   69       -3.301470   1.000000
   70       -3.282890   1.000000
   71       -3.170574   1.000000
   72       -2.938674   1.000000
   73       -2.904966   1.000000
   74       -2.755774   1.000000
   75       -2.588676   1.000000
   76       -2.442767   1.000000
   77       -2.384121   1.000000
   78       -2.364619   1.000000
   79       -2.255148   1.000000
   80       -2.244912   1.000000
   81       -1.903362   1.000000
   82       -1.629733   1.000000
   83       -1.434025   1.000000
   84       -1.384393   1.000000
   85       -1.251598   1.000000
   86       -1.137061   1.000000
   87       -1.127575   1.000000
   88       -1.034589   1.000000
   89       -0.773505   1.000000
   90       -0.582308   1.000000
   91       -0.383367   1.000001
   92       -0.246650   1.002186
   93       -0.176787   1.020621
   94       -0.118198   1.030786
   95        0.015145   0.283505
   96        0.113473  -0.035368
   97        0.159023  -0.018341
   98        0.338560  -0.000004
   99        0.363747  -0.000001
  100        0.516793  -0.000000
  101        0.719767  -0.000000
  102        0.750288  -0.000000
  103        0.785437  -0.000000
  104        0.850577  -0.000000
  105        0.944305  -0.000000
  106        1.068780  -0.000000
  107        1.098615  -0.000000
  108        1.237842  -0.000000
  109        1.238076  -0.000000
  110        1.354056  -0.000000
  111        1.357834  -0.000000
  112        1.430229  -0.000000
  113        1.452331  -0.000000
  114        1.546163  -0.000000
  115        1.583983  -0.000000
  116        1.628747  -0.000000
  117        1.632958  -0.000000
  118        1.679398  -0.000000
  119        1.727864  -0.000000
  120        1.854849  -0.000000
  121        1.966102  -0.000000
  122        1.970905  -0.000000
  123        2.067594  -0.000000
  124        2.103009  -0.000000
  125        2.171664  -0.000000
  126        2.197010  -0.000000
  127        2.296651  -0.000000
  128        2.367130  -0.000000

  0.1111111E+00  0.9090909E-01  0.4822234E-15  0.6734007E-02
    1      -13.964083   1.000000
    2      -12.734752   1.000000
    3      -12.629421   1.000000
    4      -11.966905   1.000000
    5      -11.656589   1.000000
    6      -11.456760   1.000000
    7      -11.309942   1.000000
    8      -11.251927   1.000000
    9      -11.194071   1.000000
   10      -10.803781   1.000000
   11      -10.677653   1.000000
   12      -10.442156   1.000000
   13      -10.239754   1.000000
   14      -10.198544   1.000000
   15       -9.841915   1.000000
   16       -9.814603   1.000000
   17       -9.187696   1.000000
   18       -9.003503   1.000000
   19       -8.947228   1.000000
   20       -8.837478   1.000000
   21       -8.788687   1.000000
   22       -8.588279   1.000000
   23       -8.374451   1.000000
   24       -8.137783   1.000000
   25       -7.995664   1.000000
   26       -7.963269   1.000000
   27       -7.604438   1.000000
   28       -7.282594   1.000000
   29       -6.826722   1.000000
   30       -6.803992   1.000000
   31       -6.674013   1.000000
   32       -6.490193   1.000000
   33       -6.185212   1.000000
   34       -6.094811   1.000000
   35       -5.811483   1.000000
   36       -5.792563   1.000000
   37       -5.651903   1.000000
   38       -5.564879   1.000000
   39       -5.439562   1.000000
   40       -5.391472   1.000000
   41       -5.380466   1.000000
   42       -5.230261   1.000000
   43       -5.222618   1.000000
   44       -5.158394   1.000000
   45       -5.124040   1.000000
   46       -4.940794   1.000000
   47       -4.883256   1.000000
   48       -4.762926   1.000000
   49       -4.708364   1.000000
   50       -4.614707   1.000000
   51       -4.602797   1.000000
   52       -4.549857   1.000000
   53       -4.537780   1.000000
   54       -4.441698   1.000000
   55       -4.409144   1.000000
   56       -4.235590   1.000000
   57       -4.183319   1.000000
   58       -4.102391   1.000000
   59       -4.017507   1.000000
   60       -3.937701   1.000000
   61       -3.892792   1.000000
   62       -3.688456   1.000000
   63       -3.626647   1.000000
   64       -3.576241   1.000000
   65       -3.521802   1.000000
   66       -3.458349   1.000000
   67       -3.417981   1.000000
   68       -3.329585   1.000000
   69       -3.322160   1.000000
   70       -3.239109   1.000000
   71       -3.167372   1.000000
   72       -3.014413   1.000000
   73       -2.954101   1.000000
   74       -2.733491   1.000000
   75       -2.545703   1.000000
   76       -2.513131   1.000000
   77       -2.508977   1.000000
   78       -2.433715   1.000000
   79       -2.267083   1.000000
   80       -2.194008   1.000000
   81       -1.913936   1.000000
   82       -1.570352   1.000000
   83       -1.484022   1.000000
   84       -1.473927   1.000000
   85       -1.242584   1.000000
   86       -1.106836   1.000000
   87       -0.991256   1.000000
   88       -0.864214   1.000000
   89       -0.836784   1.000000
   90       -0.656111   1.000000
   91       -0.456930   1.000000
   92       -0.228639   1.004413
   93       -0.169158   1.024128
   94       -0.020652   0.577500
   95        0.042633   0.108298
   96        0.112658  -0.035418
   97        0.149878  -0.022452
   98        0.277547  -0.000170
   99        0.289534  -0.000088
  100        0.633506  -0.000000
  101        0.736721  -0.000000
  102        0.748225  -0.000000
  103        0.831503  -0.000000
  104        0.879440  -0.000000
  105        0.904500  -0.000000
  106        1.043029  -0.000000
  107        1.188031  -0.000000
  108        1.190613  -0.000000
  109        1.270265  -0.000000
  110        1.297118  -0.000000
  111        1.390132  -0.000000
  112        1.464345  -0.000000
  113        1.516453  -0.000000
  114        1.521506  -0.000000
  115        1.587981  -0.000000
  116        1.589274  -0.000000
  117        1.659293  -0.000000
  118        1.679118  -0.000000
  119        1.791938  -0.000000
  120        1.872700  -0.000000
  121        1.877576  -0.000000
  122        1.969720  -0.000000