    3    3   60    1
  0.8144830E+01  0.3039000E-09  0.3039000E-09  0.3055000E-09  0.5000000E-15
   1.0000000000000000E-004
  CAR 
 Name                                    
     12    216     10

  0.3742002E-15  0.3742002E-15  0.3742002E-15  0.2962963E-03
    1       -6.119447   1.000000
    2        4.098312   1.000000
    3        4.098314   1.000000
    4        4.372083   1.000000
    5        6.442335   1.000000
    6        8.276257   1.000000
    7        8.276258   1.000000
    8       11.387416  -0.000000
    9       11.550755   0.000000
   10       11.550757   0.000000

  0.6666667E-01  0.3766815E-15  0.3742002E-15  0.1777778E-02
    1       -6.035894   1.000000
    2        3.852482   1.000000
    3        4.137404   1.000000
    4        4.412840   1.000000
    5        6.145871   1.000000
    6        8.247615   1.000000
    7        8.657695   1.033087
    8       10.892373  -0.000000
    9       10.977550  -0.000000
   10       11.691498   0.000000

  0.1333333E+00  0.3754153E-15  0.3742002E-15  0.1777778E-02
    1       -5.787863   1.000000
    2        3.216768   1.000000
    3        4.244627   1.000000
    4        4.510479   1.000000
    5        5.600022   1.000000
    6        8.167854   1.000000
    7        9.439640  -0.000000
    8       10.004283  -0.000000
    9       10.279008  -0.000000
   10       12.395902   0.000000

  0.2000000E+00  0.3870416E-15  0.3742002E-15  0.1777778E-02
    1       -5.383070   1.000000
    2        2.368317   1.000000
    3        4.391491   1.000000
    4        4.584642   1.000000
    5        5.072236   1.000000
    6        8.053558   1.000000
    7        9.344929  -0.000000
    8        9.749807  -0.000000
    9       10.285742  -0.000000
   10       13.024935   0.000000

  0.2666667E+00  0.4120044E-15  0.3742002E-15  0.1777778E-02
    1       -4.833667   1.000000
    2        1.422665   1.000000
    3        4.534078   1.000000
    4        4.538563   1.000000
    5        4.630872   1.000000
    6        7.926689   1.000000
    7        9.097939  -0.000017
    8        9.418097  -0.000000
    9       10.975952  -0.000000
   10       13.326440   0.000000

  0.3333333E+00  0.4025434E-15  0.3742002E-15  0.1777778E-02
    1       -4.155597   1.000000
    2        0.435915   1.000000
    3        4.295118   1.000000
    4        4.345886   1.000000
    5        4.651446   1.000000
    6        7.809410   1.000000
    7        9.268976  -0.000000
    8        9.284236  -0.000000
    9       11.308556  -0.000000
   10       13.490600   0.000000

  0.4000000E+00  0.3732510E-15  0.3742002E-15  0.1777778E-02
    1       -3.367880   1.000000
    2       -0.560864   1.000000
    3        4.070637   1.000000
    4        4.126773   1.000000
    5        4.717384   1.000000
    6        7.720323   1.000000
    7        9.245386  -0.000000
    8        9.718330  -0.000000
    9       11.332088  -0.000000
   10       13.680593   0.000000

  0.4666667E+00  0.3915456E-15  0.3742002E-15  0.1777778E-02
    1       -2.494643   1.000000
    2       -1.539676   1.000000
    3        3.958509   1.000000
    4        3.989375   1.000000
    5        4.744486   1.000000
    6        7.672463   1.000000
    7        9.264684  -0.000000
    8       10.085832  -0.000000
    9       11.277956  -0.000000
   10       14.015309   0.000000

  0.6666667E-01  0.6666667E-01  0.3742002E-15  0.1777778E-02
    1       -5.870091   1.000000
    2        3.429059   1.000000
    3        4.173144   1.000000
    4        4.503508   1.000000
    5        5.752004   1.000000
    6        8.179848   1.000000
    7        9.227148  -0.000000
    8       10.334912  -0.000000
    9       10.337453  -0.000000
   10       12.219371   0.000000

  0.1333333E+00  0.6666667E-01  0.3742002E-15  0.3555556E-02
    1       -5.543602   1.000000
    2        2.725360   1.000000
    3        4.171287   1.000000
    4        4.684601   1.000000
    5        5.260843   1.000000
    6        8.046549   1.000000
    7        9.605484  -0.000000
    8        9.833533  -0.000000
    9       10.044534  -0.000000
   10       12.990640   0.000000

  0.2000000E+00  0.6666667E-01  0.3742002E-15  0.3555556E-02
    1       -5.066308   1.000000
    2        1.868680   1.000000
    3        4.083649   1.000000
    4        4.813915   1.000000
    5        4.899581   1.000000
    6        7.875554   1.000000
    7        9.093582  -0.000022
    8        9.545700  -0.000000
    9       10.866241  -0.000000
   10       13.468049   0.000000

  0.2666667E+00  0.6666667E-01  0.3742002E-15  0.3555556E-02
    1       -4.452266   1.000000
    2        0.934705   1.000000
    3        3.895546   1.000000
    4        4.455078   1.000000
    5        5.080246   1.000000
    6        7.697301   1.000000
    7        8.893011  -0.035405
    8        9.515650  -0.000000
    9       11.454542  -0.000000
   10       13.650976   0.000000

  0.3333333E+00  0.6666667E-01  0.3742002E-15  0.3555556E-02
    1       -3.719112   1.000000
    2       -0.036059   1.000000
    3        3.666972   1.000000
    4        4.197374   1.000000
    5        5.185203   1.000000
    6        7.542180   1.000000
    7        8.946466  -0.015292
    8        9.695780  -0.000000
    9       11.660702   0.000000
   10       13.797495   0.000000

  0.4000000E+00  0.6666667E-01  0.3742002E-15  0.3555556E-02
    1       -2.888315   1.000000
    2       -1.012997   1.000000
    3        3.488044   1.000000
    4        4.043338   1.000000
    5        5.224994   1.000000
    6        7.436729   1.000000
    7        9.092438  -0.000023
    8        9.940636  -0.000000
    9       11.648358   0.000000
   10       14.056992   0.000000

  0.4666667E+00  0.6666667E-01  0.3742002E-15  0.1777778E-02
    1       -2.065686   1.000000
    2       -1.885033   1.000000
    3        3.421558   1.000000
    4        3.992211   1.000000
    5        5.233005   1.000000
    6        7.399368   1.000000
    7        9.164405  -0.000000
    8       10.055540  -0.000000
    9       11.622777   0.000000
   10       14.393928   0.000000

  0.1333333E+00  0.1333333E+00  0.3742002E-15  0.1777778E-02
    1       -5.144473   1.000000
    2        2.078294   1.000000
    3        3.876432   1.000000
    4        4.896298   1.000000
    5        5.007923   1.000000
    6        7.803552   1.000000
    7        9.119855  -0.000004
    8        9.576468  -0.000000
    9       10.878119  -0.000000
   10       13.881098   0.000000

  0.2000000E+00  0.1333333E+00  0.3742002E-15  0.3555556E-02
    1       -4.602147   1.000000
    2        1.321164   1.000000
    3        3.468912   1.000000
    4        4.585973   1.000000
    5        5.372691   1.000000
    6        7.500616   1.000000
    7        8.680011   1.009002
    8        9.633373  -0.000000
    9       11.726541   0.000000
   10       14.261195   0.000000

  0.2666667E+00  0.1333333E+00  0.3742002E-15  0.3555556E-02
    1       -3.932508   1.000000
    2        0.475803   1.000000
    3        3.060816   1.000000
    4        4.356860   1.000000
    5        5.687354   1.000000
    6        7.200835   1.000000
    7        8.495372   1.000384
    8        9.799260  -0.000000
    9       12.301444   0.000000
   10       14.344293   0.000000

  0.3333333E+00  0.1333333E+00  0.3742002E-15  0.3555556E-02
    1       -3.156062   1.000000
    2       -0.431080   1.000000
    3        2.747733   1.000000
    4        4.211639   1.000000
    5        5.869593   1.000000
    6        6.961440   1.000000
    7        8.608905   1.023176
    8        9.886424  -0.000000
    9       12.465776   0.000000
   10       14.536006   0.000000

  0.4000000E+00  0.1333333E+00  0.3742002E-15  0.3555556E-02
    1       -2.304909   1.000000
    2       -1.353344   1.000000
    3        2.581692   1.000000
    4        4.142713   1.000000
    5        5.931273   1.000000
    6        6.828488   1.000000
    7        8.852410   0.000989
    8        9.826611  -0.000000
    9       12.463197   0.000000
   10       14.918437   0.000000

  0.2000000E+00  0.2000000E+00  0.3742002E-15  0.1777778E-02
    1       -4.004032   1.000000
    2        0.730486   1.000000
    3        2.769802   1.000000
    4        4.434656   1.000000
    5        5.891312   1.000000
    6        7.040645   1.000000
    7        8.295388   1.000000
    8        9.839923  -0.000000
    9       12.682804   0.000000
   10       14.346702   0.000000

  0.2666667E+00  0.2000000E+00  0.3742002E-15  0.3555556E-02
    1       -3.291005   1.000000
    2        0.053225   1.000000
    3        2.168986   1.000000
    4        4.367496   1.000000
    5        6.356234   1.000000
    6        6.603449   1.000000
    7        8.137571   1.000000
    8        9.886577  -0.000000
    9       13.348872   0.000000
   10       14.538847   0.000000

  0.3333333E+00  0.2000000E+00  0.3742002E-15  0.3555556E-02
    1       -2.492635   1.000000
    2       -0.732610   1.000000
    3        1.792247   1.000000
    4        4.360632   1.000000
    5        6.282898   1.000000
    6        6.610063   1.000000
    7        8.329058   1.000000
    8        9.655425  -0.000000
    9       13.470670   0.000000
   10       15.185328   0.000000

  0.4000000E+00  0.2000000E+00  0.3742002E-15  0.1777778E-02
    1       -1.787962   1.000000
    2       -1.438624   1.000000
    3        1.668354   1.000000
    4        4.367685   1.000000
    5        6.162803   1.000000
    6        6.666672   1.000000
    7        8.581782   1.011928
    8        9.408616  -0.000000
    9       13.467097   0.000000
   10       15.524155   0.000000

  0.2666667E+00  0.2666667E+00  0.3742002E-15  0.1777778E-02
    1       -2.556022   1.000000
    2       -0.389501   1.000000
    3        1.389811   1.000000
    4        4.486519   1.000000
    5        6.038197   1.000000
    6        7.030385   1.000000
    7        7.936931   1.000000
    8        9.603554  -0.000000
    9       14.378591   0.000000
   10       14.482390   0.000000

  0.3333333E+00  0.2666667E+00  0.3742002E-15  0.3555556E-02
    1       -1.791927   1.000000
    2       -0.955456   1.000000
    3        0.937948   1.000000
    4        4.651758   1.000000
    5        5.635546   1.000000
    6        7.398020   1.000000
    7        8.147600   1.000000
    8        9.068298  -0.000095
    9       14.410516   0.000000
   10       15.152014   0.000000

  0.3333333E+00  0.3333333E+00  0.3742002E-15  0.5925926E-03
    1       -1.230424   1.000000
    2       -1.230421   1.000000
    3        0.522828   1.000000
    4        5.081549   1.000000
    5        5.081551   1.000000
    6        8.061802   1.000000
    7        8.061803   1.000000
    8        8.473126   1.000120
    9       14.979721   0.000000
   10       14.979722   0.000000

  0.3742002E-15  0.3742002E-15  0.6666667E-01  0.5925926E-03
    1       -6.057411   1.000000
    2        4.150305   1.000000
    3        4.150307   1.000000
    4        4.162995   1.000000
    5        6.554666   1.000000
    6        8.063678   1.000000
    7        8.063679   1.000000
    8       11.400381  -0.000000
    9       11.400384  -0.000000
   10       11.424742  -0.000000

  0.6666667E-01  0.3766815E-15  0.6666667E-01  0.3555556E-02
    1       -5.974821   1.000000
    2        3.900343   1.000000
    3        4.184629   1.000000
    4        4.202983   1.000000
    5        6.223517   1.000000
    6        8.026010   1.000000
    7        8.463170   1.000068
    8       10.930211  -0.000000
    9       11.011516  -0.000000
   10       11.733512   0.000000

  0.1333333E+00  0.3754153E-15  0.6666667E-01  0.3555556E-02
    1       -5.729736   1.000000
    2        3.253389   1.000000
    3        4.275760   1.000000
    4        4.299182   1.000000
    5        5.662929   1.000000
    6        7.932897   1.000000
    7        9.142401  -0.000001
    8       10.266947  -0.000000
    9       10.444362  -0.000000
   10       12.435502   0.000000

  0.2000000E+00  0.3870416E-15  0.6666667E-01  0.3555556E-02
    1       -5.329923   1.000000
    2        2.390189   1.000000
    3        4.380759   1.000000
    4        4.390928   1.000000
    5        5.146924   1.000000
    6        7.836234   1.000000
    7        9.254221  -0.000000
    8        9.983021  -0.000000
    9       10.364622  -0.000000
   10       13.013691   0.000000

  0.2666667E+00  0.4120044E-15  0.6666667E-01  0.3555556E-02
    1       -4.787664   1.000000
    2        1.432262   1.000000
    3        4.359837   1.000000
    4        4.488584   1.000000
    5        4.726154   1.000000
    6        7.791833   1.000000
    7        9.101547  -0.000013
    8        9.649877  -0.000000
    9       10.889378  -0.000000
   10       13.334941   0.000000

  0.3333333E+00  0.4025434E-15  0.6666667E-01  0.3555556E-02
    1       -4.118923   1.000000
    2        0.439681   1.000000
    3        4.226802   1.000000
    4        4.401300   1.000000
    5        4.542131   1.000000
    6        7.817641   1.000000
    7        9.260888  -0.000000
    8        9.435705  -0.000000
    9       11.130503  -0.000000
   10       13.709580   0.000000

  0.4000000E+00  0.3732510E-15  0.6666667E-01  0.3555556E-02
    1       -3.342958   1.000000
    2       -0.554901   1.000000
    3        4.077929   1.000000
    4        4.160961   1.000000
    5        4.556047   1.000000
    6        7.878290   1.000000
    7        9.324685  -0.000000
    8        9.613698  -0.000000
    9       11.182338  -0.000000
   10       14.000381   0.000000

  0.4666667E+00  0.3915456E-15  0.6666667E-01  0.3555556E-02
    1       -2.488034   1.000000
    2       -1.519716   1.000000
    3        3.992412   1.000000
    4        4.025438   1.000000
    5        4.553797   1.000000
    6        7.922039   1.000000
    7        9.286272  -0.000000
    8        9.874653  -0.000000
    9       11.247995  -0.000000
   10       14.193895   0.000000

  0.6666667E-01  0.6666667E-01  0.6666667E-01  0.3555556E-02
    1       -5.810972   1.000000
    2        3.471138   1.000000
    3        4.203214   1.000000
    4        4.289122   1.000000
    5        5.829842   1.000000
    6        7.929356   1.000000
    7        9.005101  -0.002078
    8       10.458141  -0.000000
    9       10.525631  -0.000000
   10       12.263534   0.000000

  0.1333333E+00  0.6666667E-01  0.6666667E-01  0.7111111E-02
    1       -5.488450   1.000000
    2        2.757241   1.000000
    3        4.186561   1.000000
    4        4.400679   1.000000
    5        5.421981   1.000000
    6        7.760429   1.000000
    7        9.469397  -0.000000
    8        9.966772  -0.000000
    9       10.280040  -0.000000
   10       13.019423   0.000000

  0.2000000E+00  0.6666667E-01  0.6666667E-01  0.7111111E-02
    1       -5.017252   1.000000
    2        1.887045   1.000000
    3        4.077981   1.000000
    4        4.426372   1.000000
    5        5.193292   1.000000
    6        7.608212   1.000000
    7        9.247816  -0.000000
    8        9.697311  -0.000000
    9       10.810393  -0.000000
   10       13.440193   0.000000

  0.2666667E+00  0.6666667E-01  0.6666667E-01  0.7111111E-02
    1       -4.411500   1.000000
    2        0.942467   1.000000
    3        3.873818   1.000000
    4        4.317912   1.000000
    5        5.133170   1.000000
    6        7.552385   1.000000
    7        9.118876  -0.000004
    8        9.574753  -0.000000
    9       11.282275  -0.000000
   10       13.734892   0.000000

  0.3333333E+00  0.6666667E-01  0.6666667E-01  0.7111111E-02
    1       -3.688944   1.000000
    2       -0.031450   1.000000
    3        3.651136   1.000000
    4        4.171453   1.000000
    5        5.094377   1.000000
    6        7.600025   1.000000
    7        9.115905  -0.000005
    8        9.663845  -0.000000
    9       11.444903  -0.000000
   10       14.110205   0.000000

  0.4000000E+00  0.6666667E-01  0.6666667E-01  0.7111111E-02
    1       -2.871937   1.000000
    2       -1.002232   1.000000
    3        3.486717   1.000000
    4        4.063091   1.000000
    5        5.047259   1.000000
    6        7.667402   1.000000
    7        9.158512  -0.000000
    8        9.844129  -0.000000
    9       11.496483  -0.000000
   10       14.300809   0.000000

  0.4666667E+00  0.6666667E-01  0.6666667E-01  0.3555556E-02
    1       -2.104770   1.000000
    2       -1.821133   1.000000
    3        3.426775   1.000000
    4        4.024404   1.000000
    5        5.026018   1.000000
    6        7.693123   1.000000
    7        9.187217  -0.000000
    8        9.925189  -0.000000
    9       11.528383   0.000000
   10       14.437770   0.000000

  0.1333333E+00  0.1333333E+00  0.6666667E-01  0.3555556E-02
    1       -5.094410   1.000000
    2        2.105671   1.000000
    3        3.859592   1.000000
    4        4.439329   1.000000
    5        5.422694   1.000000
    6        7.437363   1.000000
    7        9.459039  -0.000000
    8        9.588907  -0.000000
    9       10.821453  -0.000000
   10       13.843908   0.000000

  0.2000000E+00  0.1333333E+00  0.6666667E-01  0.7111111E-02
    1       -4.559401   1.000000
    2        1.338867   1.000000
    3        3.427589   1.000000
    4        4.381138   1.000000
    5        5.596347   1.000000
    6        7.142738   1.000000
    7        9.070255  -0.000085
    8        9.662081  -0.000000
    9       11.552528   0.000000
   10       14.067070   0.000000

  0.2666667E+00  0.1333333E+00  0.6666667E-01  0.7111111E-02
    1       -3.899403   1.000000
    2        0.483968   1.000000
    3        3.032717   1.000000
    4        4.281169   1.000000
    5        5.698104   1.000000
    6        7.055163   1.000000
    7        8.833716   0.058617
    8        9.797280  -0.000000
    9       12.039757   0.000000
   10       14.294878   0.000000

  0.3333333E+00  0.1333333E+00  0.6666667E-01  0.7111111E-02
    1       -3.135322   1.000000
    2       -0.424437   1.000000
    3        2.743663   1.000000
    4        4.198327   1.000000
    5        5.633817   1.000000
    6        7.171996   1.000000
    7        8.799092   0.255266
    8        9.862719  -0.000000
    9       12.211068   0.000000
   10       14.631968   0.000000

  0.4000000E+00  0.1333333E+00  0.6666667E-01  0.7111111E-02
    1       -2.304561   1.000000
    2       -1.332747   1.000000
    3        2.592680   1.000000
    4        4.156152   1.000000
    5        5.549529   1.000000
    6        7.271274   1.000000
    7        8.918614  -0.027675
    8        9.806609  -0.000000
    9       12.259595   0.000000
   10       14.745218   0.000000

  0.2000000E+00  0.2000000E+00  0.6666667E-01  0.3555556E-02
    1       -3.969976   1.000000
    2        0.743651   1.000000
    3        2.733943   1.000000
    4        4.330706   1.000000
    5        6.091488   1.000000
    6        6.651193   1.000000
    7        8.722678   0.847288
    8        9.845493  -0.000000
    9       12.405569   0.000000
   10       14.091391   0.000000

  0.2666667E+00  0.2000000E+00  0.6666667E-01  0.7111111E-02
    1       -3.268382   1.000000
    2        0.058769   1.000000
    3        2.163327   1.000000
    4        4.315369   1.000000
    5        6.107350   1.000000
    6        6.714875   1.000000
    7        8.490638   1.000302
    8        9.882769  -0.000000
    9       13.025140   0.000000
   10       14.271780   0.000000

  0.3333333E+00  0.2000000E+00  0.6666667E-01  0.7111111E-02
    1       -2.485250   1.000000
    2       -0.726121   1.000000
    3        1.812488   1.000000
    4        4.338325   1.000000
    5        5.793923   1.000000
    6        7.097062   1.000000
    7        8.511100   1.000820
    8        9.666517  -0.000000
    9       13.214845   0.000000
   10       14.756761   0.000000

  0.4000000E+00  0.2000000E+00  0.6666667E-01  0.3555556E-02
    1       -1.819358   1.000000
    2       -1.397888   1.000000
    3        1.697607   1.000000
    4        4.357524   1.000000
    5        5.670272   1.000000
    6        7.221168   1.000000
    7        8.664048   1.029281
    8        9.447171  -0.000000
    9       13.242215   0.000000
   10       15.001919   0.000000

  0.2666667E+00  0.2666667E+00  0.6666667E-01  0.3555556E-02
    1       -2.546998   1.000000
    2       -0.391751   1.000000
    3        1.417679   1.000000
    4        4.437230   1.000000
    5        5.786425   1.000000
    6        7.176966   1.000000
    7        8.258519   1.000000
    8        9.618565  -0.000000
    9       14.009136   0.000000
   10       14.284054   0.000000

  0.3333333E+00  0.2666667E+00  0.6666667E-01  0.7111111E-02
    1       -1.801989   1.000000
    2       -0.956889   1.000000
    3        0.991246   1.000000
    4        4.601313   1.000000
    5        5.428738   1.000000
    6        7.629076   1.000000
    7        8.319114   1.000000
    8        9.118110  -0.000005
    9       14.190398   0.000000
   10       14.849542   0.000000

  0.3333333E+00  0.3333333E+00  0.6666667E-01  0.1185185E-02
    1       -1.248477   1.000000
    2       -1.248474   1.000000
    3        0.603356   1.000000
    4        4.978178   1.000000
    5        4.978180   1.000000
    6        8.244362   1.000000
    7        8.244362   1.000000
    8        8.518597   1.001154
    9       14.760487   0.000000
   10       14.760487   0.000000

  0.3742002E-15  0.3742002E-15  0.1333333E+00  0.5925926E-03
    1       -5.875133   1.000000
    2        3.615614   1.000000
    3        4.305767   1.000000
    4        4.305769   1.000000
    5        6.856841   1.000000
    6        7.573134   1.000000
    7        7.573136   1.000000
    8       10.979723  -0.000000
    9       10.979726  -0.000000
   10       11.536084   0.000000

  0.6666667E-01  0.3766815E-15  0.1333333E+00  0.3555556E-02
    1       -5.795546   1.000000
    2        3.656053   1.000000
    3        4.042488   1.000000
    4        4.324107   1.000000
    5        6.393072   1.000000
    6        7.530714   1.000000
    7        8.087104   1.000000
    8       10.777642  -0.000000
    9       10.877728  -0.000000
   10       11.851608   0.000000

  0.1333333E+00  0.3754153E-15  0.1333333E+00  0.3555556E-02
    1       -5.559513   1.000000
    2        3.345563   1.000000
    3        3.780149   1.000000
    4        4.361995   1.000000
    5        5.800385   1.000000
    6        7.453114   1.000000
    7        8.720882   0.857694
    8       10.477685  -0.000000
    9       10.650859  -0.000000
   10       12.581910   0.000000

  0.2000000E+00  0.3870416E-15  0.1333333E+00  0.3555556E-02
    1       -5.175149   1.000000
    2        2.443970   1.000000
    3        3.917288   1.000000
    4        4.378202   1.000000
    5        5.289657   1.000000
    6        7.445926   1.000000
    7        8.963579  -0.009391
    8       10.388989  -0.000000
    9       10.580884  -0.000000
   10       12.994366   0.000000

  0.2666667E+00  0.4120044E-15  0.1333333E+00  0.3555556E-02
    1       -4.655041   1.000000
    2        1.457953   1.000000
    3        4.029122   1.000000
    4        4.341020   1.000000
    5        4.858046   1.000000
    6        7.585763   1.000000
    7        8.967579  -0.008280
    8       10.120705  -0.000000
    9       10.906480  -0.000000
   10       13.109352   0.000000

  0.3333333E+00  0.4025434E-15  0.1333333E+00  0.3555556E-02
    1       -4.015686   1.000000
    2        0.456846   1.000000
    3        4.082636   1.000000
    4        4.260399   1.000000
    5        4.505090   1.000000
    6        7.868140   1.000000
    7        9.080827  -0.000047
    8        9.851372  -0.000000
    9       11.016156  -0.000000
   10       13.521806   0.000000

  0.4000000E+00  0.3732510E-15  0.1333333E+00  0.3555556E-02
    1       -3.278336   1.000000
    2       -0.523071   1.000000
    3        4.091395   1.000000
    4        4.175768   1.000000
    5        4.247427   1.000000
    6        8.219687   1.000000
    7        9.266778  -0.000000
    8        9.584853  -0.000000
    9       11.085895  -0.000000
   10       13.893021   0.000000

  0.4666667E+00  0.3915456E-15  0.1333333E+00  0.3555556E-02
    1       -2.494467   1.000000
    2       -1.428033   1.000000
    3        4.086387   1.000000
    4        4.109885   1.000000
    5        4.123840   1.000000
    6        8.513089   1.000899
    7        9.362578  -0.000000
    8        9.370808  -0.000000
    9       11.253182  -0.000000
   10       13.769701   0.000000

  0.6666667E-01  0.6666667E-01  0.1333333E+00  0.3555556E-02
    1       -5.637730   1.000000
    2        3.594391   1.000000
    3        3.726466   1.000000
    4        4.313421   1.000000
    5        6.003021   1.000000
    6        7.402009   1.000000
    7        8.628189   1.031596
    8       10.503300  -0.000000
    9       10.723711  -0.000000
   10       12.397045   0.000000

  0.1333333E+00  0.6666667E-01  0.1333333E+00  0.7111111E-02
    1       -5.327486   1.000000
    2        2.845135   1.000000
    3        3.830084   1.000000
    4        4.225360   1.000000
    5        5.679572   1.000000
    6        7.226050   1.000000
    7        9.118052  -0.000005
    8       10.244747  -0.000000
    9       10.615694  -0.000000
   10       13.141952   0.000000

  0.2000000E+00  0.6666667E-01  0.1333333E+00  0.7111111E-02
    1       -4.875120   1.000000
    2        1.935599   1.000000
    3        3.873855   1.000000
    4        4.112994   1.000000
    5        5.423598   1.000000
    6        7.200891   1.000000
    7        9.205098  -0.000000
    8       10.105119  -0.000000
    9       10.847580  -0.000000
   10       13.288680   0.000000

  0.2666667E+00  0.6666667E-01  0.1333333E+00  0.7111111E-02
    1       -4.295213   1.000000
    2        0.966421   1.000000
    3        3.743000   1.000000
    4        4.103337   1.000000
    5        5.155080   1.000000
    6        7.402835   1.000000
    7        9.239268  -0.000000
    8        9.900963  -0.000000
    9       11.128899  -0.000000
   10       13.431257   0.000000

  0.3333333E+00  0.6666667E-01  0.1333333E+00  0.7111111E-02
    1       -3.606306   1.000000
    2       -0.009121   1.000000
    3        3.571952   1.000000
    4        4.111384   1.000000
    5        4.897862   1.000000
    6        7.762891   1.000000
    7        9.376807  -0.000000
    8        9.664796  -0.000000
    9       11.219339  -0.000000
   10       13.822088   0.000000

  0.4000000E+00  0.6666667E-01  0.1333333E+00  0.7111111E-02
    1       -2.836988   1.000000
    2       -0.951896   1.000000
    3        3.448092   1.000000
    4        4.112717   1.000000
    5        4.710728   1.000000
    6        8.144553   1.000000
    7        9.377048  -0.000000
    8        9.555951  -0.000000
    9       11.327778  -0.000000
   10       13.921246   0.000000

  0.4666667E+00  0.6666667E-01  0.1333333E+00  0.3555556E-02
    1       -2.212867   1.000000
    2       -1.633944   1.000000
    3        3.403331   1.000000
    4        4.114301   1.000000
    5        4.641015   1.000000
    6        8.336497   1.000000
    7        9.252179  -0.000000
    8        9.593912  -0.000000
    9       11.415703  -0.000000
   10       13.828697   0.000000

  0.1333333E+00  0.1333333E+00  0.1333333E+00  0.3555556E-02
    1       -4.949160   1.000000
    2        2.184067   1.000000
    3        3.650937   1.000000
    4        4.066737   1.000000
    5        5.855928   1.000000
    6        6.813349   1.000000
    7        9.496747  -0.000000
    8        9.925552  -0.000000
    9       10.845660  -0.000000
   10       13.773563   0.000000

  0.2000000E+00  0.1333333E+00  0.1333333E+00  0.7111111E-02
    1       -4.436740   1.000000
    2        1.388601   1.000000
    3        3.264126   1.000000
    4        4.102535   1.000000
    5        5.881331   1.000000
    6        6.688305   1.000000
    7        9.548211  -0.000000
    8        9.787275  -0.000000
    9       11.309222  -0.000000
   10       13.652815   0.000000

  0.2666667E+00  0.1333333E+00  0.1333333E+00  0.7111111E-02
    1       -3.806778   1.000000
    2        0.509822   1.000000
    3        2.943574   1.000000
    4        4.137679   1.000000
    5        5.542990   1.000000
    6        7.069260   1.000000
    7        9.438365  -0.000000
    8        9.776769  -0.000000
    9       11.659871   0.000000
   10       13.721680   0.000000

  0.3333333E+00  0.1333333E+00  0.1333333E+00  0.7111111E-02
    1       -3.082205   1.000000
    2       -0.395942   1.000000
    3        2.723964   1.000000
    4        4.166337   1.000000
    5        5.208521   1.000000
    6        7.574262   1.000000
    7        9.277972  -0.000000
    8        9.774600  -0.000000
    9       11.812276   0.000000
   10       13.978929   0.000000

  0.4000000E+00  0.1333333E+00  0.1333333E+00  0.7111111E-02
    1       -2.322285   1.000000
    2       -1.250450   1.000000
    3        2.612012   1.000000
    4        4.193684   1.000000
    5        5.007566   1.000000
    6        7.975388   1.000000
    7        9.114181  -0.000006
    8        9.747392  -0.000000
    9       11.897464   0.000000
   10       14.067218   0.000000

  0.2000000E+00  0.2000000E+00  0.1333333E+00  0.3555556E-02
    1       -3.874119   1.000000
    2        0.780048   1.000000
    3        2.629879   1.000000
    4        4.149241   1.000000
    5        6.024429   1.000000
    6        6.548740   1.000000
    7        9.424806  -0.000000
    8        9.838403  -0.000000
    9       11.949585   0.000000
   10       13.633505   0.000000

  0.2666667E+00  0.2000000E+00  0.1333333E+00  0.7111111E-02
    1       -3.207481   1.000000
    2        0.075063   1.000000
    3        2.152191   1.000000
    4        4.207801   1.000000
    5        5.583768   1.000000
    6        7.108513   1.000000
    7        9.178520  -0.000000
    8        9.864836  -0.000000
    9       12.483041   0.000000
   10       13.756575   0.000000
