 running on    4 total cores
 distrk:  each k-point on    4 cores,    1 groups
 distr:  one band on    2 cores,    2 groups
 using from now: INCAR     
 vasp.5.4.4.18Apr17-6-g9f103f2a35 (build Dec  7 2020 12:43:57) complex           
 POSCAR found type information on POSCAR  Mo B 
 POSCAR found :  2 types and       3 ions
 scaLAPACK will be used
 LDA part: xc-table for Pade appr. of Perdew
 POSCAR, INCAR and KPOINTS ok, starting setup
 FFT: planning ...
 WAVECAR not read
 augmentation electrons   12.018373587906812     
 soft         electrons   0.0000000000000000     
 augmentation electrons   12.018373587906812     
 soft         electrons   0.0000000000000000     
 augmentation electrons   12.018373587906812     
 soft         electrons   0.0000000000000000     
 augmentation electrons   12.018373587906812     
 soft         electrons   0.0000000000000000     
 total        electrons   12.018373587906812     
 total        electrons   12.018373587906812     
 total        electrons   12.018373587906812     
 total        electrons   12.018373587906812     
 augmentation electrons   169.75791458332097     
 soft         electrons   0.0000000000000000     
 augmentation electrons   169.75791458332097     
 soft         electrons   0.0000000000000000     
 augmentation electrons   169.75791458332097     
 soft         electrons   0.0000000000000000     
 augmentation electrons   169.75791458332097     
 soft         electrons   0.0000000000000000     
 total        electrons   169.75791458332097     
 total        electrons   169.75791458332097     
 total        electrons   169.75791458332097     
 total        electrons   169.75791458332097     
 entering main loop
       N       E                     dE             d eps       ncg     rms          rms(c)
DAV:   1     0.430981571449E+02    0.43098E+02   -0.56740E+03  4320   0.105E+03
DAV:   2    -0.118432654939E+02   -0.54941E+02   -0.52104E+02  5138   0.217E+02
DAV:   3    -0.139267534674E+02   -0.20835E+01   -0.19928E+01  5960   0.381E+01
DAV:   4    -0.139516497263E+02   -0.24896E-01   -0.24665E-01  5396   0.324E+00
DAV:   5    -0.139519927275E+02   -0.34300E-03   -0.34286E-03  5576   0.297E-01    0.329E+01
RMM:   6    -0.124729014328E+02    0.14791E+01   -0.62151E+00  4328   0.170E+01    0.107E+01
RMM:   7    -0.126634523554E+02   -0.19055E+00   -0.28924E-01  4334   0.420E+00    0.575E+00
RMM:   8    -0.127608128508E+02   -0.97360E-01   -0.21084E-01  4320   0.576E+00    0.164E+00
RMM:   9    -0.127534583421E+02    0.73545E-02   -0.45548E-02  4326   0.154E+00    0.592E-01
RMM:  10    -0.127519695150E+02    0.14888E-02   -0.21981E-03  4327   0.461E-01    0.166E-01
RMM:  11    -0.127520486251E+02   -0.79110E-04   -0.27449E-03  4321   0.409E-01    0.143E-01
RMM:  12    -0.127518688516E+02    0.17977E-03   -0.30250E-04  4320   0.165E-01    0.230E-02
RMM:  13    -0.127518727024E+02   -0.38508E-05   -0.19764E-05  4269   0.344E-02    0.590E-03
RMM:  14    -0.127518751065E+02   -0.24041E-05   -0.25481E-06  3121   0.212E-02    0.325E-03
RMM:  15    -0.127518750266E+02    0.79837E-07   -0.18577E-07  2733   0.384E-03
   1 F= -.12751875E+02 E0= -.12751884E+02  d E =-.127519E+02
 curvature:   0.00 expect dE= 0.000E+00 dE for cont linesearch  0.000E+00
 trial: gam= 0.00000 g(F)=  0.133E-42 g(S)=  0.399E+01 ort = 0.000E+00 (trialstep = 0.100E+01)
 search vector abs. value=  0.399E+01
 bond charge predicted
       N       E                     dE             d eps       ncg     rms          rms(c)
DAV:   1    -0.155717061358E+02   -0.28198E+01   -0.93927E+01  4390   0.842E+01    0.223E+01
RMM:   2    -0.133524556202E+02    0.22193E+01   -0.13163E+01  4322   0.227E+01    0.953E+00
RMM:   3    -0.124980914882E+02    0.85436E+00   -0.77673E-01  4322   0.602E+00    0.786E+00
RMM:   4    -0.125457367417E+02   -0.47645E-01   -0.90393E-01  4327   0.630E+00    0.182E+00
RMM:   5    -0.124841348209E+02    0.61602E-01   -0.23877E-01  4335   0.301E+00    0.611E-01
RMM:   6    -0.124756665259E+02    0.84683E-02   -0.66424E-03  4348   0.672E-01    0.299E-01
RMM:   7    -0.124742808285E+02    0.13857E-02   -0.13017E-02  4325   0.844E-01    0.921E-02
RMM:   8    -0.124739869816E+02    0.29385E-03   -0.34265E-04  4361   0.149E-01    0.287E-02
RMM:   9    -0.124739908599E+02   -0.38783E-05   -0.48169E-05  4350   0.587E-02    0.846E-03
RMM:  10    -0.124739964880E+02   -0.56281E-05   -0.84153E-06  3894   0.273E-02    0.757E-03
RMM:  11    -0.124739975413E+02   -0.10533E-05   -0.14969E-05  4228   0.294E-02    0.618E-03
RMM:  12    -0.124739962198E+02    0.13215E-05   -0.21232E-06  3266   0.101E-02    0.158E-03
RMM:  13    -0.124739962238E+02   -0.40216E-08   -0.25551E-07  2736   0.530E-03
   2 F= -.12473996E+02 E0= -.12473793E+02  d E =0.277879E+00
 trial-energy change:    0.277879  1 .order   -0.248516   -3.993237    3.496204
 step:   0.4298(harm=  0.5332)  dis= 0.00000  next Energy=   -13.568281 (dE=-0.816E+00)
 bond charge predicted
       N       E                     dE             d eps       ncg     rms          rms(c)
DAV:   1    -0.143005342901E+02   -0.18265E+01   -0.31657E+01  4338   0.543E+01    0.129E+01
RMM:   2    -0.135694916021E+02    0.73104E+00   -0.13841E+00  4320   0.886E+00    0.337E+00
RMM:   3    -0.135029127591E+02    0.66579E-01   -0.14215E-01  4328   0.253E+00    0.157E+00
RMM:   4    -0.134957120781E+02    0.72007E-02   -0.76385E-02  4320   0.185E+00    0.317E-01
RMM:   5    -0.134981130829E+02   -0.24010E-02   -0.70041E-03  4351   0.594E-01    0.133E-01
RMM:   6    -0.134980929707E+02    0.20112E-04   -0.29465E-04  4452   0.988E-02    0.131E-01
RMM:   7    -0.134985408071E+02   -0.44784E-03   -0.30163E-04  4322   0.122E-01    0.180E-01
RMM:   8    -0.134983515850E+02    0.18922E-03   -0.93093E-03  4322   0.723E-01    0.145E-01
RMM:   9    -0.134977557223E+02    0.59586E-03   -0.32137E-04  4322   0.154E-01    0.599E-02
RMM:  10    -0.134976705857E+02    0.85137E-04   -0.31955E-04  4322   0.125E-01    0.291E-03
RMM:  11    -0.134976716187E+02   -0.10330E-05   -0.46010E-06  3485   0.150E-02    0.414E-03
RMM:  12    -0.134976719510E+02   -0.33224E-06   -0.18115E-07  2590   0.404E-03
   3 F= -.13497672E+02 E0= -.13497493E+02  d E =-.745797E+00
 curvature:  -0.25 expect dE=-0.182E-02 dE for cont linesearch -0.181E-02
 ZBRENT: interpolating
 opt :   0.4124  next Energy=   -13.499144 (dE=-0.747E+00)
 bond charge predicted
       N       E                     dE             d eps       ncg     rms          rms(c)
DAV:   1    -0.135000284321E+02   -0.23568E-02   -0.29533E-02  4638   0.166E+00    0.485E-01
RMM:   2    -0.134993351895E+02    0.69324E-03   -0.16097E-03  4320   0.292E-01    0.146E-01
RMM:   3    -0.134992844249E+02    0.50765E-04   -0.11928E-04  4330   0.757E-02    0.851E-02
RMM:   4    -0.134992874928E+02   -0.30679E-05   -0.76548E-05  4320   0.623E-02    0.168E-02
RMM:   5    -0.134992909101E+02   -0.34172E-05   -0.74333E-06  4045   0.215E-02    0.559E-03
RMM:   6    -0.134992904316E+02    0.47849E-06   -0.42679E-06  3731   0.179E-02
   4 F= -.13499290E+02 E0= -.13499133E+02  d E =-.747415E+00
 curvature:  -0.21 expect dE=-0.533E-04 dE for cont linesearch -0.474E-04
 ZBRENT: interpolating
 opt :   0.4086  next Energy=   -13.499348 (dE=-0.747E+00)
 bond charge predicted
       N       E                     dE             d eps       ncg     rms          rms(c)
DAV:   1    -0.134993751144E+02   -0.84204E-04   -0.13737E-03  4578   0.359E-01    0.106E-01
RMM:   2    -0.134993437886E+02    0.31326E-04   -0.73995E-05  4317   0.627E-02    0.328E-02
RMM:   3    -0.134993424400E+02    0.13486E-05   -0.55006E-06  4021   0.164E-02    0.190E-02
RMM:   4    -0.134993435815E+02   -0.11415E-05   -0.34902E-06  3447   0.137E-02    0.371E-03
RMM:   5    -0.134993439167E+02   -0.33527E-06   -0.41322E-07  2398   0.537E-03
   5 F= -.13499344E+02 E0= -.13499192E+02  d E =-.747469E+00
 curvature:  -0.25 expect dE=-0.828E-05 dE for cont linesearch -0.100E-06
 trial: gam=-0.00031 g(F)=  0.152E-44 g(S)=  0.329E-04 ort = 0.126E-02 (trialstep = 0.882E+00)
 search vector abs. value=  0.325E-04
 reached required accuracy - stopping structural energy minimisation
 writing wavefunctions
 augmentation electrons   1.1630306919344404     
 soft         electrons   10.859233705611530     
 augmentation electrons   1.1630306919344404     
 soft         electrons   10.859233705611530     
 augmentation electrons   1.1630306919344404     
 soft         electrons   10.859233705611530     
 augmentation electrons   1.1630306919344404     
 soft         electrons   10.859233705611530     
 total        electrons   12.022264397545971     
 total        electrons   12.022264397545971     
 total        electrons   12.022264397545971     
 total        electrons   12.022264397545971     
