 running on   48 total cores
 distrk:  each k-point on   48 cores,    1 groups
 distr:  one band on    8 cores,    6 groups
 using from now: INCAR     
 vasp.5.4.4.18Apr17-6-g9f103f2a35 (build Dec  7 2020 12:43:57) complex           
 POSCAR found type information on POSCAR  Mo V  B  H 
 POSCAR found :  4 types and      49 ions
 scaLAPACK will be used
 LDA part: xc-table for Pade appr. of Perdew
 POSCAR, INCAR and KPOINTS ok, starting setup
 resort distribution
 resort distribution
 resort distribution
 resort distribution
 resort distribution
 resort distribution
 resort distribution
 resort distribution
 resort distribution
 resort distribution
 resort distribution
 resort distribution
 resort distribution
 resort distribution
 resort distribution
 resort distribution
 resort distribution
 resort distribution
 resort distribution
 resort distribution
 resort distribution
 resort distribution
 resort distribution
 resort distribution
 resort distribution
 resort distribution
 resort distribution
 resort distribution
 resort distribution
 resort distribution
 resort distribution
 resort distribution
 resort distribution
 resort distribution
 resort distribution
 resort distribution
 resort distribution
 resort distribution
 resort distribution
 resort distribution
 resort distribution
 resort distribution
 resort distribution
 resort distribution
 resort distribution
 resort distribution
 resort distribution
 resort distribution
 FFT: planning ...
 WAVECAR not read
 augmentation electrons   185.00417901517949     
 augmentation electrons   185.00417901517949     
 soft         electrons   0.0000000000000000     
 augmentation electrons   185.00417901517949     
 soft         electrons   0.0000000000000000     
 augmentation electrons   185.00417901517949     
 soft         electrons   0.0000000000000000     
 augmentation electrons   185.00417901517949     
 soft         electrons   0.0000000000000000     
 augmentation electrons   185.00417901517949     
 soft         electrons   0.0000000000000000     
 augmentation electrons   185.00417901517949     
 soft         electrons   0.0000000000000000     
 augmentation electrons   185.00417901517949     
 soft         electrons   0.0000000000000000     
 augmentation electrons   185.00417901517949     
 soft         electrons   0.0000000000000000     
 augmentation electrons   185.00417901517949     
 soft         electrons   0.0000000000000000     
 augmentation electrons   185.00417901517949     
 soft         electrons   0.0000000000000000     
 augmentation electrons   185.00417901517949     
 soft         electrons   0.0000000000000000     
 augmentation electrons   185.00417901517949     
 soft         electrons   0.0000000000000000     
 augmentation electrons   185.00417901517949     
 soft         electrons   0.0000000000000000     
 augmentation electrons   185.00417901517949     
 soft         electrons   0.0000000000000000     
 augmentation electrons   185.00417901517949     
 soft         electrons   0.0000000000000000     
 augmentation electrons   185.00417901517949     
 soft         electrons   0.0000000000000000     
 augmentation electrons   185.00417901517949     
 soft         electrons   0.0000000000000000     
 augmentation electrons   185.00417901517949     
 soft         electrons   0.0000000000000000     
 augmentation electrons   185.00417901517949     
 soft         electrons   0.0000000000000000     
 augmentation electrons   185.00417901517949     
 soft         electrons   0.0000000000000000     
 augmentation electrons   185.00417901517949     
 soft         electrons   0.0000000000000000     
 augmentation electrons   185.00417901517949     
 soft         electrons   0.0000000000000000     
 augmentation electrons   185.00417901517949     
 soft         electrons   0.0000000000000000     
 augmentation electrons   185.00417901517949     
 soft         electrons   0.0000000000000000     
 augmentation electrons   185.00417901517949     
 soft         electrons   0.0000000000000000     
 augmentation electrons   185.00417901517949     
 soft         electrons   0.0000000000000000     
 augmentation electrons   185.00417901517949     
 soft         electrons   0.0000000000000000     
 augmentation electrons   185.00417901517949     
 soft         electrons   0.0000000000000000     
 augmentation electrons   185.00417901517949     
 soft         electrons   0.0000000000000000     
 augmentation electrons   185.00417901517949     
 soft         electrons   0.0000000000000000     
 augmentation electrons   185.00417901517949     
 soft         electrons   0.0000000000000000     
 augmentation electrons   185.00417901517949     
 soft         electrons   0.0000000000000000     
 augmentation electrons   185.00417901517949     
 soft         electrons   0.0000000000000000     
 augmentation electrons   185.00417901517949     
 soft         electrons   0.0000000000000000     
 augmentation electrons   185.00417901517949     
 soft         electrons   0.0000000000000000     
 augmentation electrons   185.00417901517949     
 soft         electrons   0.0000000000000000     
 augmentation electrons   185.00417901517949     
 soft         electrons   0.0000000000000000     
 augmentation electrons   185.00417901517949     
 soft         electrons   0.0000000000000000     
 augmentation electrons   185.00417901517949     
 augmentation electrons   185.00417901517949     
 soft         electrons   0.0000000000000000     
 augmentation electrons   185.00417901517949     
 soft         electrons   0.0000000000000000     
 augmentation electrons   185.00417901517949     
 soft         electrons   0.0000000000000000     
 augmentation electrons   185.00417901517949     
 soft         electrons   0.0000000000000000     
 augmentation electrons   185.00417901517949     
 soft         electrons   0.0000000000000000     
 augmentation electrons   185.00417901517949     
 soft         electrons   0.0000000000000000     
 soft         electrons   0.0000000000000000     
 augmentation electrons   185.00417901517949     
 soft         electrons   0.0000000000000000     
 augmentation electrons   185.00417901517949     
 soft         electrons   0.0000000000000000     
 soft         electrons   0.0000000000000000     
 total        electrons   185.00417901517949     
 total        electrons   185.00417901517949     
 total        electrons   185.00417901517949     
 total        electrons   185.00417901517949     
 total        electrons   185.00417901517949     
 total        electrons   185.00417901517949     
 total        electrons   185.00417901517949     
 total        electrons   185.00417901517949     
 total        electrons   185.00417901517949     
 total        electrons   185.00417901517949     
 total        electrons   185.00417901517949     
 total        electrons   185.00417901517949     
 total        electrons   185.00417901517949     
 total        electrons   185.00417901517949     
 total        electrons   185.00417901517949     
 total        electrons   185.00417901517949     
 total        electrons   185.00417901517949     
 total        electrons   185.00417901517949     
 total        electrons   185.00417901517949     
 total        electrons   185.00417901517949     
 total        electrons   185.00417901517949     
 total        electrons   185.00417901517949     
 total        electrons   185.00417901517949     
 total        electrons   185.00417901517949     
 total        electrons   185.00417901517949     
 total        electrons   185.00417901517949     
 total        electrons   185.00417901517949     
 total        electrons   185.00417901517949     
 total        electrons   185.00417901517949     
 total        electrons   185.00417901517949     
 total        electrons   185.00417901517949     
 total        electrons   185.00417901517949     
 total        electrons   185.00417901517949     
 total        electrons   185.00417901517949     
 total        electrons   185.00417901517949     
 total        electrons   185.00417901517949     
 total        electrons   185.00417901517949     
 total        electrons   185.00417901517949     
 total        electrons   185.00417901517949     
 total        electrons   185.00417901517949     
 total        electrons   185.00417901517949     
 total        electrons   185.00417901517949     
 total        electrons   185.00417901517949     
 total        electrons   185.00417901517949     
 total        electrons   185.00417901517949     
 total        electrons   185.00417901517949     
 total        electrons   185.00417901517949     
 total        electrons   185.00417901517949     
 augmentation electrons   484.16204223098771     
 soft         electrons   0.0000000000000000     
 total        electrons   484.16204223098771     
 augmentation electrons   484.16204223098771     
 soft         electrons   0.0000000000000000     
 total        electrons   484.16204223098771     
 augmentation electrons   484.16204223098771     
 soft         electrons   0.0000000000000000     
 total        electrons   484.16204223098771     
 augmentation electrons   484.16204223098771     
 soft         electrons   0.0000000000000000     
 total        electrons   484.16204223098771     
 augmentation electrons   484.16204223098771     
 soft         electrons   0.0000000000000000     
 total        electrons   484.16204223098771     
 augmentation electrons   484.16204223098771     
 soft         electrons   0.0000000000000000     
 total        electrons   484.16204223098771     
 augmentation electrons   484.16204223098771     
 soft         electrons   0.0000000000000000     
 total        electrons   484.16204223098771     
 augmentation electrons   484.16204223098771     
 soft         electrons   0.0000000000000000     
 total        electrons   484.16204223098771     
 augmentation electrons   484.16204223098771     
 soft         electrons   0.0000000000000000     
 augmentation electrons   484.16204223098771     
 soft         electrons   0.0000000000000000     
 total        electrons   484.16204223098771     
 augmentation electrons   484.16204223098771     
 soft         electrons   0.0000000000000000     
 total        electrons   484.16204223098771     
 augmentation electrons   484.16204223098771     
 soft         electrons   0.0000000000000000     
 total        electrons   484.16204223098771     
 augmentation electrons   484.16204223098771     
 soft         electrons   0.0000000000000000     
 total        electrons   484.16204223098771     
 augmentation electrons   484.16204223098771     
 soft         electrons   0.0000000000000000     
 total        electrons   484.16204223098771     
 augmentation electrons   484.16204223098771     
 soft         electrons   0.0000000000000000     
 total        electrons   484.16204223098771     
 augmentation electrons   484.16204223098771     
 soft         electrons   0.0000000000000000     
 total        electrons   484.16204223098771     
 augmentation electrons   484.16204223098771     
 soft         electrons   0.0000000000000000     
 total        electrons   484.16204223098771     
 augmentation electrons   484.16204223098771     
 soft         electrons   0.0000000000000000     
 total        electrons   484.16204223098771     
 augmentation electrons   484.16204223098771     
 soft         electrons   0.0000000000000000     
 total        electrons   484.16204223098771     
 augmentation electrons   484.16204223098771     
 soft         electrons   0.0000000000000000     
 total        electrons   484.16204223098771     
 augmentation electrons   484.16204223098771     
 soft         electrons   0.0000000000000000     
 total        electrons   484.16204223098771     
 augmentation electrons   484.16204223098771     
 soft         electrons   0.0000000000000000     
 total        electrons   484.16204223098771     
 augmentation electrons   484.16204223098771     
 soft         electrons   0.0000000000000000     
 total        electrons   484.16204223098771     
 augmentation electrons   484.16204223098771     
 soft         electrons   0.0000000000000000     
 total        electrons   484.16204223098771     
 augmentation electrons   484.16204223098771     
 soft         electrons   0.0000000000000000     
 total        electrons   484.16204223098771     
 augmentation electrons   484.16204223098771     
 soft         electrons   0.0000000000000000     
 total        electrons   484.16204223098771     
 augmentation electrons   484.16204223098771     
 soft         electrons   0.0000000000000000     
 total        electrons   484.16204223098771     
 augmentation electrons   484.16204223098771     
 soft         electrons   0.0000000000000000     
 total        electrons   484.16204223098771     
 augmentation electrons   484.16204223098771     
 soft         electrons   0.0000000000000000     
 total        electrons   484.16204223098771     
 augmentation electrons   484.16204223098771     
 soft         electrons   0.0000000000000000     
 total        electrons   484.16204223098771     
 augmentation electrons   484.16204223098771     
 soft         electrons   0.0000000000000000     
 total        electrons   484.16204223098771     
 augmentation electrons   484.16204223098771     
 soft         electrons   0.0000000000000000     
 total        electrons   484.16204223098771     
 augmentation electrons   484.16204223098771     
 soft         electrons   0.0000000000000000     
 total        electrons   484.16204223098771     
 augmentation electrons   484.16204223098771     
 soft         electrons   0.0000000000000000     
 total        electrons   484.16204223098771     
 augmentation electrons   484.16204223098771     
 soft         electrons   0.0000000000000000     
 total        electrons   484.16204223098771     
 augmentation electrons   484.16204223098771     
 soft         electrons   0.0000000000000000     
 total        electrons   484.16204223098771     
 augmentation electrons   484.16204223098771     
 soft         electrons   0.0000000000000000     
 total        electrons   484.16204223098771     
 augmentation electrons   484.16204223098771     
 soft         electrons   0.0000000000000000     
 total        electrons   484.16204223098771     
 augmentation electrons   484.16204223098771     
 soft         electrons   0.0000000000000000     
 total        electrons   484.16204223098771     
 augmentation electrons   484.16204223098771     
 soft         electrons   0.0000000000000000     
 total        electrons   484.16204223098771     
 augmentation electrons   484.16204223098771     
 soft         electrons   0.0000000000000000     
 total        electrons   484.16204223098771     
 augmentation electrons   484.16204223098771     
 soft         electrons   0.0000000000000000     
 total        electrons   484.16204223098771     
 augmentation electrons   484.16204223098771     
 soft         electrons   0.0000000000000000     
 total        electrons   484.16204223098771     
 augmentation electrons   484.16204223098771     
 soft         electrons   0.0000000000000000     
 total        electrons   484.16204223098771     
 augmentation electrons   484.16204223098771     
 soft         electrons   0.0000000000000000     
 total        electrons   484.16204223098771     
 augmentation electrons   484.16204223098771     
 soft         electrons   0.0000000000000000     
 total        electrons   484.16204223098771     
 augmentation electrons   484.16204223098771     
 soft         electrons   0.0000000000000000     
 total        electrons   484.16204223098771     
 augmentation electrons   484.16204223098771     
 soft         electrons   0.0000000000000000     
 total        electrons   484.16204223098771     
 total        electrons   484.16204223098771     
 entering main loop
       N       E                     dE             d eps       ncg     rms          rms(c)
DAV:   1     0.194147280788E+04    0.19415E+04   -0.63800E+04 12000   0.130E+03
DAV:   2     0.112702505136E+02   -0.19302E+04   -0.17925E+04 12744   0.334E+02
DAV:   3    -0.433819874815E+03   -0.44509E+03   -0.43017E+03 18156   0.186E+02
DAV:   4    -0.471885711836E+03   -0.38066E+02   -0.36976E+02 19800   0.615E+01
DAV:   5    -0.473428659262E+03   -0.15429E+01   -0.14972E+01 20292   0.132E+01    0.107E+02
RMM:   6    -0.438316351265E+03    0.35112E+02   -0.10395E+03 14242   0.112E+02    0.575E+01
RMM:   7    -0.449809746239E+03   -0.11493E+02   -0.55261E+02 14999   0.893E+01    0.426E+01
RMM:   8    -0.396475268259E+03    0.53334E+02   -0.56596E+01 13285   0.300E+01    0.191E+01
RMM:   9    -0.393277486522E+03    0.31978E+01   -0.24475E+01 12422   0.205E+01    0.162E+01
RMM:  10    -0.391603157183E+03    0.16743E+01   -0.70353E+00 14524   0.903E+00    0.132E+01
RMM:  11    -0.392236765491E+03   -0.63361E+00   -0.38620E+00 15707   0.400E+00    0.126E+01
RMM:  12    -0.392162873070E+03    0.73892E-01   -0.14962E+00 14504   0.366E+00    0.104E+01
RMM:  13    -0.391080002975E+03    0.10829E+01   -0.41608E+00 12047   0.860E+00    0.564E+00
RMM:  14    -0.391879255665E+03   -0.79925E+00   -0.74504E+00 13144   0.839E+00    0.776E+00
RMM:  15    -0.391074031375E+03    0.80522E+00   -0.94150E-01 12467   0.384E+00    0.346E+00
RMM:  16    -0.390889123127E+03    0.18491E+00   -0.52504E-01 13154   0.230E+00    0.117E+00
RMM:  17    -0.390901136919E+03   -0.12014E-01   -0.42709E-01 16171   0.159E+00    0.157E+00
RMM:  18    -0.390885043428E+03    0.16093E-01   -0.92061E-02 14997   0.998E-01    0.114E+00
RMM:  19    -0.390867990761E+03    0.17053E-01   -0.50250E-02 13201   0.801E-01    0.456E-01
RMM:  20    -0.390867503937E+03    0.48682E-03   -0.24789E-02 15594   0.371E-01    0.424E-01
RMM:  21    -0.390864808836E+03    0.26951E-02   -0.82685E-03 14301   0.307E-01    0.259E-01
RMM:  22    -0.390865699131E+03   -0.89029E-03   -0.74506E-03 16463   0.178E-01    0.298E-01
RMM:  23    -0.390864627946E+03    0.10712E-02   -0.75402E-03 12262   0.347E-01    0.231E-01
RMM:  24    -0.390865666646E+03   -0.10387E-02   -0.83391E-03 16222   0.191E-01    0.334E-01
RMM:  25    -0.390864995156E+03    0.67149E-03   -0.63021E-04 12089   0.105E-01    0.231E-01
RMM:  26    -0.390864933308E+03    0.61848E-04   -0.73591E-04 13140   0.908E-02    0.168E-01
RMM:  27    -0.390865138136E+03   -0.20483E-03   -0.19509E-03 14390   0.140E-01    0.388E-02
RMM:  28    -0.390865689633E+03   -0.55150E-03   -0.17639E-03 16359   0.830E-02    0.109E-01
RMM:  29    -0.390865725622E+03   -0.35989E-04   -0.14290E-04 12263   0.503E-02    0.576E-02
RMM:  30    -0.390866547386E+03   -0.82176E-03   -0.24197E-04 16320   0.343E-02    0.339E-02
RMM:  31    -0.390866744065E+03   -0.19668E-03   -0.84519E-05 15625   0.233E-02    0.168E-02
RMM:  32    -0.390867098813E+03   -0.35475E-03   -0.74367E-05 13988   0.227E-02    0.262E-02
RMM:  33    -0.390867244925E+03   -0.14611E-03   -0.18893E-05 11674   0.803E-03    0.233E-02
RMM:  34    -0.390867292375E+03   -0.47451E-04   -0.10507E-05 10343   0.116E-02    0.119E-02
RMM:  35    -0.390867363462E+03   -0.71087E-04   -0.21788E-05 12841   0.893E-03    0.444E-03
RMM:  36    -0.390867376895E+03   -0.13433E-04   -0.30603E-06  8451   0.678E-03    0.187E-03
RMM:  37    -0.390867384277E+03   -0.73820E-05   -0.94402E-07  7323   0.354E-03    0.148E-03
RMM:  38    -0.390867389578E+03   -0.53004E-05   -0.88933E-07  7346   0.411E-03    0.202E-03
RMM:  39    -0.390867390950E+03   -0.13724E-05   -0.44797E-07  7095   0.319E-03    0.574E-04
RMM:  40    -0.390867391869E+03   -0.91834E-06   -0.24425E-07  6234   0.150E-03
   1 F= -.39086739E+03 E0= -.39086752E+03  d E =-.390867E+03
 curvature:   0.00 expect dE= 0.000E+00 dE for cont linesearch  0.000E+00
 trial: gam= 0.00000 g(F)=  0.152E+00 g(S)=  0.000E+00 ort = 0.000E+00 (trialstep = 0.100E+01)
 search vector abs. value=  0.152E+00
 bond charge predicted
       N       E                     dE             d eps       ncg     rms          rms(c)
DAV:   1    -0.391007446334E+03   -0.14006E+00   -0.22816E+00 12936   0.372E+00    0.374E-01
RMM:   2    -0.391009079785E+03   -0.16335E-02   -0.43123E-02 12905   0.755E-01    0.263E-01
RMM:   3    -0.391012572443E+03   -0.34927E-02   -0.17451E-02 14199   0.496E-01    0.529E-01
RMM:   4    -0.391009264384E+03    0.33081E-02   -0.56789E-03 12589   0.323E-01    0.118E-01
RMM:   5    -0.391009413965E+03   -0.14958E-03   -0.28118E-03 15051   0.147E-01    0.118E-01
RMM:   6    -0.391009320746E+03    0.93219E-04   -0.79543E-04 13111   0.104E-01    0.865E-02
RMM:   7    -0.391009275286E+03    0.45461E-04   -0.44206E-04 15206   0.542E-02    0.633E-02
RMM:   8    -0.391009250259E+03    0.25027E-04   -0.17646E-04 13145   0.477E-02    0.497E-02
RMM:   9    -0.391009235722E+03    0.14537E-04   -0.11390E-04 13244   0.410E-02    0.277E-02
RMM:  10    -0.391009229125E+03    0.65964E-05   -0.41732E-05 12806   0.228E-02    0.147E-02
RMM:  11    -0.391009228666E+03    0.45956E-06   -0.23440E-05 11556   0.120E-02    0.112E-02
RMM:  12    -0.391009229298E+03   -0.63208E-06   -0.98758E-06  9682   0.126E-02
   2 F= -.39100923E+03 E0= -.39100928E+03  d E =-.141837E+00
 trial-energy change:   -0.141837  1 .order   -0.140216   -0.152023   -0.128408
 step:   3.3031(harm=  6.4376)  dis= 0.04816  next Energy=  -391.176911 (dE=-0.310E+00)
 bond charge predicted
       N       E                     dE             d eps       ncg     rms          rms(c)
DAV:   1    -0.391169333868E+03   -0.16011E+00   -0.12909E+01 12084   0.866E+00    0.120E+00
RMM:   2    -0.391161600934E+03    0.77329E-02   -0.28002E-01 13889   0.180E+00    0.737E-01
RMM:   3    -0.391204452933E+03   -0.42852E-01   -0.13838E-01 14757   0.129E+00    0.169E+00
RMM:   4    -0.391167634306E+03    0.36819E-01   -0.48670E-02 12794   0.934E-01    0.857E-01
RMM:   5    -0.391160120511E+03    0.75138E-02   -0.22190E-02 13262   0.579E-01    0.361E-01
RMM:   6    -0.391159909194E+03    0.21132E-03   -0.97861E-03 13757   0.343E-01    0.297E-01
RMM:   7    -0.391158798523E+03    0.11107E-02   -0.42773E-03 14335   0.222E-01    0.144E-01
RMM:   8    -0.391158799111E+03   -0.58741E-06   -0.19184E-03 13428   0.146E-01    0.134E-01
RMM:   9    -0.391158734199E+03    0.64912E-04   -0.96253E-04 12746   0.119E-01    0.923E-02
RMM:  10    -0.391158655777E+03    0.78422E-04   -0.34840E-04 12396   0.758E-02    0.396E-02
RMM:  11    -0.391158652840E+03    0.29377E-05   -0.20233E-04 15463   0.320E-02    0.229E-02
RMM:  12    -0.391158663867E+03   -0.11028E-04   -0.70834E-05 12511   0.291E-02    0.319E-02
RMM:  13    -0.391158653659E+03    0.10209E-04   -0.21791E-05 11107   0.187E-02    0.643E-03
RMM:  14    -0.391158658760E+03   -0.51012E-05   -0.20020E-05 10825   0.889E-03    0.103E-02
RMM:  15    -0.391158658719E+03    0.40953E-07   -0.43404E-06  8474   0.899E-03
   3 F= -.39115866E+03 E0= -.39115849E+03  d E =-.291267E+00
 curvature:  -2.15 expect dE=-0.140E+00 dE for cont linesearch -0.118E-01
 ZBRENT: interpolating
 opt :   2.8806  next Energy=  -391.164752 (dE=-0.297E+00)
 bond charge predicted
       N       E                     dE             d eps       ncg     rms          rms(c)
DAV:   1    -0.391162087781E+03   -0.34290E-02   -0.46743E-01 13104   0.163E+00    0.247E-01
RMM:   2    -0.391161606786E+03    0.48100E-03   -0.10859E-02 14309   0.356E-01    0.162E-01
RMM:   3    -0.391163571670E+03   -0.19649E-02   -0.53277E-03 14900   0.251E-01    0.375E-01
RMM:   4    -0.391161820506E+03    0.17512E-02   -0.24148E-03 12808   0.205E-01    0.194E-01
RMM:   5    -0.391161417758E+03    0.40275E-03   -0.10408E-03 13111   0.134E-01    0.780E-02
RMM:   6    -0.391161423826E+03   -0.60677E-05   -0.47577E-04 13380   0.807E-02    0.714E-02
RMM:   7    -0.391161362113E+03    0.61713E-04   -0.20704E-04 14024   0.523E-02    0.317E-02
RMM:   8    -0.391161358858E+03    0.32546E-05   -0.90741E-05 13699   0.314E-02    0.263E-02
RMM:   9    -0.391161358065E+03    0.79336E-06   -0.44168E-05 12363   0.258E-02    0.224E-02
RMM:  10    -0.391161353309E+03    0.47559E-05   -0.16618E-05 10794   0.177E-02    0.920E-03
RMM:  11    -0.391161352831E+03    0.47773E-06   -0.73631E-06  9253   0.740E-03
   4 F= -.39116135E+03 E0= -.39116122E+03  d E =-.293961E+00
 curvature:  -1.11 expect dE=-0.464E-01 dE for cont linesearch -0.159E-02
 ZBRENT: interpolating
 opt :   3.0236  next Energy=  -391.162408 (dE=-0.295E+00)
 bond charge predicted
       N       E                     dE             d eps       ncg     rms          rms(c)
DAV:   1    -0.391162549077E+03   -0.11958E-02   -0.53305E-02 13068   0.553E-01    0.817E-02
RMM:   2    -0.391162506127E+03    0.42950E-04   -0.12502E-03 14082   0.122E-01    0.557E-02
RMM:   3    -0.391162694167E+03   -0.18804E-03   -0.59561E-04 14262   0.892E-02    0.118E-01
RMM:   4    -0.391162542734E+03    0.15143E-03   -0.26445E-04 12882   0.677E-02    0.716E-02
RMM:   5    -0.391162487833E+03    0.54901E-04   -0.11342E-04 12625   0.464E-02    0.265E-02
RMM:   6    -0.391162486844E+03    0.98954E-06   -0.52079E-05 13646   0.254E-02    0.214E-02
RMM:   7    -0.391162480901E+03    0.59429E-05   -0.19826E-05 11742   0.169E-02    0.106E-02
RMM:   8    -0.391162480866E+03    0.35108E-07   -0.95495E-06  9990   0.111E-02
   5 F= -.39116248E+03 E0= -.39116234E+03  d E =-.295089E+00
 curvature:  -0.74 expect dE=-0.339E-01 dE for cont linesearch -0.323E-05
 trial: gam= 0.29772 g(F)=  0.461E-01 g(S)=  0.000E+00 ort = 0.817E-03 (trialstep = 0.140E+01)
 search vector abs. value=  0.600E-01
 bond charge predicted
       N       E                     dE             d eps       ncg     rms          rms(c)
DAV:   1    -0.391223128501E+03   -0.60648E-01   -0.19178E+00 12036   0.335E+00    0.423E-01
RMM:   2    -0.391223860898E+03   -0.73240E-03   -0.37528E-02 12584   0.780E-01    0.286E-01
RMM:   3    -0.391229995392E+03   -0.61345E-02   -0.19002E-02 15394   0.444E-01    0.653E-01
RMM:   4    -0.391224914268E+03    0.50811E-02   -0.77133E-03 12917   0.358E-01    0.333E-01
RMM:   5    -0.391223561225E+03    0.13530E-02   -0.34388E-03 13293   0.242E-01    0.111E-01
RMM:   6    -0.391223648640E+03   -0.87415E-04   -0.15976E-03 14227   0.125E-01    0.118E-01
RMM:   7    -0.391223506107E+03    0.14253E-03   -0.62891E-04 12951   0.910E-02    0.522E-02
RMM:   8    -0.391223496378E+03    0.97291E-05   -0.31471E-04 15304   0.448E-02    0.339E-02
RMM:   9    -0.391223503418E+03   -0.70407E-05   -0.11545E-04 12750   0.391E-02    0.373E-02
RMM:  10    -0.391223492040E+03    0.11378E-04   -0.47310E-05 12261   0.270E-02    0.164E-02
RMM:  11    -0.391223490561E+03    0.14790E-05   -0.25110E-05 11470   0.112E-02    0.721E-03
RMM:  12    -0.391223492942E+03   -0.23808E-05   -0.99663E-06  9748   0.106E-02    0.114E-02
RMM:  13    -0.391223491957E+03    0.98512E-06   -0.33688E-06  8212   0.920E-03
   6 F= -.39122349E+03 E0= -.39122314E+03  d E =-.610111E-01
 ZBRENT: can't locate minimum, use default step
 trial-energy change:   -0.061011  1 .order   -0.061395   -0.065067   -0.057724
 step:   5.6189(harm= 12.4462)  dis= 0.14217  next Energy=  -391.450736 (dE=-0.288E+00)
 bond charge predicted
       N       E                     dE             d eps       ncg     rms          rms(c)
DAV:   1    -0.391378430040E+03   -0.15494E+00   -0.15936E+01 12000   0.983E+00    0.115E+00
RMM:   2    -0.391388313574E+03   -0.98835E-02   -0.30139E-01 12635   0.216E+00    0.779E-01
RMM:   3    -0.391433257464E+03   -0.44944E-01   -0.14374E-01 15014   0.127E+00    0.177E+00
RMM:   4    -0.391398746315E+03    0.34511E-01   -0.54953E-02 12818   0.952E-01    0.931E-01
RMM:   5    -0.391387212396E+03    0.11534E-01   -0.24440E-02 13041   0.656E-01    0.256E-01
RMM:   6    -0.391388273248E+03   -0.10609E-02   -0.12323E-02 15001   0.314E-01    0.319E-01
RMM:   7    -0.391387232145E+03    0.10411E-02   -0.43399E-03 12487   0.248E-01    0.138E-01
RMM:   8    -0.391387192952E+03    0.39193E-04   -0.22219E-03 15364   0.116E-01    0.960E-02
RMM:   9    -0.391387207842E+03   -0.14890E-04   -0.75897E-04 12602   0.986E-02    0.886E-02
RMM:  10    -0.391387151247E+03    0.56595E-04   -0.31304E-04 12890   0.663E-02    0.392E-02
RMM:  11    -0.391387146687E+03    0.45607E-05   -0.16973E-04 15420   0.288E-02    0.206E-02
RMM:  12    -0.391387164078E+03   -0.17392E-04   -0.75933E-05 12726   0.282E-02    0.333E-02
RMM:  13    -0.391387155148E+03    0.89302E-05   -0.24766E-05 11201   0.203E-02    0.766E-03
RMM:  14    -0.391387159729E+03   -0.45812E-05   -0.17171E-05 10547   0.624E-03    0.590E-03
RMM:  15    -0.391387162284E+03   -0.25545E-05   -0.26468E-06  8159   0.685E-03    0.549E-03
RMM:  16    -0.391387163857E+03   -0.15729E-05   -0.12610E-06  7492   0.536E-03    0.241E-03
RMM:  17    -0.391387167809E+03   -0.39527E-05   -0.10984E-06  7475   0.346E-03    0.193E-03
RMM:  18    -0.391387169077E+03   -0.12676E-05   -0.54566E-07  7204   0.335E-03    0.179E-03
RMM:  19    -0.391387170492E+03   -0.14156E-05   -0.35982E-07  7154   0.252E-03    0.142E-03
RMM:  20    -0.391387172228E+03   -0.17361E-05   -0.26515E-07  6882   0.192E-03    0.642E-04
RMM:  21    -0.391387174533E+03   -0.23048E-05   -0.25270E-07  6204   0.147E-03    0.534E-04
RMM:  22    -0.391387175837E+03   -0.13037E-05   -0.19974E-07  6098   0.156E-03    0.650E-04
RMM:  23    -0.391387176433E+03   -0.59627E-06   -0.13625E-07  5512   0.130E-03
   7 F= -.39138718E+03 E0= -.39138649E+03  d E =-.224696E+00
 curvature:  -4.98 expect dE=-0.240E+00 dE for cont linesearch -0.120E+00
 ZBRENT: increasing intervall
 opt :  14.0473  next Energy=  -391.682795 (dE=-0.520E+00)
 bond charge predicted
       N       E                     dE             d eps       ncg     rms          rms(c)
DAV:   1    -0.391546583897E+03   -0.15941E+00   -0.50050E+01 12036   0.172E+01    0.173E+00
RMM:   2    -0.391600001422E+03   -0.53418E-01   -0.78011E-01 12778   0.323E+00    0.111E+00
RMM:   3    -0.391679604123E+03   -0.79603E-01   -0.32237E-01 14353   0.201E+00    0.231E+00
RMM:   4    -0.391627735038E+03    0.51869E-01   -0.95473E-02 12339   0.135E+00    0.123E+00
RMM:   5    -0.391608809664E+03    0.18925E-01   -0.42614E-02 13435   0.763E-01    0.367E-01
RMM:   6    -0.391610290437E+03   -0.14808E-02   -0.23691E-02 14967   0.409E-01    0.390E-01
RMM:   7    -0.391608704464E+03    0.15860E-02   -0.68473E-03 12744   0.302E-01    0.150E-01
RMM:   8    -0.391608886781E+03   -0.18232E-03   -0.38923E-03 15750   0.147E-01    0.140E-01
RMM:   9    -0.391608787548E+03    0.99234E-04   -0.10998E-03 12496   0.118E-01    0.836E-02
RMM:  10    -0.391608780576E+03    0.69711E-05   -0.51734E-04 14611   0.597E-02    0.390E-02
RMM:  11    -0.391608789334E+03   -0.87572E-05   -0.19763E-04 13989   0.386E-02    0.337E-02
RMM:  12    -0.391608802730E+03   -0.13396E-04   -0.91020E-05 13368   0.327E-02    0.276E-02
RMM:  13    -0.391608811602E+03   -0.88725E-05   -0.44082E-05 13477   0.207E-02    0.116E-02
RMM:  14    -0.391608821638E+03   -0.10035E-04   -0.21066E-05 11098   0.102E-02    0.116E-02
RMM:  15    -0.391608826610E+03   -0.49722E-05   -0.63492E-06  8965   0.101E-02    0.601E-03
RMM:  16    -0.391608836639E+03   -0.10029E-04   -0.41368E-06  8849   0.555E-03    0.309E-03
RMM:  17    -0.391608844180E+03   -0.75419E-05   -0.14043E-06  7554   0.397E-03    0.182E-03
RMM:  18    -0.391608848410E+03   -0.42298E-05   -0.76553E-07  7271   0.330E-03    0.169E-03
RMM:  19    -0.391608850331E+03   -0.19204E-05   -0.47806E-07  7180   0.316E-03    0.132E-03
RMM:  20    -0.391608855530E+03   -0.51995E-05   -0.68872E-07  7284   0.216E-03    0.766E-04
RMM:  21    -0.391608858248E+03   -0.27178E-05   -0.42440E-07  6654   0.199E-03    0.603E-04
RMM:  22    -0.391608860034E+03   -0.17860E-05   -0.30002E-07  6111   0.161E-03    0.707E-04
RMM:  23    -0.391608860769E+03   -0.73536E-06   -0.19276E-07  5784   0.162E-03
   8 F= -.39160886E+03 E0= -.39160835E+03  d E =-.446380E+00
 curvature: -12.24 expect dE=-0.320E+00 dE for cont linesearch -0.162E-03
 trial: gam= 0.85034 g(F)=  0.261E-01 g(S)=  0.000E+00 ort = 0.891E-03 (trialstep = 0.332E+01)
 search vector abs. value=  0.711E-01
 bond charge predicted
       N       E                     dE             d eps       ncg     rms          rms(c)
DAV:   1    -0.391660334416E+03   -0.51474E-01   -0.11925E+01 12264   0.873E+00    0.820E-01
RMM:   2    -0.391663588721E+03   -0.32543E-02   -0.96900E-02 12951   0.115E+00    0.509E-01
RMM:   3    -0.391689743786E+03   -0.26155E-01   -0.59836E-02 14427   0.839E-01    0.134E+00
RMM:   4    -0.391667043446E+03    0.22700E-01   -0.22136E-02 12435   0.640E-01    0.497E-01
RMM:   5    -0.391664097900E+03    0.29455E-02   -0.89591E-03 13157   0.364E-01    0.160E-01
RMM:   6    -0.391664364505E+03   -0.26660E-03   -0.44213E-03 15222   0.182E-01    0.184E-01
RMM:   7    -0.391663969523E+03    0.39498E-03   -0.15299E-03 13266   0.142E-01    0.754E-02
RMM:   8    -0.391663971839E+03   -0.23158E-05   -0.84466E-04 15790   0.677E-02    0.575E-02
RMM:   9    -0.391663967177E+03    0.46620E-05   -0.25103E-04 12439   0.572E-02    0.494E-02
RMM:  10    -0.391663943088E+03    0.24089E-04   -0.94518E-05 12513   0.377E-02    0.191E-02
RMM:  11    -0.391663945517E+03   -0.24288E-05   -0.60113E-05 14208   0.169E-02    0.141E-02
RMM:  12    -0.391663949178E+03   -0.36607E-05   -0.22628E-05 10940   0.169E-02    0.176E-02
RMM:  13    -0.391663946821E+03    0.23567E-05   -0.71685E-06  9032   0.117E-02    0.409E-03
RMM:  14    -0.391663949072E+03   -0.22510E-05   -0.57556E-06  9047   0.490E-03    0.449E-03
RMM:  15    -0.391663949840E+03   -0.76773E-06   -0.13038E-06  7519   0.598E-03
   9 F= -.39166395E+03 E0= -.39166362E+03  d E =-.550891E-01
 trial-energy change:   -0.055089  1 .order   -0.056947   -0.089349   -0.024545
 step:   5.0248(harm=  4.5822)  dis= 0.00000  next Energy=  -391.669983 (dE=-0.611E-01)
 bond charge predicted
       N       E                     dE             d eps       ncg     rms          rms(c)
DAV:   1    -0.391668167921E+03   -0.42188E-02   -0.32579E+00 12576   0.459E+00    0.412E-01
RMM:   2    -0.391669665490E+03   -0.14976E-02   -0.23476E-02 12998   0.570E-01    0.255E-01
RMM:   3    -0.391673507105E+03   -0.38416E-02   -0.13315E-02 13826   0.423E-01    0.533E-01
RMM:   4    -0.391670005728E+03    0.35014E-02   -0.43194E-03 12100   0.311E-01    0.127E-01
RMM:   5    -0.391670028375E+03   -0.22647E-04   -0.17960E-03 15138   0.113E-01    0.974E-02
RMM:   6    -0.391669953702E+03    0.74673E-04   -0.52235E-04 15715   0.603E-02    0.545E-02
RMM:   7    -0.391669925864E+03    0.27837E-04   -0.19232E-04 13062   0.488E-02    0.347E-02
RMM:   8    -0.391669916362E+03    0.95023E-05   -0.76768E-05 13872   0.272E-02    0.201E-02
RMM:   9    -0.391669915090E+03    0.12719E-05   -0.34051E-05 11950   0.186E-02    0.128E-02
RMM:  10    -0.391669915624E+03   -0.53395E-06   -0.14880E-05 10470   0.103E-02    0.771E-03
RMM:  11    -0.391669916026E+03   -0.40172E-06   -0.51850E-06  8861   0.875E-03
  10 F= -.39166992E+03 E0= -.39166968E+03  d E =-.610553E-01
 curvature:  -5.31 expect dE=-0.478E-01 dE for cont linesearch -0.378E-05
 trial: gam= 0.12662 g(F)=  0.900E-02 g(S)=  0.000E+00 ort =-0.225E-03 (trialstep = 0.366E+01)
 search vector abs. value=  0.101E-01
 bond charge predicted
       N       E                     dE             d eps       ncg     rms          rms(c)
DAV:   1    -0.391702075372E+03   -0.32160E-01   -0.21696E+00 12120   0.374E+00    0.369E-01
RMM:   2    -0.391702962345E+03   -0.88697E-03   -0.18421E-02 13717   0.473E-01    0.240E-01
RMM:   3    -0.391706891023E+03   -0.39287E-02   -0.11976E-02 13479   0.396E-01    0.550E-01
RMM:   4    -0.391703415256E+03    0.34758E-02   -0.45170E-03 12101   0.305E-01    0.219E-01
RMM:   5    -0.391703066829E+03    0.34843E-03   -0.17567E-03 13068   0.153E-01    0.115E-01
RMM:   6    -0.391702918686E+03    0.14814E-03   -0.71875E-04 15528   0.641E-02    0.409E-02
RMM:   7    -0.391702912051E+03    0.66351E-05   -0.25046E-04 15584   0.413E-02    0.389E-02
RMM:   8    -0.391702898837E+03    0.13214E-04   -0.84356E-05 12307   0.354E-02    0.259E-02
RMM:   9    -0.391702894304E+03    0.45327E-05   -0.40543E-05 13147   0.197E-02    0.124E-02
RMM:  10    -0.391702895407E+03   -0.11030E-05   -0.17160E-05 10458   0.124E-02    0.114E-02
RMM:  11    -0.391702894695E+03    0.71247E-06   -0.55785E-06  8870   0.998E-03
  11 F= -.39170289E+03 E0= -.39170264E+03  d E =-.329787E-01
 ZBRENT: can't locate minimum, use default step
 trial-energy change:   -0.032979  1 .order   -0.032941   -0.032872   -0.033011
 step:  14.6548(harm= 14.6548)  dis= 0.02615  next Energy=  -391.802515 (dE=-0.133E+00)
 bond charge predicted
       N       E                     dE             d eps       ncg     rms          rms(c)
DAV:   1    -0.391786215941E+03   -0.83321E-01   -0.18253E+01 12000   0.108E+01    0.104E+00
RMM:   2    -0.391798607206E+03   -0.12391E-01   -0.16751E-01 13257   0.146E+00    0.738E-01
RMM:   3    -0.391836523803E+03   -0.37917E-01   -0.91516E-02 13552   0.113E+00    0.170E+00
RMM:   4    -0.391806973438E+03    0.29550E-01   -0.33257E-02 12553   0.770E-01    0.812E-01
RMM:   5    -0.391798282286E+03    0.86912E-02   -0.14028E-02 12224   0.502E-01    0.232E-01
RMM:   6    -0.391798152097E+03    0.13019E-03   -0.73626E-03 15868   0.186E-01    0.108E-01
RMM:   7    -0.391798216190E+03   -0.64093E-04   -0.18050E-03 13348   0.132E-01    0.112E-01
RMM:   8    -0.391798104101E+03    0.11209E-03   -0.54650E-04 12930   0.823E-02    0.633E-02
RMM:   9    -0.391798076158E+03    0.27942E-04   -0.28476E-04 14027   0.495E-02    0.302E-02
RMM:  10    -0.391798091964E+03   -0.15806E-04   -0.14381E-04 15936   0.277E-02    0.270E-02
RMM:  11    -0.391798088224E+03    0.37408E-05   -0.38099E-05 11797   0.210E-02    0.155E-02
RMM:  12    -0.391798091666E+03   -0.34419E-05   -0.23025E-05 11930   0.123E-02    0.118E-02
RMM:  13    -0.391798097366E+03   -0.57009E-05   -0.12811E-05 11446   0.109E-02    0.701E-03
RMM:  14    -0.391798101187E+03   -0.38203E-05   -0.49177E-06  9071   0.724E-03    0.687E-03
RMM:  15    -0.391798102565E+03   -0.13785E-05   -0.16467E-06  7564   0.657E-03    0.394E-03
RMM:  16    -0.391798106152E+03   -0.35868E-05   -0.10922E-06  7552   0.382E-03    0.150E-03
RMM:  17    -0.391798108319E+03   -0.21668E-05   -0.55360E-07  7255   0.275E-03    0.171E-03
RMM:  18    -0.391798110007E+03   -0.16886E-05   -0.43649E-07  7192   0.296E-03    0.160E-03
RMM:  19    -0.391798112464E+03   -0.24561E-05   -0.38591E-07  7102   0.203E-03    0.813E-04
RMM:  20    -0.391798114731E+03   -0.22671E-05   -0.36742E-07  6633   0.173E-03    0.546E-04
RMM:  21    -0.391798115624E+03   -0.89298E-06   -0.21564E-07  5399   0.141E-03
  12 F= -.39179812E+03 E0= -.39179803E+03  d E =-.128200E+00
 curvature: -12.38 expect dE=-0.103E+00 dE for cont linesearch -0.730E-01
 ZBRENT: increasing intervall
 opt :  36.6369  next Energy=  -391.938982 (dE=-0.269E+00)
 bond charge predicted
       N       E                     dE             d eps       ncg     rms          rms(c)
DAV:   1    -0.391804984907E+03   -0.68702E-02   -0.55976E+01 12000   0.178E+01    0.191E+00
RMM:   2    -0.391847208658E+03   -0.42224E-01   -0.81347E-01 13452   0.346E+00    0.187E+00
RMM:   3    -0.391887137430E+03   -0.39929E-01   -0.29738E-01 14571   0.184E+00    0.242E+00
RMM:   4    -0.391838838118E+03    0.48299E-01   -0.15008E-01 12895   0.154E+00    0.146E+00
RMM:   5    -0.391820605815E+03    0.18232E-01   -0.78262E-02 12336   0.123E+00    0.902E-01
RMM:   6    -0.391814345571E+03    0.62602E-02   -0.32385E-02 13267   0.719E-01    0.456E-01
RMM:   7    -0.391813024459E+03    0.13211E-02   -0.16903E-02 13869   0.429E-01    0.299E-01
RMM:   8    -0.391812100398E+03    0.92406E-03   -0.58891E-03 13014   0.262E-01    0.170E-01
RMM:   9    -0.391812186251E+03   -0.85852E-04   -0.30323E-03 14118   0.175E-01    0.158E-01
RMM:  10    -0.391812079039E+03    0.10721E-03   -0.13726E-03 13225   0.127E-01    0.852E-02
RMM:  11    -0.391812028629E+03    0.50410E-04   -0.63762E-04 14973   0.617E-02    0.370E-02
RMM:  12    -0.391812075596E+03   -0.46967E-04   -0.27028E-04 13380   0.463E-02    0.557E-02
RMM:  13    -0.391812053617E+03    0.21979E-04   -0.82733E-05 12702   0.338E-02    0.101E-02
RMM:  14    -0.391812078721E+03   -0.25105E-04   -0.68724E-05 14022   0.121E-02    0.107E-02
RMM:  15    -0.391812086731E+03   -0.80093E-05   -0.12756E-05  9590   0.119E-02    0.115E-02
RMM:  16    -0.391812092102E+03   -0.53715E-05   -0.49369E-06  8816   0.850E-03    0.368E-03
RMM:  17    -0.391812107846E+03   -0.15743E-04   -0.44600E-06  9137   0.476E-03    0.320E-03
RMM:  18    -0.391812115950E+03   -0.81047E-05   -0.14219E-06  7614   0.485E-03    0.322E-03
RMM:  19    -0.391812121530E+03   -0.55795E-05   -0.11011E-06  7544   0.427E-03    0.256E-03
RMM:  20    -0.391812130234E+03   -0.87044E-05   -0.13722E-06  7730   0.335E-03    0.133E-03
RMM:  21    -0.391812136936E+03   -0.67022E-05   -0.10818E-06  7443   0.249E-03    0.108E-03
RMM:  22    -0.391812144783E+03   -0.78468E-05   -0.15629E-06  7684   0.258E-03    0.123E-03
RMM:  23    -0.391812147373E+03   -0.25893E-05   -0.60536E-07  7052   0.292E-03    0.132E-03
RMM:  24    -0.391812150466E+03   -0.30934E-05   -0.79908E-07  6534   0.204E-03    0.659E-04
RMM:  25    -0.391812152252E+03   -0.17855E-05   -0.53502E-07  6468   0.211E-03    0.607E-04
RMM:  26    -0.391812152984E+03   -0.73239E-06   -0.30561E-07  5518   0.151E-03
  13 F= -.39181215E+03 E0= -.39181360E+03  d E =-.142237E+00
 curvature: -23.90 expect dE=-0.313E+01 dE for cont linesearch -0.187E+00
 ZBRENT: bracketing found
 ZBRENT: interpolating
 opt :  24.8697  next Energy=  -391.837490 (dE=-0.168E+00)
 bond charge predicted
       N       E                     dE             d eps       ncg     rms          rms(c)
DAV:   1    -0.391863970423E+03   -0.51818E-01   -0.20377E+01 12000   0.110E+01    0.123E+00
RMM:   2    -0.391865911890E+03   -0.19415E-02   -0.23465E-01 13812   0.158E+00    0.109E+00
RMM:   3    -0.391895003993E+03   -0.29092E-01   -0.10261E-01 13637   0.117E+00    0.178E+00
RMM:   4    -0.391859528532E+03    0.35475E-01   -0.57516E-02 13095   0.963E-01    0.764E-01
RMM:   5    -0.391853382637E+03    0.61459E-02   -0.22115E-02 12334   0.646E-01    0.418E-01
RMM:   6    -0.391852006047E+03    0.13766E-02   -0.83497E-03 13745   0.329E-01    0.209E-01
RMM:   7    -0.391851736863E+03    0.26918E-03   -0.43919E-03 14416   0.198E-01    0.152E-01
RMM:   8    -0.391851478829E+03    0.25803E-03   -0.16868E-03 13181   0.145E-01    0.969E-02
RMM:   9    -0.391851514674E+03   -0.35844E-04   -0.90957E-04 13610   0.103E-01    0.969E-02
RMM:  10    -0.391851433692E+03    0.80981E-04   -0.35627E-04 12472   0.697E-02    0.407E-02
RMM:  11    -0.391851426740E+03    0.69520E-05   -0.20520E-04 14995   0.317E-02    0.212E-02
RMM:  12    -0.391851439394E+03   -0.12654E-04   -0.81285E-05 13211   0.269E-02    0.330E-02
RMM:  13    -0.391851428218E+03    0.11176E-04   -0.25770E-05 11664   0.205E-02    0.671E-03
RMM:  14    -0.391851433267E+03   -0.50487E-05   -0.20256E-05 11203   0.716E-03    0.607E-03
RMM:  15    -0.391851436025E+03   -0.27578E-05   -0.43284E-06  8745   0.818E-03    0.701E-03
RMM:  16    -0.391851437917E+03   -0.18923E-05   -0.13777E-06  7645   0.567E-03    0.254E-03
RMM:  17    -0.391851444071E+03   -0.61535E-05   -0.15059E-06  7785   0.396E-03    0.407E-03
RMM:  18    -0.391851446581E+03   -0.25104E-05   -0.93907E-07  7269   0.482E-03    0.184E-03
RMM:  19    -0.391851450775E+03   -0.41939E-05   -0.60640E-07  7206   0.255E-03    0.133E-03
RMM:  20    -0.391851454479E+03   -0.37040E-05   -0.50567E-07  7064   0.237E-03    0.769E-04
RMM:  21    -0.391851458363E+03   -0.38845E-05   -0.51580E-07  6698   0.187E-03    0.138E-03
RMM:  22    -0.391851460470E+03   -0.21063E-05   -0.38516E-07  6583   0.253E-03    0.917E-04
RMM:  23    -0.391851463375E+03   -0.29052E-05   -0.45776E-07  6230   0.158E-03    0.594E-04
RMM:  24    -0.391851465108E+03   -0.17332E-05   -0.31091E-07  6052   0.183E-03    0.466E-04
RMM:  25    -0.391851466212E+03   -0.11038E-05   -0.22503E-07  5039   0.117E-03    0.178E-04
RMM:  26    -0.391851466991E+03   -0.77899E-06   -0.15258E-07  4931   0.132E-03
  14 F= -.39185147E+03 E0= -.39185184E+03  d E =-.181551E+00
 curvature:  -5.03 expect dE=-0.187E+00 dE for cont linesearch -0.183E-02
 ZBRENT: interpolating
 opt :  27.6441  next Energy=  -391.854592 (dE=-0.185E+00)
 bond charge predicted
       N       E                     dE             d eps       ncg     rms          rms(c)
DAV:   1    -0.391853930639E+03   -0.24644E-02   -0.12326E+00 12504   0.277E+00    0.287E-01
RMM:   2    -0.391854532157E+03   -0.60152E-03   -0.13240E-02 14061   0.401E-01    0.283E-01
RMM:   3    -0.391855361694E+03   -0.82954E-03   -0.52052E-03 14049   0.266E-01    0.370E-01
RMM:   4    -0.391854135397E+03    0.12263E-02   -0.30511E-03 13034   0.218E-01    0.201E-01
RMM:   5    -0.391853744955E+03    0.39044E-03   -0.14074E-03 12156   0.167E-01    0.118E-01
RMM:   6    -0.391853613183E+03    0.13177E-03   -0.50414E-04 13473   0.867E-02    0.489E-02
RMM:   7    -0.391853611211E+03    0.19721E-05   -0.29035E-04 14442   0.508E-02    0.413E-02
RMM:   8    -0.391853589382E+03    0.21828E-04   -0.95400E-05 12582   0.366E-02    0.229E-02
RMM:   9    -0.391853589919E+03   -0.53635E-06   -0.54209E-05 13424   0.229E-02    0.197E-02
RMM:  10    -0.391853587589E+03    0.23294E-05   -0.22282E-05 11123   0.157E-02    0.103E-02
RMM:  11    -0.391853586929E+03    0.66082E-06   -0.93612E-06  9459   0.869E-03
  15 F= -.39185359E+03 E0= -.39185417E+03  d E =-.183671E+00
 curvature:  -8.61 expect dE=-0.474E+00 dE for cont linesearch -0.159E-03
 trial: gam= 6.15965 g(F)=  0.550E-01 g(S)=  0.000E+00 ort =-0.432E-03 (trialstep = 0.197E+00)
 search vector abs. value=  0.432E+00
 bond charge predicted
       N       E                     dE             d eps       ncg     rms          rms(c)
DAV:   1    -0.391863487442E+03   -0.98999E-02   -0.26340E-01 12756   0.128E+00    0.114E-01
RMM:   2    -0.391863706777E+03   -0.21933E-03   -0.23955E-03 14057   0.170E-01    0.108E-01
RMM:   3    -0.391863861622E+03   -0.15484E-03   -0.83763E-04 14153   0.104E-01    0.144E-01
RMM:   4    -0.391863701633E+03    0.15999E-03   -0.47909E-04 12815   0.858E-02    0.871E-02
RMM:   5    -0.391863629930E+03    0.71704E-04   -0.24686E-04 12087   0.707E-02    0.491E-02
RMM:   6    -0.391863602481E+03    0.27449E-04   -0.72867E-05 13207   0.329E-02    0.138E-02
RMM:   7    -0.391863607353E+03   -0.48716E-05   -0.47643E-05 12950   0.178E-02    0.181E-02
RMM:   8    -0.391863603859E+03    0.34936E-05   -0.12946E-05  9775   0.138E-02    0.899E-03
RMM:   9    -0.391863603517E+03    0.34291E-06   -0.68093E-06  9177   0.804E-03
  16 F= -.39186360E+03 E0= -.39186430E+03  d E =-.100166E-01
 ZBRENT: can't locate minimum, use default step
 trial-energy change:   -0.010017  1 .order   -0.010006   -0.010336   -0.009676
 step:   0.7893(harm=  3.0868)  dis= 0.00000  next Energy=  -391.934435 (dE=-0.808E-01)
 bond charge predicted
       N       E                     dE             d eps       ncg     rms          rms(c)
DAV:   1    -0.391889119560E+03   -0.25516E-01   -0.23533E+00 12000   0.383E+00    0.347E-01
RMM:   2    -0.391890734914E+03   -0.16154E-02   -0.21384E-02 14007   0.509E-01    0.320E-01
RMM:   3    -0.391892515549E+03   -0.17806E-02   -0.79467E-03 14131   0.321E-01    0.462E-01
RMM:   4    -0.391890550703E+03    0.19648E-02   -0.41939E-03 12658   0.261E-01    0.229E-01
RMM:   5    -0.391890034978E+03    0.51573E-03   -0.20067E-03 12198   0.198E-01    0.141E-01
RMM:   6    -0.391889845083E+03    0.18990E-03   -0.73322E-04 13188   0.107E-01    0.593E-02
RMM:   7    -0.391889846506E+03   -0.14229E-05   -0.43604E-04 14311   0.606E-02    0.447E-02
RMM:   8    -0.391889820497E+03    0.26008E-04   -0.12145E-04 12671   0.369E-02    0.190E-02
RMM:   9    -0.391889824899E+03   -0.44021E-05   -0.64881E-05 13891   0.222E-02    0.209E-02
RMM:  10    -0.391889822762E+03    0.21376E-05   -0.22165E-05 11183   0.163E-02    0.987E-03
RMM:  11    -0.391889822548E+03    0.21334E-06   -0.10672E-05  9836   0.820E-03    0.525E-03
RMM:  12    -0.391889823576E+03   -0.10272E-05   -0.39348E-06  8705   0.773E-03    0.737E-03
RMM:  13    -0.391889823510E+03    0.65291E-07   -0.14521E-06  7591   0.603E-03
  17 F= -.39188982E+03 E0= -.39189091E+03  d E =-.362366E-01
 curvature:  -4.68 expect dE=-0.236E+00 dE for cont linesearch -0.169E-01
 ZBRENT: increasing intervall
 opt :   1.9732  next Energy=  -391.925326 (dE=-0.717E-01)
 bond charge predicted
       N       E                     dE             d eps       ncg     rms          rms(c)
DAV:   1    -0.391923129042E+03   -0.33305E-01   -0.91130E+00 12000   0.748E+00    0.704E-01
RMM:   2    -0.391926921874E+03   -0.37928E-02   -0.93794E-02 13725   0.113E+00    0.568E-01
RMM:   3    -0.391939095889E+03   -0.12174E-01   -0.39491E-02 14440   0.685E-01    0.104E+00
RMM:   4    -0.391927785139E+03    0.11311E-01   -0.19547E-02 12435   0.586E-01    0.510E-01
RMM:   5    -0.391925294238E+03    0.24909E-02   -0.89513E-03 12354   0.418E-01    0.282E-01
RMM:   6    -0.391924840709E+03    0.45353E-03   -0.39064E-03 13264   0.244E-01    0.178E-01
RMM:   7    -0.391924585410E+03    0.25530E-03   -0.19473E-03 13386   0.150E-01    0.956E-02
RMM:   8    -0.391924514089E+03    0.71321E-04   -0.76011E-04 13578   0.833E-02    0.623E-02
RMM:   9    -0.391924505128E+03    0.89610E-05   -0.30727E-04 13027   0.589E-02    0.479E-02
RMM:  10    -0.391924501352E+03    0.37761E-05   -0.16274E-04 13929   0.387E-02    0.261E-02
RMM:  11    -0.391924495915E+03    0.54366E-05   -0.59120E-05 13983   0.192E-02    0.133E-02
RMM:  12    -0.391924500474E+03   -0.45592E-05   -0.25962E-05 11099   0.158E-02    0.173E-02
RMM:  13    -0.391924499550E+03    0.92408E-06   -0.85856E-06  9290   0.112E-02
  18 F= -.39192450E+03 E0= -.39192625E+03  d E =-.709126E-01
 curvature:  -9.83 expect dE=-0.578E+00 dE for cont linesearch -0.725E-02
 ZBRENT: increasing intervall
 opt :   4.3411  next Energy=  -391.915521 (dE=-0.619E-01)
 bond charge predicted
       N       E                     dE             d eps       ncg     rms          rms(c)
DAV:   1    -0.391892602261E+03    0.31898E-01   -0.31671E+01 12024   0.135E+01    0.136E+00
RMM:   2    -0.391895637712E+03   -0.30355E-02   -0.42518E-01 12734   0.274E+00    0.948E-01
RMM:   3    -0.391930528721E+03   -0.34891E-01   -0.20527E-01 14518   0.151E+00    0.160E+00
RMM:   4    -0.391906608148E+03    0.23921E-01   -0.69419E-02 12623   0.111E+00    0.103E+00
RMM:   5    -0.391899244838E+03    0.73633E-02   -0.34647E-02 13283   0.721E-01    0.631E-01
RMM:   6    -0.391898125572E+03    0.11193E-02   -0.19259E-02 13456   0.484E-01    0.484E-01
RMM:   7    -0.391894852102E+03    0.32735E-02   -0.77722E-03 13233   0.346E-01    0.187E-01
RMM:   8    -0.391894774066E+03    0.78035E-04   -0.37177E-03 14130   0.188E-01    0.137E-01
RMM:   9    -0.391894857833E+03   -0.83767E-04   -0.17161E-03 12790   0.142E-01    0.129E-01
RMM:  10    -0.391894688836E+03    0.16900E-03   -0.63837E-04 12312   0.929E-02    0.422E-02
RMM:  11    -0.391894730828E+03   -0.41992E-04   -0.42345E-04 15593   0.416E-02    0.406E-02
RMM:  12    -0.391894741861E+03   -0.11033E-04   -0.13170E-04 12444   0.373E-02    0.321E-02
RMM:  13    -0.391894751048E+03   -0.91875E-05   -0.52297E-05 13294   0.186E-02    0.118E-02
RMM:  14    -0.391894763947E+03   -0.12898E-04   -0.25567E-05 11250   0.147E-02    0.156E-02
RMM:  15    -0.391894774104E+03   -0.10157E-04   -0.75134E-06  9019   0.103E-02    0.349E-03
RMM:  16    -0.391894791213E+03   -0.17109E-04   -0.67726E-06  9651   0.491E-03    0.402E-03
RMM:  17    -0.391894801281E+03   -0.10068E-04   -0.23761E-06  8050   0.614E-03    0.477E-03
RMM:  18    -0.391894808156E+03   -0.68745E-05   -0.13287E-06  7528   0.476E-03    0.185E-03
RMM:  19    -0.391894820976E+03   -0.12821E-04   -0.22466E-06  8012   0.326E-03    0.224E-03
RMM:  20    -0.391894826433E+03   -0.54571E-05   -0.97163E-07  7479   0.368E-03    0.187E-03
RMM:  21    -0.391894834054E+03   -0.76204E-05   -0.14085E-06  7598   0.321E-03    0.180E-03
RMM:  22    -0.391894840181E+03   -0.61272E-05   -0.13804E-06  7576   0.296E-03    0.888E-04
RMM:  23    -0.391894842614E+03   -0.24329E-05   -0.61645E-07  6325   0.204E-03    0.633E-04
RMM:  24    -0.391894845679E+03   -0.30649E-05   -0.83056E-07  6880   0.214E-03    0.632E-04
RMM:  25    -0.391894846831E+03   -0.11522E-05   -0.38282E-07  6349   0.204E-03    0.354E-04
RMM:  26    -0.391894847423E+03   -0.59223E-06   -0.24270E-07  5322   0.136E-03
  19 F= -.39189485E+03 E0= -.39189672E+03  d E =-.412605E-01
 curvature:  12.17 expect dE= 0.126E+01 dE for cont linesearch  0.599E-01
 ZBRENT: bracketing found
 ZBRENT: interpolating
 opt :   2.6342  next Energy=  -391.930402 (dE=-0.768E-01)
 bond charge predicted
       N       E                     dE             d eps       ncg     rms          rms(c)
DAV:   1    -0.391936450177E+03   -0.41603E-01   -0.17836E+01 12000   0.100E+01    0.107E+00
RMM:   2    -0.391933288714E+03    0.31615E-02   -0.20380E-01 12884   0.171E+00    0.683E-01
RMM:   3    -0.391954393672E+03   -0.21105E-01   -0.11253E-01 14074   0.117E+00    0.133E+00
RMM:   4    -0.391933059039E+03    0.21335E-01   -0.40440E-02 12222   0.901E-01    0.417E-01
RMM:   5    -0.391932883320E+03    0.17572E-03   -0.16158E-02 14658   0.383E-01    0.308E-01
RMM:   6    -0.391933330206E+03   -0.44689E-03   -0.69789E-03 13050   0.276E-01    0.395E-01
RMM:   7    -0.391931383785E+03    0.19464E-02   -0.28385E-03 13119   0.213E-01    0.106E-01
RMM:   8    -0.391931440811E+03   -0.57026E-04   -0.18947E-03 14766   0.116E-01    0.104E-01
RMM:   9    -0.391931390342E+03    0.50469E-04   -0.65710E-04 12600   0.942E-02    0.738E-02
RMM:  10    -0.391931333608E+03    0.56734E-04   -0.27328E-04 13005   0.532E-02    0.284E-02
RMM:  11    -0.391931344753E+03   -0.11144E-04   -0.15169E-04 14985   0.299E-02    0.323E-02
RMM:  12    -0.391931342489E+03    0.22634E-05   -0.60743E-05 12481   0.275E-02    0.217E-02
RMM:  13    -0.391931341505E+03    0.98462E-06   -0.27358E-05 12148   0.138E-02    0.991E-03
RMM:  14    -0.391931343433E+03   -0.19283E-05   -0.10522E-05  9574   0.955E-03    0.880E-03
RMM:  15    -0.391931347411E+03   -0.39784E-05   -0.49873E-06  9010   0.747E-03    0.311E-03
RMM:  16    -0.391931352211E+03   -0.47999E-05   -0.22500E-06  8036   0.455E-03    0.330E-03
RMM:  17    -0.391931356083E+03   -0.38715E-05   -0.13955E-06  7473   0.572E-03    0.352E-03
RMM:  18    -0.391931359340E+03   -0.32575E-05   -0.75794E-07  7263   0.407E-03    0.154E-03
RMM:  19    -0.391931365167E+03   -0.58271E-05   -0.82185E-07  7392   0.284E-03    0.180E-03
RMM:  20    -0.391931366936E+03   -0.17682E-05   -0.42771E-07  7057   0.270E-03    0.969E-04
RMM:  21    -0.391931372949E+03   -0.60130E-05   -0.86358E-07  7312   0.203E-03    0.108E-03
RMM:  22    -0.391931375183E+03   -0.22349E-05   -0.38060E-07  6827   0.229E-03    0.479E-04
RMM:  23    -0.391931376877E+03   -0.16939E-05   -0.30910E-07  5227   0.119E-03    0.380E-04
RMM:  24    -0.391931378547E+03   -0.16695E-05   -0.23617E-07  5424   0.160E-03    0.325E-04
RMM:  25    -0.391931379711E+03   -0.11643E-05   -0.18046E-07  5054   0.111E-03    0.191E-04
RMM:  26    -0.391931380197E+03   -0.48563E-06   -0.11468E-07  4726   0.111E-03
  20 F= -.39193138E+03 E0= -.39193324E+03  d E =-.777933E-01
 curvature:  -1.20 expect dE=-0.838E-01 dE for cont linesearch -0.158E-04
 trial: gam= 0.20842 g(F)=  0.698E-01 g(S)=  0.000E+00 ort = 0.239E-02 (trialstep = 0.685E+00)
 search vector abs. value=  0.896E-01
 bond charge predicted
       N       E                     dE             d eps       ncg     rms          rms(c)
DAV:   1    -0.391973163494E+03   -0.41784E-01   -0.68364E-01 12636   0.199E+00    0.215E-01
RMM:   2    -0.391973348556E+03   -0.18506E-03   -0.74022E-03 12609   0.289E-01    0.136E-01
RMM:   3    -0.391974979366E+03   -0.16308E-02   -0.42996E-03 13828   0.245E-01    0.353E-01
RMM:   4    -0.391973435963E+03    0.15434E-02   -0.14926E-03 12675   0.172E-01    0.111E-01
RMM:   5    -0.391973334765E+03    0.10120E-03   -0.58652E-04 14098   0.731E-02    0.467E-02
RMM:   6    -0.391973308344E+03    0.26421E-04   -0.20925E-04 16041   0.342E-02    0.318E-02
RMM:   7    -0.391973303097E+03    0.52474E-05   -0.99070E-05 13970   0.355E-02    0.312E-02
RMM:   8    -0.391973294089E+03    0.90082E-05   -0.40938E-05 13256   0.250E-02    0.132E-02
RMM:   9    -0.391973292502E+03    0.15866E-05   -0.12215E-05 10315   0.118E-02    0.813E-03
RMM:  10    -0.391973292320E+03    0.18251E-06   -0.50067E-06  8596   0.854E-03
  21 F= -.39197329E+03 E0= -.39197518E+03  d E =-.419121E-01
 trial-energy change:   -0.041912  1 .order   -0.041789   -0.048149   -0.035430
 step:   2.2833(harm=  2.5920)  dis= 0.00000  next Energy=  -392.016214 (dE=-0.848E-01)
 bond charge predicted
       N       E                     dE             d eps       ncg     rms          rms(c)
DAV:   1    -0.392015725325E+03   -0.42433E-01   -0.38041E+00 12000   0.469E+00    0.550E-01
RMM:   2    -0.392016550902E+03   -0.82558E-03   -0.44870E-02 12736   0.721E-01    0.344E-01
RMM:   3    -0.392027191810E+03   -0.10641E-01   -0.27317E-02 13927   0.619E-01    0.900E-01
RMM:   4    -0.392017071746E+03    0.10120E-01   -0.92253E-03 12554   0.434E-01    0.276E-01
RMM:   5    -0.392016478243E+03    0.59350E-03   -0.35789E-03 14064   0.185E-01    0.121E-01
RMM:   6    -0.392016325593E+03    0.15265E-03   -0.13830E-03 16030   0.904E-02    0.858E-02
RMM:   7    -0.392016265277E+03    0.60316E-04   -0.61904E-04 13954   0.889E-02    0.744E-02
RMM:   8    -0.392016221523E+03    0.43754E-04   -0.24485E-04 13380   0.612E-02    0.362E-02
RMM:   9    -0.392016207284E+03    0.14240E-04   -0.76278E-05 13233   0.303E-02    0.175E-02
RMM:  10    -0.392016208499E+03   -0.12150E-05   -0.40150E-05 12729   0.174E-02    0.174E-02
RMM:  11    -0.392016207426E+03    0.10722E-05   -0.16483E-05 11077   0.156E-02    0.110E-02
RMM:  12    -0.392016207582E+03   -0.15602E-06   -0.88067E-06 10232   0.866E-03
  22 F= -.39201621E+03 E0= -.39201812E+03  d E =-.848274E-01
 curvature:  -1.61 expect dE=-0.615E-02 dE for cont linesearch -0.922E-07
 trial: gam= 0.15657 g(F)=  0.383E-02 g(S)=  0.000E+00 ort = 0.717E-04 (trialstep = 0.100E+01)
 search vector abs. value=  0.604E-02
 bond charge predicted
       N       E                     dE             d eps       ncg     rms          rms(c)
DAV:   1    -0.392019981667E+03   -0.37742E-02   -0.98895E-02 13200   0.758E-01    0.915E-02
RMM:   2    -0.392019992400E+03   -0.10733E-04   -0.12852E-03 13432   0.141E-01    0.658E-02
RMM:   3    -0.392020234844E+03   -0.24244E-03   -0.76993E-04 14017   0.100E-01    0.141E-01
RMM:   4    -0.392020041835E+03    0.19301E-03   -0.31174E-04 12419   0.753E-02    0.789E-02
RMM:   5    -0.392019980885E+03    0.60950E-04   -0.14596E-04 12554   0.510E-02    0.298E-02
RMM:   6    -0.392019980107E+03    0.77864E-06   -0.69832E-05 14331   0.260E-02    0.220E-02
RMM:   7    -0.392019974064E+03    0.60424E-05   -0.25358E-05 11562   0.184E-02    0.127E-02
RMM:   8    -0.392019973386E+03    0.67834E-06   -0.11930E-05  9889   0.110E-02    0.776E-03
RMM:   9    -0.392019973746E+03   -0.36012E-06   -0.52304E-06  8837   0.856E-03
  23 F= -.39201997E+03 E0= -.39202188E+03  d E =-.376616E-02
 ZBRENT: can't locate minimum, use default step
 trial-energy change:   -0.003766  1 .order   -0.003753   -0.003853   -0.003653
 step:   4.0177(harm= 19.3237)  dis= 0.00000  next Energy=  -392.053273 (dE=-0.371E-01)
 bond charge predicted
       N       E                     dE             d eps       ncg     rms          rms(c)
DAV:   1    -0.392030124825E+03   -0.10151E-01   -0.88721E-01 12072   0.227E+00    0.276E-01
RMM:   2    -0.392030033276E+03    0.91548E-04   -0.11071E-02 13299   0.412E-01    0.187E-01
RMM:   3    -0.392032675752E+03   -0.26425E-02   -0.69858E-03 14131   0.298E-01    0.454E-01
RMM:   4    -0.392030279130E+03    0.23966E-02   -0.25525E-03 12408   0.221E-01    0.193E-01
RMM:   5    -0.392029980222E+03    0.29891E-03   -0.12981E-03 12805   0.144E-01    0.963E-02
RMM:   6    -0.392029956566E+03    0.23656E-04   -0.57782E-04 14344   0.792E-02    0.706E-02
RMM:   7    -0.392029881222E+03    0.75344E-04   -0.21064E-04 12691   0.557E-02    0.311E-02
RMM:   8    -0.392029884257E+03   -0.30358E-05   -0.12849E-04 14422   0.299E-02    0.256E-02
RMM:   9    -0.392029881743E+03    0.25147E-05   -0.41006E-05 12298   0.224E-02    0.163E-02
RMM:  10    -0.392029879513E+03    0.22295E-05   -0.19076E-05 10536   0.137E-02    0.782E-03
RMM:  11    -0.392029880130E+03   -0.61660E-06   -0.86121E-06  9432   0.898E-03
  24 F= -.39202988E+03 E0= -.39203176E+03  d E =-.136725E-01
 curvature:  -4.60 expect dE=-0.687E-02 dE for cont linesearch -0.631E-02
 ZBRENT: increasing intervall
 opt :  10.0443  next Energy=  -392.042692 (dE=-0.265E-01)
 bond charge predicted
       N       E                     dE             d eps       ncg     rms          rms(c)
DAV:   1    -0.392041964140E+03   -0.12085E-01   -0.34935E+00 12144   0.448E+00    0.555E-01
RMM:   2    -0.392041379823E+03    0.58432E-03   -0.45921E-02 13074   0.855E-01    0.374E-01
RMM:   3    -0.392051645496E+03   -0.10266E-01   -0.29561E-02 14185   0.610E-01    0.899E-01
RMM:   4    -0.392042310760E+03    0.93347E-02   -0.10207E-02 12425   0.445E-01    0.364E-01
RMM:   5    -0.392041438726E+03    0.87203E-03   -0.54803E-03 13006   0.285E-01    0.213E-01
RMM:   6    -0.392041213590E+03    0.22514E-03   -0.22994E-03 14330   0.159E-01    0.140E-01
RMM:   7    -0.392040903135E+03    0.31046E-03   -0.86827E-04 12906   0.112E-01    0.593E-02
RMM:   8    -0.392040928087E+03   -0.24952E-04   -0.52775E-04 14759   0.609E-02    0.555E-02
RMM:   9    -0.392040915758E+03    0.12329E-04   -0.17512E-04 12540   0.479E-02    0.347E-02
RMM:  10    -0.392040907031E+03    0.87269E-05   -0.84065E-05 13118   0.276E-02    0.157E-02
RMM:  11    -0.392040910935E+03   -0.39037E-05   -0.38124E-05 11979   0.159E-02    0.163E-02
RMM:  12    -0.392040911137E+03   -0.20191E-06   -0.12445E-05  9574   0.133E-02    0.805E-03
RMM:  13    -0.392040914315E+03   -0.31777E-05   -0.69852E-06  9439   0.689E-03    0.320E-03
RMM:  14    -0.392040917298E+03   -0.29836E-05   -0.15361E-06  7767   0.476E-03    0.352E-03
RMM:  15    -0.392040918582E+03   -0.12842E-05   -0.10334E-06  7415   0.520E-03    0.240E-03
RMM:  16    -0.392040920842E+03   -0.22597E-05   -0.54322E-07  7229   0.301E-03    0.106E-03
RMM:  17    -0.392040923594E+03   -0.27518E-05   -0.54735E-07  7198   0.222E-03    0.919E-04
RMM:  18    -0.392040925542E+03   -0.19478E-05   -0.38209E-07  7019   0.214E-03    0.107E-03
RMM:  19    -0.392040927001E+03   -0.14595E-05   -0.31288E-07  6557   0.203E-03    0.943E-04
RMM:  20    -0.392040929063E+03   -0.20617E-05   -0.40872E-07  6343   0.179E-03    0.660E-04
RMM:  21    -0.392040930124E+03   -0.10609E-05   -0.27018E-07  5772   0.158E-03    0.696E-04
RMM:  22    -0.392040931590E+03   -0.14658E-05   -0.33136E-07  5912   0.150E-03    0.470E-04
RMM:  23    -0.392040932411E+03   -0.82103E-06   -0.25038E-07  5572   0.149E-03
  25 F= -.39204093E+03 E0= -.39204279E+03  d E =-.247248E-01
 curvature:  -9.33 expect dE=-0.129E-01 dE for cont linesearch -0.552E-03
 ZBRENT: extrapolating
 opt :  11.6223  next Energy=  -392.041404 (dE=-0.252E-01)
 bond charge predicted
       N       E                     dE             d eps       ncg     rms          rms(c)
DAV:   1    -0.392041358877E+03   -0.42729E-03   -0.24185E-01 13200   0.117E+00    0.147E-01
RMM:   2    -0.392041302949E+03    0.55928E-04   -0.31193E-03 13147   0.218E-01    0.970E-02
RMM:   3    -0.392041899160E+03   -0.59621E-03   -0.21284E-03 14148   0.161E-01    0.220E-01
RMM:   4    -0.392041336181E+03    0.56298E-03   -0.68850E-04 12289   0.118E-01    0.764E-02
RMM:   5    -0.392041335338E+03    0.84273E-06   -0.38801E-04 13588   0.680E-02    0.674E-02
RMM:   6    -0.392041292277E+03    0.43062E-04   -0.13131E-04 14058   0.395E-02    0.309E-02
RMM:   7    -0.392041279194E+03    0.13083E-04   -0.58826E-05 13276   0.265E-02    0.167E-02
RMM:   8    -0.392041278957E+03    0.23694E-06   -0.28196E-05 12088   0.155E-02    0.135E-02
RMM:   9    -0.392041278208E+03    0.74888E-06   -0.11766E-05  9967   0.127E-02    0.909E-03
RMM:  10    -0.392041277773E+03    0.43477E-06   -0.49464E-06  8774   0.822E-03
  26 F= -.39204128E+03 E0= -.39204313E+03  d E =-.250702E-01
 curvature:  -7.98 expect dE=-0.185E-01 dE for cont linesearch -0.437E-04
 trial: gam= 1.09460 g(F)=  0.231E-02 g(S)=  0.000E+00 ort =-0.182E-03 (trialstep = 0.206E+01)
 search vector abs. value=  0.916E-02
 bond charge predicted
       N       E                     dE             d eps       ncg     rms          rms(c)
DAV:   1    -0.392042862138E+03   -0.15839E-02   -0.61942E-01 12240   0.187E+00    0.217E-01
RMM:   2    -0.392043324167E+03   -0.46203E-03   -0.70385E-03 12316   0.334E-01    0.154E-01
RMM:   3    -0.392044740341E+03   -0.14162E-02   -0.45351E-03 13489   0.260E-01    0.348E-01
RMM:   4    -0.392043403478E+03    0.13369E-02   -0.13814E-03 12086   0.174E-01    0.725E-02
RMM:   5    -0.392043560554E+03   -0.15708E-03   -0.76321E-04 14140   0.838E-02    0.118E-01
RMM:   6    -0.392043387748E+03    0.17281E-03   -0.23196E-04 13345   0.546E-02    0.313E-02
RMM:   7    -0.392043386099E+03    0.16488E-05   -0.12173E-04 13518   0.314E-02    0.250E-02
RMM:   8    -0.392043381283E+03    0.48155E-05   -0.38390E-05 12070   0.166E-02    0.116E-02
RMM:   9    -0.392043381394E+03   -0.11033E-06   -0.14251E-05 10263   0.105E-02    0.822E-03
RMM:  10    -0.392043381991E+03   -0.59702E-06   -0.46033E-06  8704   0.841E-03
  27 F= -.39204338E+03 E0= -.39204522E+03  d E =-.210422E-02
 trial-energy change:   -0.002104  1 .order   -0.002086   -0.004367    0.000196
 step:   1.9779(harm=  1.9758)  dis= 0.00000  next Energy=  -392.043386 (dE=-0.211E-02)
 bond charge predicted
       N       E                     dE             d eps       ncg     rms          rms(c)
DAV:   1    -0.392043384187E+03   -0.27933E-05   -0.10780E-03 13956   0.809E-02    0.109E-02
RMM:   2    -0.392043390137E+03   -0.59501E-05   -0.30861E-05 11906   0.253E-02    0.200E-02
