   55   55    1    1
  0.1292508E+02  0.6078000E-09  0.6078000E-09  0.2222000E-08  0.5000000E-15
   1.0000000000000000E-004
  CAR 
 Name                                    
    199     41    132

  0.3742002E-15  0.3742002E-15  0.1262379E-14  0.1234568E-01
    1      -11.298871   1.000000
    2      -10.710814   1.000000
    3       -9.899638   1.000000
    4       -8.710184   1.000000
    5       -8.393508   1.000000
    6       -8.312143   1.000000
    7       -7.934604   1.000000
    8       -7.806974   1.000000
    9       -7.530053   1.000000
   10       -7.524010   1.000000
   11       -7.505585   1.000000
   12       -7.422957   1.000000
   13       -7.407926   1.000000
   14       -7.360414   1.000000
   15       -7.165473   1.000000
   16       -7.161250   1.000000
   17       -7.067078   1.000000
   18       -6.858966   1.000000
   19       -6.731360   1.000000
   20       -6.559383   1.000000
   21       -6.517157   1.000000
   22       -5.997895   1.000000
   23       -5.821296   1.000000
   24       -5.709826   1.000000
   25       -5.649247   1.000000
   26       -5.558819   1.000000
   27       -5.483851   1.000000
   28       -5.350273   1.000000
   29       -5.084032   1.000000
   30       -5.040629   1.000000
   31       -4.596849   1.000000
   32       -4.422178   1.000000
   33       -4.277368   1.000000
   34       -4.231753   1.000000
   35       -4.096258   1.000000
   36       -4.041457   1.000000
   37       -3.812718   1.000000
   38       -3.247606   1.000000
   39       -2.961614   1.000000
   40       -2.756308   1.000000
   41       -2.698785   1.000000
   42       -2.491497   1.000000
   43       -2.491038   1.000000
   44       -2.309054   1.000000
   45       -2.194980   1.000000
   46       -2.173235   1.000000
   47       -2.116621   1.000000
   48       -1.934716   1.000000
   49       -1.776391   1.000000
   50       -1.717929   1.000000
   51       -1.663882   1.000000
   52       -1.655191   1.000000
   53       -1.545446   1.000000
   54       -1.434740   1.000000
   55       -1.399348   1.000000
   56       -1.316729   1.000000
   57       -1.274312   1.000000
   58       -1.198053   1.000000
   59       -1.178314   1.000000
   60       -1.127588   1.000000
   61       -1.123125   1.000000
   62       -0.975059   1.000000
   63       -0.897396   1.000000
   64       -0.826877   1.000000
   65       -0.807785   1.000000
   66       -0.803781   1.000000
   67       -0.595866   1.000000
   68       -0.579212   1.000000
   69       -0.513392   1.000000
   70       -0.507302   1.000000
   71       -0.418657   1.000000
   72       -0.344121   1.000000
   73       -0.089224   1.000000
   74       -0.036113   1.000000
   75        0.067595   1.000000
   76        0.157621   1.000000
   77        0.161279   1.000000
   78        0.249986   1.000000
   79        0.266389   1.000000
   80        0.519786   1.000000
   81        0.520795   1.000000
   82        0.936404   1.000000
   83        0.977325   1.000000
   84        1.303801   1.000000
   85        1.453733   1.000000
   86        1.471667   1.000000
   87        1.479930   1.000000
   88        1.629359   1.000000
   89        1.781183   1.000000
   90        1.789512   1.000000
   91        1.841682   1.000000
   92        1.867892   1.000000
   93        1.925585   1.000000
   94        1.999314   1.000000
   95        2.039859   1.000001
   96        2.154275   1.000033
   97        2.365711   1.005268
   98        2.398329   1.009083
   99        2.889237   0.132815
  100        2.951813   0.008033
  101        2.997085  -0.028302
  102        3.262456  -0.002108
  103        3.268709  -0.001850
  104        3.465608  -0.000010
  105        3.474590  -0.000007
  106        3.532820  -0.000001
  107        3.536905  -0.000001
  108        3.754150  -0.000000
  109        3.784660  -0.000000
  110        3.795498  -0.000000
  111        3.811803  -0.000000
  112        3.870141  -0.000000
  113        3.934224  -0.000000
  114        3.979403  -0.000000
  115        4.014664  -0.000000
  116        4.048108  -0.000000
  117        4.086993  -0.000000
  118        4.107678  -0.000000
  119        4.193859  -0.000000
  120        4.263038  -0.000000
  121        4.303426  -0.000000
  122        4.396288  -0.000000
  123        4.425534  -0.000000
  124        4.500509  -0.000000
  125        4.564298  -0.000000
  126        4.705224  -0.000000
  127        5.010731  -0.000000
  128        5.773984  -0.000000
  129        6.247353  -0.000000
  130        6.356465  -0.000000
  131        6.508269  -0.000000
  132        6.757018  -0.000000

  0.1111111E+00  0.3756941E-15  0.1262379E-14  0.2469136E-01
    1      -11.241587   1.000000
    2      -10.658571   1.000000
    3       -9.858762   1.000000
    4       -8.678588   1.000000
    5       -8.367069   1.000000
    6       -8.330092   1.000000
    7       -8.078785   1.000000
    8       -8.076288   1.000000
    9       -7.815395   1.000000
   10       -7.663198   1.000000
   11       -7.633719   1.000000
   12       -7.630623   1.000000
   13       -7.576533   1.000000
   14       -7.554836   1.000000
   15       -6.973592   1.000000
   16       -6.874190   1.000000
   17       -6.769310   1.000000
   18       -6.649549   1.000000
   19       -6.560498   1.000000
   20       -6.422478   1.000000
   21       -6.314303   1.000000
   22       -5.962836   1.000000
   23       -5.852870   1.000000
   24       -5.731140   1.000000
   25       -5.566426   1.000000
   26       -5.549153   1.000000
   27       -5.471593   1.000000
   28       -5.352639   1.000000
   29       -5.210166   1.000000
   30       -4.972265   1.000000
   31       -4.511405   1.000000
   32       -4.250472   1.000000
   33       -4.218361   1.000000
   34       -4.072047   1.000000
   35       -4.006955   1.000000
   36       -3.815706   1.000000
   37       -3.726093   1.000000
   38       -3.234522   1.000000
   39       -2.980507   1.000000
   40       -2.811248   1.000000
   41       -2.665203   1.000000
   42       -2.604773   1.000000
   43       -2.482576   1.000000
   44       -2.409870   1.000000
   45       -2.269555   1.000000
   46       -2.225875   1.000000
   47       -2.165728   1.000000
   48       -2.097961   1.000000
   49       -1.780211   1.000000
   50       -1.766818   1.000000
   51       -1.718336   1.000000
   52       -1.662265   1.000000
   53       -1.526007   1.000000
   54       -1.427285   1.000000
   55       -1.406880   1.000000
   56       -1.342854   1.000000
   57       -1.261879   1.000000
   58       -1.221342   1.000000
   59       -1.166437   1.000000
   60       -1.151237   1.000000
   61       -1.105899   1.000000
   62       -1.070967   1.000000
   63       -0.931793   1.000000
   64       -0.875746   1.000000
   65       -0.846762   1.000000
   66       -0.812380   1.000000
   67       -0.730638   1.000000
   68       -0.586252   1.000000
   69       -0.511848   1.000000
   70       -0.457131   1.000000
   71       -0.408174   1.000000
   72       -0.353953   1.000000
   73       -0.226430   1.000000
   74       -0.043960   1.000000
   75        0.013475   1.000000
   76        0.040637   1.000000
   77        0.165602   1.000000
   78        0.197365   1.000000
   79        0.379776   1.000000
   80        0.420624   1.000000
   81        0.559570   1.000000
   82        0.738105   1.000000
   83        0.860018   1.000000
   84        1.192768   1.000000
   85        1.303929   1.000000
   86        1.384864   1.000000
   87        1.399267   1.000000
   88        1.576381   1.000000
   89        1.640423   1.000000
   90        1.768650   1.000000
   91        1.821240   1.000000
   92        1.827064   1.000000
   93        1.874459   1.000000
   94        2.048144   1.000001
   95        2.099057   1.000006
   96        2.177044   1.000064
   97        2.591112   1.024697
   98        2.676152   0.906434
   99        2.878551   0.163828
  100        2.969559  -0.010757
  101        3.028941  -0.035298
  102        3.141922  -0.016091
  103        3.188408  -0.008241
  104        3.305358  -0.000822
  105        3.498879  -0.000003
  106        3.630338  -0.000000
  107        3.719589  -0.000000
  108        3.756287  -0.000000
  109        3.772581  -0.000000
  110        3.790005  -0.000000
  111        3.815171  -0.000000
  112        3.864421  -0.000000
  113        3.911530  -0.000000
  114        3.963103  -0.000000
  115        3.994386  -0.000000
  116        4.013888  -0.000000
  117        4.081507  -0.000000
  118        4.106355  -0.000000
  119        4.172190  -0.000000
  120        4.236692  -0.000000
  121        4.267945  -0.000000
  122        4.329551  -0.000000
  123        4.408394  -0.000000
  124        4.457847  -0.000000
  125        4.562541  -0.000000
  126        4.827153  -0.000000
  127        5.356329  -0.000000
  128        5.943698  -0.000000
  129        6.349873  -0.000000
  130        6.512849  -0.000000
  131        6.616306  -0.000000
  132        6.785574  -0.000000

  0.2222222E+00  0.3503827E-15  0.1262379E-14  0.2469136E-01
    1      -11.071696   1.000000
    2      -10.504191   1.000000
    3       -9.739289   1.000000
    4       -8.743989   1.000000
    5       -8.588438   1.000000
    6       -8.502755   1.000000
    7       -8.444009   1.000000
    8       -8.244994   1.000000
    9       -7.902419   1.000000
   10       -7.890932   1.000000
   11       -7.850072   1.000000
   12       -7.819998   1.000000
   13       -7.758126   1.000000
   14       -7.711580   1.000000
   15       -7.027429   1.000000
   16       -6.709927   1.000000
   17       -6.447183   1.000000
   18       -6.401663   1.000000
   19       -6.354565   1.000000
   20       -6.209290   1.000000
   21       -5.945431   1.000000
   22       -5.792634   1.000000
   23       -5.715259   1.000000
   24       -5.601745   1.000000
   25       -5.553930   1.000000
   26       -5.448805   1.000000
   27       -5.350739   1.000000
   28       -5.317848   1.000000
   29       -4.895734   1.000000
   30       -4.787058   1.000000
   31       -4.316195   1.000000
   32       -4.057371   1.000000
   33       -4.013042   1.000000
   34       -3.872663   1.000000
   35       -3.621381   1.000000
   36       -3.536209   1.000000
   37       -3.302827   1.000000
   38       -3.195598   1.000000
   39       -3.058056   1.000000
   40       -3.016997   1.000000
   41       -2.903148   1.000000
   42       -2.846508   1.000000
   43       -2.698357   1.000000
   44       -2.538750   1.000000
   45       -2.424273   1.000000
   46       -2.262562   1.000000
   47       -2.230587   1.000000
   48       -2.100770   1.000000
   49       -1.886355   1.000000
   50       -1.781266   1.000000
   51       -1.772845   1.000000
   52       -1.706516   1.000000
   53       -1.671480   1.000000
   54       -1.601840   1.000000
   55       -1.529423   1.000000
   56       -1.426383   1.000000
   57       -1.276657   1.000000
   58       -1.253123   1.000000
   59       -1.230772   1.000000
   60       -1.193344   1.000000
   61       -1.162529   1.000000
   62       -1.099468   1.000000
   63       -1.054434   1.000000
   64       -0.963131   1.000000
   65       -0.934302   1.000000
   66       -0.862251   1.000000
   67       -0.786732   1.000000
   68       -0.768165   1.000000
   69       -0.617435   1.000000
   70       -0.589903   1.000000
   71       -0.469567   1.000000
   72       -0.391349   1.000000
   73       -0.304460   1.000000
   74       -0.212597   1.000000
   75       -0.192571   1.000000
   76       -0.068232   1.000000
   77        0.123415   1.000000
   78        0.267949   1.000000
   79        0.292454   1.000000
   80        0.401393   1.000000
   81        0.553986   1.000000
   82        0.672453   1.000000
   83        0.843590   1.000000
   84        0.934746   1.000000
   85        0.993330   1.000000
   86        1.153578   1.000000
   87        1.289403   1.000000
   88        1.421674   1.000000
   89        1.585887   1.000000
   90        1.643660   1.000000
   91        1.746106   1.000000
   92        1.773432   1.000000
   93        1.832941   1.000000
   94        2.054903   1.000001
   95        2.106198   1.000007
   96        2.249452   1.000443
   97        2.572496   1.032068
   98        2.659243   0.943269
   99        2.873885   0.178226
  100        3.001203  -0.029901
  101        3.078897  -0.030099
  102        3.261435  -0.002153
  103        3.372070  -0.000154
  104        3.380467  -0.000123
  105        3.540937  -0.000001
  106        3.552190  -0.000000
  107        3.592089  -0.000000
  108        3.625588  -0.000000
  109        3.660918  -0.000000
  110        3.713032  -0.000000
  111        3.758001  -0.000000
  112        3.853037  -0.000000
  113        3.904244  -0.000000
  114        3.929033  -0.000000
  115        3.953037  -0.000000
  116        4.025174  -0.000000
  117        4.057087  -0.000000
  118        4.084859  -0.000000
  119        4.107289  -0.000000
  120        4.154919  -0.000000
  121        4.198510  -0.000000
  122        4.300163  -0.000000
  123        4.329461  -0.000000
  124        4.400384  -0.000000
  125        4.449791  -0.000000
  126        4.591150  -0.000000
  127        4.675688  -0.000000
  128        5.021221  -0.000000
  129        5.089758  -0.000000
  130        6.185690  -0.000000
  131        6.714587  -0.000000
  132        6.790109  -0.000000

  0.3333333E+00  0.3779629E-15  0.1262379E-14  0.2469136E-01
    1      -10.795779   1.000000
    2      -10.255334   1.000000
    3       -9.551583   1.000000
    4       -9.357862   1.000000
    5       -8.995809   1.000000
    6       -8.681178   1.000000
    7       -8.460103   1.000000
    8       -8.089059   1.000000
    9       -8.044757   1.000000
   10       -8.011177   1.000000
   11       -7.998184   1.000000
   12       -7.931845   1.000000
   13       -7.849901   1.000000
   14       -7.754676   1.000000
   15       -7.249496   1.000000
   16       -7.075970   1.000000
   17       -6.194428   1.000000
   18       -6.175974   1.000000
   19       -6.110915   1.000000
   20       -5.946709   1.000000
   21       -5.787581   1.000000
   22       -5.710131   1.000000
   23       -5.572876   1.000000
   24       -5.516464   1.000000
   25       -5.431733   1.000000
   26       -5.313134   1.000000
   27       -4.833689   1.000000
   28       -4.685917   1.000000
   29       -4.488996   1.000000
   30       -4.281487   1.000000
   31       -4.083236   1.000000
   32       -3.808410   1.000000
   33       -3.740195   1.000000
   34       -3.645013   1.000000
   35       -3.497855   1.000000
   36       -3.431303   1.000000
   37       -3.382724   1.000000
   38       -3.341584   1.000000
   39       -3.309477   1.000000
   40       -3.204306   1.000000
   41       -3.111336   1.000000
   42       -3.069729   1.000000
   43       -2.636606   1.000000
   44       -2.475206   1.000000
   45       -2.401289   1.000000
   46       -2.305658   1.000000
   47       -2.272970   1.000000
   48       -2.157716   1.000000
   49       -2.122494   1.000000
   50       -2.018030   1.000000
   51       -1.893787   1.000000
   52       -1.830590   1.000000
   53       -1.765817   1.000000
   54       -1.710791   1.000000
   55       -1.661159   1.000000
   56       -1.590261   1.000000
   57       -1.458215   1.000000
   58       -1.387615   1.000000
   59       -1.333656   1.000000
   60       -1.304800   1.000000
   61       -1.241096   1.000000
   62       -1.200687   1.000000
   63       -1.143850   1.000000
   64       -1.132215   1.000000
   65       -1.019960   1.000000
   66       -0.967938   1.000000
   67       -0.900298   1.000000
   68       -0.794065   1.000000
   69       -0.779680   1.000000
   70       -0.634540   1.000000
   71       -0.508824   1.000000
   72       -0.413907   1.000000
   73       -0.369997   1.000000
   74       -0.289518   1.000000
   75       -0.224358   1.000000
   76       -0.153504   1.000000
   77       -0.107921   1.000000
   78        0.077471   1.000000
   79        0.245223   1.000000
   80        0.357522   1.000000
   81        0.610975   1.000000
   82        0.675340   1.000000
   83        0.714807   1.000000
   84        0.908175   1.000000
   85        0.967210   1.000000
   86        1.141057   1.000000
   87        1.209260   1.000000
   88        1.344944   1.000000
   89        1.470164   1.000000
   90        1.494266   1.000000
   91        1.652193   1.000000
   92        1.759845   1.000000
   93        1.817497   1.000000
   94        1.976682   1.000000
   95        2.000024   1.000000
   96        2.397668   1.008990
   97        2.425508   1.013529
   98        2.505321   1.030828
   99        2.687678   0.877193
  100        3.009872  -0.032531
  101        3.042086  -0.035286
  102        3.138644  -0.016767
  103        3.205581  -0.006197
  104        3.290329  -0.001157
  105        3.315475  -0.000648
  106        3.458596  -0.000012
  107        3.517567  -0.000002
  108        3.552662  -0.000000
  109        3.616810  -0.000000
  110        3.670411  -0.000000
  111        3.733631  -0.000000
  112        3.780688  -0.000000
  113        3.788224  -0.000000
  114        3.922355  -0.000000
  115        3.937051  -0.000000
  116        3.997565  -0.000000
  117        4.052847  -0.000000
  118        4.113672  -0.000000
  119        4.166738  -0.000000
  120        4.195411  -0.000000
  121        4.218666  -0.000000
  122        4.233363  -0.000000
  123        4.371497  -0.000000
  124        4.462317  -0.000000
  125        4.497982  -0.000000
  126        4.589045  -0.000000
  127        4.628068  -0.000000
  128        4.807408  -0.000000
  129        4.893709  -0.000000
  130        5.124784  -0.000000
  131        5.341999  -0.000000
  132        6.115959  -0.000000

  0.4444444E+00  0.3698634E-15  0.1262379E-14  0.2469136E-01
    1      -10.436645   1.000000
    2       -9.938909   1.000000
    3       -9.885129   1.000000
    4       -9.462740   1.000000
    5       -9.304705   1.000000
    6       -8.963361   1.000000
    7       -8.348026   1.000000
    8       -8.145468   1.000000
    9       -8.100869   1.000000
   10       -8.046769   1.000000
   11       -7.984505   1.000000
   12       -7.916083   1.000000
   13       -7.808864   1.000000
   14       -7.746755   1.000000
   15       -7.460645   1.000000
   16       -7.420960   1.000000
   17       -6.136433   1.000000
   18       -6.122731   1.000000
   19       -6.109321   1.000000
   20       -5.854874   1.000000
   21       -5.521294   1.000000
   22       -5.430250   1.000000
   23       -5.372756   1.000000
   24       -5.366866   1.000000
   25       -5.343718   1.000000
   26       -5.276483   1.000000
   27       -4.252269   1.000000
   28       -4.091450   1.000000
   29       -4.007721   1.000000
   30       -3.947450   1.000000
   31       -3.894252   1.000000
   32       -3.835176   1.000000
   33       -3.699173   1.000000
   34       -3.667374   1.000000
   35       -3.603073   1.000000
   36       -3.516195   1.000000
   37       -3.412527   1.000000
   38       -3.376336   1.000000
   39       -3.363356   1.000000
   40       -3.269012   1.000000
   41       -3.209142   1.000000
   42       -3.104304   1.000000
   43       -3.012919   1.000000
   44       -2.921236   1.000000
   45       -2.451456   1.000000
   46       -2.426717   1.000000
   47       -2.289215   1.000000
   48       -2.175897   1.000000
   49       -2.064233   1.000000
   50       -2.039973   1.000000
   51       -1.930516   1.000000
   52       -1.857143   1.000000
   53       -1.784364   1.000000
   54       -1.723073   1.000000
   55       -1.653087   1.000000
   56       -1.620252   1.000000
   57       -1.589898   1.000000
   58       -1.531298   1.000000
   59       -1.509790   1.000000
   60       -1.380427   1.000000
   61       -1.324366   1.000000
   62       -1.255973   1.000000
   63       -1.234586   1.000000
   64       -1.193617   1.000000
   65       -1.038824   1.000000
   66       -1.017647   1.000000
   67       -0.933097   1.000000
   68       -0.891640   1.000000
   69       -0.827577   1.000000
   70       -0.725239   1.000000
   71       -0.614512   1.000000
   72       -0.515462   1.000000
   73       -0.406761   1.000000
   74       -0.323236   1.000000
   75       -0.290016   1.000000
   76       -0.231332   1.000000
   77       -0.107007   1.000000
   78       -0.037139   1.000000
   79        0.262146   1.000000
   80        0.430661   1.000000
   81        0.520644   1.000000
   82        0.545710   1.000000
   83        0.821621   1.000000
   84        0.910265   1.000000
   85        1.005709   1.000000
   86        1.029612   1.000000
   87        1.240061   1.000000
   88        1.274848   1.000000
   89        1.434428   1.000000
   90        1.535285   1.000000
   91        1.574916   1.000000
   92        1.715100   1.000000
   93        1.762913   1.000000
   94        2.076027   1.000003
   95        2.132857   1.000017
   96        2.319698   1.002177
   97        2.497434   1.029211
   98        2.509578   1.031641
   99        2.601158   1.018532
  100        2.635466   0.983130
  101        2.664534   0.932517
  102        2.972541  -0.013296
  103        3.063815  -0.032888
  104        3.194908  -0.007415
  105        3.276073  -0.001582
  106        3.337809  -0.000375
  107        3.436847  -0.000024
  108        3.491271  -0.000004
  109        3.552419  -0.000000
  110        3.602118  -0.000000
  111        3.639925  -0.000000
  112        3.710263  -0.000000
  113        3.733846  -0.000000
  114        3.861207  -0.000000
  115        3.887540  -0.000000
  116        3.964303  -0.000000
  117        4.046738  -0.000000
  118        4.077929  -0.000000
  119        4.136566  -0.000000
  120        4.194357  -0.000000
  121        4.240522  -0.000000
  122        4.278947  -0.000000
  123        4.369896  -0.000000
  124        4.445803  -0.000000
  125        4.543220  -0.000000
  126        4.572734  -0.000000
  127        4.629558  -0.000000
  128        4.648803  -0.000000
  129        4.907420  -0.000000
  130        5.109906  -0.000000
  131        5.189234  -0.000000
  132        5.449014  -0.000000

  0.3742002E-15  0.1111111E+00  0.1262379E-14  0.2469136E-01
    1      -11.241588   1.000000
    2      -10.658571   1.000000
    3       -9.858763   1.000000
    4       -8.678598   1.000000
    5       -8.367066   1.000000
    6       -8.330065   1.000000
    7       -8.078696   1.000000
    8       -8.076445   1.000000
    9       -7.815423   1.000000
   10       -7.663204   1.000000
   11       -7.633364   1.000000
   12       -7.630974   1.000000
   13       -7.576663   1.000000
   14       -7.554673   1.000000
   15       -6.973509   1.000000
   16       -6.874067   1.000000
   17       -6.769333   1.000000
   18       -6.649245   1.000000
   19       -6.560558   1.000000
   20       -6.422632   1.000000
   21       -6.314319   1.000000
   22       -5.963017   1.000000
   23       -5.852891   1.000000
   24       -5.731159   1.000000
   25       -5.566525   1.000000
   26       -5.549088   1.000000
   27       -5.471848   1.000000
   28       -5.352574   1.000000
   29       -5.210391   1.000000
   30       -4.972155   1.000000
   31       -4.511218   1.000000
   32       -4.250406   1.000000
   33       -4.218478   1.000000
   34       -4.071587   1.000000
   35       -4.006577   1.000000
   36       -3.815764   1.000000
   37       -3.726534   1.000000
   38       -3.234586   1.000000
   39       -2.980495   1.000000
   40       -2.811245   1.000000
   41       -2.665319   1.000000
   42       -2.604606   1.000000
   43       -2.482595   1.000000
   44       -2.409813   1.000000
   45       -2.269675   1.000000
   46       -2.226045   1.000000
   47       -2.165476   1.000000
   48       -2.098177   1.000000
   49       -1.780172   1.000000
   50       -1.766603   1.000000
   51       -1.717711   1.000000
   52       -1.662847   1.000000
   53       -1.526117   1.000000
   54       -1.427227   1.000000
   55       -1.407113   1.000000
   56       -1.342656   1.000000
   57       -1.261708   1.000000
   58       -1.221521   1.000000
   59       -1.166378   1.000000
   60       -1.151400   1.000000
   61       -1.105582   1.000000
   62       -1.070986   1.000000
   63       -0.931847   1.000000
   64       -0.876237   1.000000
   65       -0.846035   1.000000
   66       -0.812918   1.000000
   67       -0.730486   1.000000
   68       -0.586140   1.000000
   69       -0.512412   1.000000
   70       -0.456725   1.000000
   71       -0.408336   1.000000
   72       -0.353634   1.000000
   73       -0.226466   1.000000
   74       -0.043960   1.000000
   75        0.013236   1.000000
   76        0.040254   1.000000
   77        0.165492   1.000000
   78        0.197510   1.000000
   79        0.380205   1.000000
   80        0.420460   1.000000
   81        0.559541   1.000000
   82        0.738171   1.000000
   83        0.860110   1.000000
   84        1.192523   1.000000
   85        1.303867   1.000000
   86        1.384728   1.000000
   87        1.399617   1.000000
   88        1.576529   1.000000
   89        1.640184   1.000000
   90        1.768620   1.000000
   91        1.821233   1.000000
   92        1.826976   1.000000
   93        1.875217   1.000000
   94        2.047770   1.000001
   95        2.098954   1.000006
   96        2.176992   1.000064
   97        2.590333   1.025106
   98        2.676747   0.905007
   99        2.878509   0.163957
  100        2.969453  -0.010663
  101        3.028727  -0.035287
  102        3.142001  -0.016075
  103        3.188649  -0.008209
  104        3.305479  -0.000819
  105        3.498973  -0.000003
  106        3.630433  -0.000000
  107        3.719799  -0.000000
  108        3.756827  -0.000000
  109        3.771761  -0.000000
  110        3.789563  -0.000000
  111        3.814854  -0.000000
  112        3.864997  -0.000000
  113        3.918023  -0.000000
  114        3.964136  -0.000000
  115        3.990896  -0.000000
  116        4.021952  -0.000000
  117        4.082425  -0.000000
  118        4.098679  -0.000000
  119        4.176092  -0.000000
  120        4.219093  -0.000000
  121        4.239837  -0.000000
  122        4.359285  -0.000000
  123        4.406031  -0.000000
  124        4.477227  -0.000000
  125        4.544397  -0.000000
  126        4.745883  -0.000000
  127        4.848416  -0.000000
  128        5.931390  -0.000000
  129        6.334528  -0.000000
  130        6.440731  -0.000000
  131        6.619526  -0.000000
  132        6.725066  -0.000000

  0.1111111E+00  0.1111111E+00  0.1262379E-14  0.2469136E-01
    1      -11.127231   1.000000
    2      -10.554974   1.000000
    3       -9.777897   1.000000
    4       -8.614367   1.000000
    5       -8.463920   1.000000
    6       -8.378026   1.000000
    7       -8.305939   1.000000
    8       -8.297974   1.000000
    9       -8.207348   1.000000
   10       -8.033558   1.000000
   11       -7.910948   1.000000
   12       -7.707085   1.000000
   13       -7.477414   1.000000
   14       -7.201106   1.000000
   15       -7.084005   1.000000
   16       -6.963453   1.000000
   17       -6.596382   1.000000
   18       -6.579810   1.000000
   19       -6.367248   1.000000
   20       -6.085158   1.000000
   21       -6.014411   1.000000
   22       -5.912231   1.000000
   23       -5.751968   1.000000
   24       -5.704459   1.000000
   25       -5.501348   1.000000
   26       -5.457128   1.000000
   27       -5.342427   1.000000
   28       -5.247102   1.000000
   29       -5.070288   1.000000
   30       -4.859122   1.000000
   31       -4.579294   1.000000
   32       -4.352418   1.000000
   33       -3.818587   1.000000
   34       -3.778858   1.000000
   35       -3.726259   1.000000
   36       -3.643056   1.000000
   37       -3.383736   1.000000
   38       -3.273387   1.000000
   39       -3.077440   1.000000
   40       -3.037972   1.000000
   41       -2.924654   1.000000
   42       -2.734264   1.000000
   43       -2.564658   1.000000
   44       -2.385383   1.000000
   45       -2.241805   1.000000
   46       -2.222268   1.000000
   47       -2.134448   1.000000
   48       -2.102064   1.000000
   49       -1.995360   1.000000
   50       -1.927130   1.000000
   51       -1.737420   1.000000
   52       -1.687307   1.000000
   53       -1.585324   1.000000
   54       -1.542293   1.000000
   55       -1.451258   1.000000
   56       -1.425554   1.000000
   57       -1.382181   1.000000
   58       -1.270774   1.000000
   59       -1.148176   1.000000
   60       -1.118816   1.000000
   61       -1.066539   1.000000
   62       -1.038588   1.000000
   63       -1.020109   1.000000
   64       -0.931009   1.000000
   65       -0.896881   1.000000
   66       -0.873756   1.000000
   67       -0.843659   1.000000
   68       -0.670152   1.000000
   69       -0.598283   1.000000
   70       -0.472997   1.000000
   71       -0.437924   1.000000
   72       -0.432793   1.000000
   73       -0.342816   1.000000
   74       -0.183543   1.000000
   75       -0.135872   1.000000
   76       -0.073861   1.000000
   77        0.134709   1.000000
   78        0.260242   1.000000
   79        0.386518   1.000000
   80        0.423000   1.000000
   81        0.569976   1.000000
   82        0.637192   1.000000
   83        0.761365   1.000000
   84        0.908160   1.000000
   85        1.106141   1.000000
   86        1.195484   1.000000
   87        1.403492   1.000000
   88        1.577857   1.000000
   89        1.591205   1.000000
   90        1.674655   1.000000
   91        1.675350   1.000000
   92        1.778553   1.000000
   93        1.827821   1.000000
   94        1.987893   1.000000
   95        2.077793   1.000003
   96        2.314334   1.001948
   97        2.652342   0.956246
   98        2.754705   0.647974