   76   76   85    1
  0.2054817E+02  0.1053953E-08  0.6141200E-09  0.2412750E-08  0.5000000E-15
   1.0000000000000000E-004
  CAR 
 Name                                    
    286     23    184

  0.3742002E-15  0.3742002E-15  0.1262379E-14  0.2222222E-01
    1      -13.904735   1.000000
    2      -12.777594   1.000000
    3      -12.708845   1.000000
    4      -12.699012   1.000000
    5      -11.725510   1.000000
    6      -11.640806   1.000000
    7      -11.575066   1.000000
    8      -11.514399   1.000000
    9      -11.332209   1.000000
   10      -11.214923   1.000000
   11      -11.200684   1.000000
   12      -11.039596   1.000000
   13      -10.965380   1.000000
   14      -10.665861   1.000000
   15      -10.402990   1.000000
   16      -10.303317   1.000000
   17      -10.118424   1.000000
   18      -10.077295   1.000000
   19       -9.906377   1.000000
   20       -9.753617   1.000000
   21       -9.593010   1.000000
   22       -9.441609   1.000000
   23       -9.438021   1.000000
   24       -9.429256   1.000000
   25       -8.860062   1.000000
   26       -8.836241   1.000000
   27       -8.824668   1.000000
   28       -8.627689   1.000000
   29       -8.428488   1.000000
   30       -8.280658   1.000000
   31       -8.138339   1.000000
   32       -7.851373   1.000000
   33       -7.692880   1.000000
   34       -7.387824   1.000000
   35       -7.369296   1.000000
   36       -7.275588   1.000000
   37       -7.195254   1.000000
   38       -7.079234   1.000000
   39       -6.912752   1.000000
   40       -6.889610   1.000000
   41       -6.800350   1.000000
   42       -6.685109   1.000000
   43       -6.672520   1.000000
   44       -6.646562   1.000000
   45       -6.556209   1.000000
   46       -6.550200   1.000000
   47       -6.392848   1.000000
   48       -6.133458   1.000000
   49       -6.078927   1.000000
   50       -6.072412   1.000000
   51       -5.954751   1.000000
   52       -5.878662   1.000000
   53       -5.830616   1.000000
   54       -5.688530   1.000000
   55       -5.616996   1.000000
   56       -5.601947   1.000000
   57       -5.558193   1.000000
   58       -5.552272   1.000000
   59       -5.417166   1.000000
   60       -5.335990   1.000000
   61       -5.317281   1.000000
   62       -5.158755   1.000000
   63       -5.122728   1.000000
   64       -4.962623   1.000000
   65       -4.946842   1.000000
   66       -4.725690   1.000000
   67       -4.684772   1.000000
   68       -4.661854   1.000000
   69       -4.571410   1.000000
   70       -4.534140   1.000000
   71       -4.508844   1.000000
   72       -4.422508   1.000000
   73       -4.371685   1.000000
   74       -4.352174   1.000000
   75       -4.303438   1.000000
   76       -4.227166   1.000000
   77       -4.121018   1.000000
   78       -4.066467   1.000000
   79       -4.049640   1.000000
   80       -4.006666   1.000000
   81       -3.953631   1.000000
   82       -3.906113   1.000000
   83       -3.897307   1.000000
   84       -3.876513   1.000000
   85       -3.843164   1.000000
   86       -3.791485   1.000000
   87       -3.695103   1.000000
   88       -3.650904   1.000000
   89       -3.606971   1.000000
   90       -3.552048   1.000000
   91       -3.521476   1.000000
   92       -3.504701   1.000000
   93       -3.351316   1.000000
   94       -3.313533   1.000000
   95       -3.217863   1.000000
   96       -3.166684   1.000000
   97       -3.020496   1.000000
   98       -2.997182   1.000000
   99       -2.975096   1.000000
  100       -2.811425   1.000000
  101       -2.796516   1.000000
  102       -2.742941   1.000000
  103       -2.703858   1.000000
  104       -2.624331   1.000000
  105       -2.435973   1.000000
  106       -2.387376   1.000000
  107       -2.371690   1.000000
  108       -2.337194   1.000000
  109       -2.216225   1.000000
  110       -2.121835   1.000000
  111       -2.098585   1.000000
  112       -2.081523   1.000000
  113       -1.988757   1.000000
  114       -1.982524   1.000000
  115       -1.895558   1.000000
  116       -1.782684   1.000000
  117       -1.728570   1.000000
  118       -1.659101   1.000000
  119       -1.579750   1.000000
  120       -1.539587   1.000000
  121       -1.416983   1.000000
  122       -1.248480   1.000000
  123       -1.013977   1.000000
  124       -0.970794   1.000000
  125       -0.785563   1.000000
  126       -0.774370   1.000000
  127       -0.713610   1.000000
  128       -0.641481   1.000000
  129       -0.454108   1.000000
  130       -0.402721   1.000000
  131       -0.371654   1.000000
  132       -0.175395   1.000000
  133       -0.122861   1.000000
  134       -0.107462   1.000000
  135        0.017080   1.000000
  136        0.139651   1.000000
  137        0.191269   1.000005
  138        0.245951   1.000146
  139        0.289780   1.001263
  140        0.352765   1.012566
  141        0.436698   1.026252
  142        0.472744   0.941490
  143        0.547574   0.417882
  144        0.624878  -0.005969
  145        0.634423  -0.021235
  146        0.637953  -0.025266
  147        0.706672  -0.019050
  148        0.731047  -0.009888
  149        0.758886  -0.003819
  150        0.846326  -0.000058
  151        0.865796  -0.000018
  152        1.056612  -0.000000
  153        1.090899  -0.000000
  154        1.114630  -0.000000
  155        1.189837  -0.000000
  156        1.219967  -0.000000
  157        1.297032  -0.000000
  158        1.352930  -0.000000
  159        1.361243  -0.000000
  160        1.383648  -0.000000
  161        1.439159  -0.000000
  162        1.459359  -0.000000
  163        1.535095  -0.000000
  164        1.598703  -0.000000
  165        1.610475  -0.000000
  166        1.619229  -0.000000
  167        1.680710  -0.000000
  168        1.733783  -0.000000
  169        1.766080  -0.000000
  170        1.771641  -0.000000
  171        1.775780  -0.000000
  172        1.799166  -0.000000
  173        1.815705  -0.000000
  174        1.828606  -0.000000
  175        1.878524  -0.000000
  176        1.888119  -0.000000
  177        1.957912  -0.000000
  178        1.970597  -0.000000
  179        2.074564  -0.000000
  180        2.083676  -0.000000
  181        2.091839  -0.000000
  182        2.254260  -0.000000
  183        2.269041  -0.000000
  184        2.285531  -0.000000

  0.2000000E+00  0.3742002E-15  0.1262379E-14  0.4444444E-01
    1      -13.856194   1.000000
    2      -13.149952   1.000000
    3      -12.654797   1.000000
    4      -12.264028   1.000000
    5      -11.992384   1.000000
    6      -11.714997   1.000000
    7      -11.563419   1.000000
    8      -11.266403   1.000000
    9      -11.213280   1.000000
   10      -11.163062   1.000000
   11      -11.151235   1.000000
   12      -11.068350   1.000000
   13      -10.892858   1.000000
   14      -10.729528   1.000000
   15      -10.564962   1.000000
   16      -10.522624   1.000000
   17      -10.465706   1.000000
   18       -9.886352   1.000000
   19       -9.792908   1.000000
   20       -9.742954   1.000000
   21       -9.516986   1.000000
   22       -9.438318   1.000000
   23       -9.434247   1.000000
   24       -9.405806   1.000000
   25       -9.075158   1.000000
   26       -8.965137   1.000000
   27       -8.538049   1.000000
   28       -8.375292   1.000000
   29       -8.254540   1.000000
   30       -8.195344   1.000000
   31       -8.132082   1.000000
   32       -8.070259   1.000000
   33       -7.596619   1.000000
   34       -7.490916   1.000000
   35       -7.459214   1.000000
   36       -7.349152   1.000000
   37       -7.300438   1.000000
   38       -7.163550   1.000000
   39       -7.070478   1.000000
   40       -6.868646   1.000000
   41       -6.810867   1.000000
   42       -6.766544   1.000000
   43       -6.680664   1.000000
   44       -6.659787   1.000000
   45       -6.629043   1.000000
   46       -6.421802   1.000000
   47       -6.201487   1.000000
   48       -6.152924   1.000000
   49       -6.055665   1.000000
   50       -6.047753   1.000000
   51       -5.917330   1.000000
   52       -5.831509   1.000000
   53       -5.759336   1.000000
   54       -5.688161   1.000000
   55       -5.638630   1.000000
   56       -5.583173   1.000000
   57       -5.491842   1.000000
   58       -5.454179   1.000000
   59       -5.440357   1.000000
   60       -5.347419   1.000000
   61       -5.264203   1.000000
   62       -5.158227   1.000000
   63       -5.128852   1.000000
   64       -5.093159   1.000000
   65       -4.994543   1.000000
   66       -4.746545   1.000000
   67       -4.708808   1.000000
   68       -4.652799   1.000000
   69       -4.599311   1.000000
   70       -4.573030   1.000000
   71       -4.505137   1.000000
   72       -4.407927   1.000000
   73       -4.314310   1.000000
   74       -4.279217   1.000000
   75       -4.255045   1.000000
   76       -4.190636   1.000000
   77       -4.142591   1.000000
   78       -4.102461   1.000000
   79       -4.085087   1.000000
   80       -4.037115   1.000000
   81       -3.919642   1.000000
   82       -3.916317   1.000000
   83       -3.904836   1.000000
   84       -3.861768   1.000000
   85       -3.832185   1.000000
   86       -3.790410   1.000000
   87       -3.685576   1.000000
   88       -3.583202   1.000000
   89       -3.555391   1.000000
   90       -3.546891   1.000000
   91       -3.473282   1.000000
   92       -3.468398   1.000000
   93       -3.451034   1.000000
   94       -3.394701   1.000000
   95       -3.340495   1.000000
   96       -3.142576   1.000000
   97       -3.099545   1.000000
   98       -3.055991   1.000000
   99       -2.990944   1.000000
  100       -2.903461   1.000000
  101       -2.783959   1.000000
  102       -2.727962   1.000000
  103       -2.717265   1.000000
  104       -2.660826   1.000000
  105       -2.460576   1.000000
  106       -2.429513   1.000000
  107       -2.241075   1.000000
  108       -2.227605   1.000000
  109       -2.186714   1.000000
  110       -2.155668   1.000000
  111       -2.073427   1.000000
  112       -1.988266   1.000000
  113       -1.972048   1.000000
  114       -1.905356   1.000000
  115       -1.770056   1.000000
  116       -1.754733   1.000000
  117       -1.730424   1.000000
  118       -1.705717   1.000000
  119       -1.600253   1.000000
  120       -1.425881   1.000000
  121       -1.333989   1.000000
  122       -1.221062   1.000000
  123       -1.134340   1.000000
  124       -1.015679   1.000000
  125       -0.892902   1.000000
  126       -0.820715   1.000000
  127       -0.784933   1.000000
  128       -0.546280   1.000000
  129       -0.536405   1.000000
  130       -0.504501   1.000000
  131       -0.410249   1.000000
  132       -0.388264   1.000000
  133       -0.248745   1.000000
  134       -0.160526   1.000000
  135       -0.047134   1.000000
  136        0.012418   1.000000
  137        0.165970   1.000001
  138        0.259410   1.000297
  139        0.368658   1.018914
  140        0.382285   1.025132
  141        0.527614   0.585863
  142        0.536021   0.515213
  143        0.562272   0.299767
  144        0.583582   0.154055
  145        0.679718  -0.031057
  146        0.693208  -0.025199
  147        0.713177  -0.016278
  148        0.723592  -0.012313
  149        0.811410  -0.000379
  150        0.818490  -0.000264
  151        0.925809  -0.000000
  152        1.129297  -0.000000
  153        1.158266  -0.000000
  154        1.224435  -0.000000
  155        1.243018  -0.000000
  156        1.278933  -0.000000
  157        1.292182  -0.000000
  158        1.320526  -0.000000
  159        1.380035  -0.000000
  160        1.443456  -0.000000
  161        1.488755  -0.000000
  162        1.515258  -0.000000
  163        1.542399  -0.000000
  164        1.565034  -0.000000
  165        1.609465  -0.000000
  166        1.630344  -0.000000
  167        1.688620  -0.000000
  168        1.730980  -0.000000
  169        1.753887  -0.000000
  170        1.776471  -0.000000
  171        1.815580  -0.000000
  172        1.831939  -0.000000
  173        1.855190  -0.000000
  174        1.883824  -0.000000
  175        1.900787  -0.000000
  176        1.971738  -0.000000
  177        1.978953  -0.000000
  178        1.994864  -0.000000
  179        2.061718  -0.000000
  180        2.101816  -0.000000
  181        2.114640  -0.000000
  182        2.131734  -0.000000
  183        2.219342  -0.000000
  184        2.227006  -0.000000

  0.4000000E+00  0.3742002E-15  0.1262379E-14  0.4444444E-01
    1      -13.711701   1.000000
    2      -13.474352   1.000000
    3      -12.520384   1.000000
    4      -12.298464   1.000000
    5      -11.724151   1.000000
    6      -11.684161   1.000000
    7      -11.632239   1.000000
    8      -11.206098   1.000000
    9      -11.197634   1.000000
   10      -11.139289   1.000000
   11      -11.042023   1.000000
   12      -11.022412   1.000000
   13      -10.878145   1.000000
   14      -10.856391   1.000000
   15      -10.761866   1.000000
   16      -10.615534   1.000000
   17      -10.602438   1.000000
   18      -10.055315   1.000000
   19       -9.827718   1.000000
   20       -9.763051   1.000000
   21       -9.442157   1.000000
   22       -9.437721   1.000000
   23       -9.390298   1.000000
   24       -9.373377   1.000000
   25       -9.107674   1.000000
   26       -8.802525   1.000000
   27       -8.370374   1.000000
   28       -8.273509   1.000000
   29       -8.053033   1.000000
   30       -7.981554   1.000000
   31       -7.972217   1.000000
   32       -7.891740   1.000000
   33       -7.873511   1.000000
   34       -7.702433   1.000000
   35       -7.662629   1.000000
   36       -7.564904   1.000000
   37       -7.428858   1.000000
   38       -7.337390   1.000000
   39       -7.291156   1.000000
   40       -6.997620   1.000000
   41       -6.779388   1.000000
   42       -6.745054   1.000000
   43       -6.658729   1.000000
   44       -6.540098   1.000000
   45       -6.494613   1.000000
   46       -6.339181   1.000000
   47       -6.233371   1.000000
   48       -6.072948   1.000000
   49       -5.989742   1.000000
   50       -5.971107   1.000000
   51       -5.937634   1.000000
   52       -5.839385   1.000000
   53       -5.712066   1.000000
   54       -5.697408   1.000000
   55       -5.640708   1.000000
   56       -5.608149   1.000000
   57       -5.560184   1.000000
   58       -5.452875   1.000000
   59       -5.343548   1.000000
   60       -5.281540   1.000000
   61       -5.192099   1.000000
   62       -5.150654   1.000000
   63       -5.122438   1.000000
   64       -4.953222   1.000000
   65       -4.906782   1.000000
   66       -4.892947   1.000000
   67       -4.802574   1.000000
   68       -4.719215   1.000000
   69       -4.616299   1.000000
   70       -4.530785   1.000000
   71       -4.501724   1.000000
   72       -4.464613   1.000000
   73       -4.352919   1.000000
   74       -4.234734   1.000000
   75       -4.192795   1.000000
   76       -4.169241   1.000000
   77       -4.124604   1.000000
   78       -4.119238   1.000000
   79       -4.088388   1.000000
   80       -4.057210   1.000000
   81       -3.949540   1.000000
   82       -3.926268   1.000000
   83       -3.872851   1.000000
   84       -3.810531   1.000000
   85       -3.764205   1.000000
   86       -3.747040   1.000000
   87       -3.733168   1.000000
   88       -3.632137   1.000000
   89       -3.552950   1.000000
   90       -3.510360   1.000000
   91       -3.497387   1.000000
   92       -3.469881   1.000000
   93       -3.363536   1.000000
   94       -3.354814   1.000000
   95       -3.282590   1.000000
   96       -3.230630   1.000000
   97       -3.208871   1.000000
   98       -3.168248   1.000000
   99       -3.148654   1.000000
  100       -3.065466   1.000000
  101       -2.929806   1.000000
  102       -2.848263   1.000000
  103       -2.737433   1.000000
  104       -2.540428   1.000000
  105       -2.445449   1.000000
  106       -2.346835   1.000000
  107       -2.242056   1.000000
  108       -2.206672   1.000000
  109       -2.121406   1.000000
  110       -1.956221   1.000000
  111       -1.900481   1.000000
  112       -1.885243   1.000000
  113       -1.850911   1.000000
  114       -1.808750   1.000000
  115       -1.770178   1.000000
  116       -1.753351   1.000000
  117       -1.730000   1.000000
  118       -1.693212   1.000000
  119       -1.424734   1.000000
  120       -1.306805   1.000000
  121       -1.283994   1.000000
  122       -1.203231   1.000000
  123       -1.099968   1.000000
  124       -1.094123   1.000000
  125       -1.055522   1.000000
  126       -0.976055   1.000000
  127       -0.927626   1.000000
  128       -0.835536   1.000000
  129       -0.811595   1.000000
  130       -0.628719   1.000000
  131       -0.454885   1.000000
  132       -0.437233   1.000000
  133       -0.395593   1.000000
  134       -0.266664   1.000000
  135        0.021880   1.000000
  136        0.052125   1.000000
  137        0.201415   1.000011
  138        0.222390   1.000038
  139        0.249168   1.000174
  140        0.319459   1.004226
  141        0.440030   1.022678
  142        0.469973   0.952130
  143        0.608483   0.037831
  144        0.686999  -0.028016
  145        0.716971  -0.014760
  146        0.729896  -0.010240
  147        0.751279  -0.005053
  148        0.828782  -0.000153
  149        0.899095  -0.000002
  150        0.918047  -0.000001
  151        1.012064  -0.000000
  152        1.174916  -0.000000
  153        1.204319  -0.000000
  154        1.269091  -0.000000
  155        1.315949  -0.000000
  156        1.368192  -0.000000
  157        1.388668  -0.000000
  158        1.433588  -0.000000
  159        1.437568  -0.000000
  160        1.496717  -0.000000
  161        1.518654  -0.000000
  162        1.573746  -0.000000
  163        1.584955  -0.000000
  164        1.649745  -0.000000
  165        1.674597  -0.000000
  166        1.682289  -0.000000
  167        1.699757  -0.000000
  168        1.712054  -0.000000
  169        1.764930  -0.000000
  170        1.781270  -0.000000
  171        1.830010  -0.000000
  172        1.845743  -0.000000
  173        1.889343  -0.000000
  174        1.897439  -0.000000
  175        1.943117  -0.000000
  176        1.969277  -0.000000
  177        1.994243  -0.000000
  178        2.015090  -0.000000
  179        2.018458  -0.000000
  180        2.045548  -0.000000
  181        2.091993  -0.000000
  182        2.136080  -0.000000
  183        2.171851  -0.000000
  184        2.195946  -0.000000

  0.3742002E-15  0.1111111E+00  0.1262379E-14  0.4444444E-01
    1      -13.857803   1.000000
    2      -12.737864   1.000000
    3      -12.675593   1.000000
    4      -12.659444   1.000000
    5      -11.832075   1.000000
    6      -11.611016   1.000000
    7      -11.555241   1.000000
    8      -11.541987   1.000000
    9      -11.372721   1.000000
   10      -11.261301   1.000000
   11      -11.172777   1.000000
   12      -11.048483   1.000000
   13      -10.970855   1.000000
   14      -10.638005   1.000000
   15      -10.426252   1.000000
   16      -10.278157   1.000000
   17      -10.099949   1.000000
   18      -10.039376   1.000000
   19       -9.918679   1.000000
   20       -9.728981   1.000000
   21       -9.627509   1.000000
   22       -9.467715   1.000000
   23       -9.446188   1.000000
   24       -9.427139   1.000000
   25       -8.877178   1.000000
   26       -8.821800   1.000000
   27       -8.812559   1.000000
   28       -8.625579   1.000000
   29       -8.429773   1.000000
   30       -8.298117   1.000000
   31       -7.976907   1.000000
   32       -7.866906   1.000000
   33       -7.789565   1.000000
   34       -7.411295   1.000000
   35       -7.362907   1.000000
   36       -7.353497   1.000000
   37       -7.310337   1.000000
   38       -7.049221   1.000000
   39       -6.892929   1.000000
   40       -6.870609   1.000000
   41       -6.812832   1.000000
   42       -6.660954   1.000000
   43       -6.642491   1.000000
   44       -6.630614   1.000000
   45       -6.559651   1.000000
   46       -6.530084   1.000000
   47       -6.374606   1.000000
   48       -6.137889   1.000000
   49       -6.123145   1.000000
   50       -6.049767   1.000000
   51       -5.909659   1.000000
   52       -5.858706   1.000000
   53       -5.789108   1.000000
   54       -5.717321   1.000000
   55       -5.664648   1.000000
   56       -5.572470   1.000000
   57       -5.559128   1.000000
   58       -5.461104   1.000000
   59       -5.369669   1.000000
   60       -5.276502   1.000000
   61       -5.256438   1.000000
   62       -5.154886   1.000000
   63       -5.083942   1.000000
   64       -5.011473   1.000000
   65       -4.941463   1.000000
   66       -4.758852   1.000000
   67       -4.656479   1.000000
   68       -4.637354   1.000000
   69       -4.559024   1.000000
   70       -4.541884   1.000000
   71       -4.489353   1.000000
   72       -4.420878   1.000000
   73       -4.369140   1.000000
   74       -4.356236   1.000000
   75       -4.306030   1.000000
   76       -4.234256   1.000000
   77       -4.136577   1.000000
   78       -4.106105   1.000000
   79       -4.063061   1.000000
   80       -4.036951   1.000000
   81       -4.018585   1.000000
   82       -3.972254   1.000000
   83       -3.964696   1.000000
   84       -3.955780   1.000000
   85       -3.891557   1.000000
   86       -3.740483   1.000000
   87       -3.666659   1.000000
   88       -3.665810   1.000000
   89       -3.638498   1.000000
   90       -3.569805   1.000000
   91       -3.530457   1.000000
   92       -3.507550   1.000000
   93       -3.450181   1.000000
   94       -3.367343   1.000000
   95       -3.255766   1.000000
   96       -3.213171   1.000000
   97       -2.968586   1.000000
   98       -2.916511   1.000000
   99       -2.878246   1.000000
  100       -2.758873   1.000000
  101       -2.737748   1.000000
  102       -2.700521   1.000000
  103       -2.697693   1.000000
  104       -2.641755   1.000000
  105       -2.501989   1.000000
  106       -2.493838   1.000000
  107       -2.362624   1.000000
  108       -2.294743   1.000000
  109       -2.231218   1.000000
  110       -2.186971   1.000000
  111       -2.119245   1.000000
  112       -2.095870   1.000000
  113       -2.014135   1.000000
  114       -2.005290   1.000000
  115       -1.910703   1.000000
  116       -1.818408   1.000000
  117       -1.746397   1.000000
  118       -1.577592   1.000000
  119       -1.528625   1.000000
  120       -1.505297   1.000000
  121       -1.367755   1.000000
  122       -1.147609   1.000000
  123       -1.063050   1.000000
  124       -0.944807   1.000000
  125       -0.880367   1.000000
  126       -0.804237   1.000000
  127       -0.692103   1.000000
  128       -0.682028   1.000000
  129       -0.628205   1.000000
  130       -0.457549   1.000000
  131       -0.327679   1.000000
  132       -0.262102   1.000000
  133       -0.190661   1.000000
  134       -0.037729   1.000000
  135        0.040403   1.000000
  136        0.100355   1.000000
  137        0.120649   1.000000
  138        0.203826   1.000012
  139        0.234588   1.000078
  140        0.309973   1.002940
  141        0.422246   1.034653
  142        0.451006   1.005483
  143        0.588260   0.127490
  144        0.618477   0.008289
  145        0.623267  -0.002701
  146        0.711307  -0.017054
  147        0.724041  -0.012157
  148        0.776421  -0.001898
  149        0.809794  -0.000410
  150        0.900149  -0.000002
  151        0.999836  -0.000000
  152        1.067596  -0.000000
  153        1.132401  -0.000000
  154        1.154921  -0.000000
  155        1.230734  -0.000000
  156        1.249624  -0.000000
  157        1.275898  -0.000000
  158        1.300863  -0.000000
  159        1.437491  -0.000000
  160        1.464748  -0.000000
  161        1.474864  -0.000000
  162        1.478297  -0.000000
  163        1.489619  -0.000000
  164        1.520929  -0.000000
  165        1.526654  -0.000000
  166        1.644609  -0.000000
  167        1.675570  -0.000000
  168        1.699575  -0.000000
  169        1.730839  -0.000000
  170        1.779003  -0.000000
  171        1.793182  -0.000000
  172        1.826217  -0.000000
  173        1.832702  -0.000000
  174        1.870666  -0.000000
  175        1.911220  -0.000000
  176        1.918099  -0.000000
  177        1.925712  -0.000000
  178        1.941792  -0.000000
  179        1.989608  -0.000000
  180        2.042328  -0.000000
  181        2.063916  -0.000000
  182        2.092706  -0.000000
  183        2.209236  -0.000000
  184        2.260560  -0.000000

  0.2000000E+00  0.1111111E+00  0.1262379E-14  0.4444444E-01
    1      -13.809593   1.000000
    2      -13.109728   1.000000
    3      -12.615052   1.000000
    4      -12.232313   1.000000
    5      -11.962399   1.000000
    6      -11.815192   1.000000
    7      -11.617423   1.000000
    8      -11.288583   1.000000
    9      -11.255652   1.000000
   10      -11.139013   1.000000
   11      -11.126460   1.000000
   12      -11.084383   1.000000
   13      -10.892542   1.000000
   14      -10.708135   1.000000
   15      -10.546648   1.000000
   16      -10.501204   1.000000
   17      -10.475240   1.000000
   18       -9.893425   1.000000
   19       -9.775207   1.000000
   20       -9.736707   1.000000
   21       -9.513597   1.000000
   22       -9.464262   1.000000
   23       -9.449515   1.000000
   24       -9.396926   1.000000
   25       -9.082917   1.000000
   26       -8.963726   1.000000
   27       -8.535263   1.000000
   28       -8.383243   1.000000
   29       -8.248533   1.000000
   30       -8.201505   1.000000
   31       -8.137427   1.000000
   32       -7.914038   1.000000
   33       -7.678054   1.000000
   34       -7.580106   1.000000
   35       -7.441559   1.000000
   36       -7.426688   1.000000
   37       -7.277005   1.000000
   38       -7.104252   1.000000
   39       -7.063540   1.000000
   40       -6.884733   1.000000
   41       -6.815662   1.000000
   42       -6.794904   1.000000
   43       -6.669490   1.000000
   44       -6.654054   1.000000
   45       -6.605269   1.000000
   46       -6.572145   1.000000
   47       -6.259496   1.000000
   48       -6.098561   1.000000
   49       -5.966353   1.000000
   50       -5.941608   1.000000
   51       -5.896906   1.000000
   52       -5.845561   1.000000
   53       -5.770432   1.000000
   54       -5.754947   1.000000
   55       -5.596417   1.000000
   56       -5.583691   1.000000
   57       -5.469783   1.000000
   58       -5.454447   1.000000
   59       -5.367569   1.000000
   60       -5.263448   1.000000
   61       -5.206087   1.000000
   62       -5.126118   1.000000
   63       -5.103712   1.000000
   64       -5.061052   1.000000
   65       -5.019246   1.000000
   66       -4.767696   1.000000
   67       -4.696003   1.000000
   68       -4.629357   1.000000
   69       -4.552955   1.000000
   70       -4.531450   1.000000
   71       -4.491959   1.000000
   72       -4.440932   1.000000
   73       -4.338647   1.000000
   74       -4.292028   1.000000
   75       -4.259488   1.000000
   76       -4.196072   1.000000
   77       -4.129774   1.000000
   78       -4.122034   1.000000
   79       -4.097567   1.000000
   80       -4.090838   1.000000
   81       -4.038840   1.000000
   82       -3.994865   1.000000
   83       -3.981897   1.000000
   84       -3.882448   1.000000
   85       -3.816720   1.000000
   86       -3.779912   1.000000
   87       -3.710231   1.000000
   88       -3.626127   1.000000
   89       -3.604192   1.000000
   90       -3.580441   1.000000
   91       -3.531998   1.000000
   92       -3.489582   1.000000
   93       -3.453142   1.000000
   94       -3.400223   1.000000
   95       -3.304663   1.000000
   96       -3.157557   1.000000
   97       -3.060506   1.000000
   98       -2.982389   1.000000
   99       -2.899563   1.000000
  100       -2.885120   1.000000
  101       -2.797403   1.000000
  102       -2.754429   1.000000
  103       -2.742130   1.000000
  104       -2.653010   1.000000
  105       -2.504058   1.000000
  106       -2.458275   1.000000
  107       -2.341648   1.000000
  108       -2.260767   1.000000
  109       -2.208040   1.000000
  110       -2.105207   1.000000
  111       -2.023304   1.000000
  112       -2.010983   1.000000
  113       -1.955479   1.000000
  114       -1.922071   1.000000
  115       -1.861260   1.000000
  116       -1.798369   1.000000
  117       -1.746798   1.000000
  118       -1.682350   1.000000
  119       -1.592893   1.000000
  120       -1.369324   1.000000
  121       -1.298315   1.000000
  122       -1.147426   1.000000
  123       -1.100862   1.000000
  124       -1.042736   1.000000
  125       -0.971330   1.000000
  126       -0.906048   1.000000
  127       -0.764003   1.000000
  128       -0.680090   1.000000
  129       -0.585320   1.000000
  130       -0.537067   1.000000
  131       -0.404019   1.000000
  132       -0.272973   1.000000
  133       -0.201425   1.000000
  134       -0.039773   1.000000
  135       -0.008712   1.000000
  136        0.042537   1.000000
  137        0.076894   1.000000
  138        0.113114   1.000000
  139        0.268130   1.000460
  140        0.365975   1.017751
  141        0.479020   0.914554
  142        0.491190   0.851025
  143        0.505483   0.758439
  144        0.633783  -0.020416
  145        0.648142  -0.032790
  146        0.725008  -0.011825
  147        0.801423  -0.000617
  148        0.844967  -0.000062
  149        0.860972  -0.000024
  150        0.877361  -0.000009
  151        0.957257  -0.000000
  152        1.121727  -0.000000
  153        1.182587  -0.000000
  154        1.206324  -0.000000
  155        1.260190  -0.000000
  156        1.300071  -0.000000
  157        1.352963  -0.000000