 running on   72 total cores
 distrk:  each k-point on   72 cores,    1 groups
 distr:  one band on    9 cores,    8 groups
 using from now: INCAR     
 vasp.5.4.4.18Apr17-6-g9f103f2a35 (build Dec  7 2020 12:43:57) complex           
 POSCAR found type information on POSCAR  Mo V  B  H 
 POSCAR found :  4 types and      76 ions
 scaLAPACK will be used
 LDA part: xc-table for Pade appr. of Perdew
 POSCAR, INCAR and KPOINTS ok, starting setup
 resort distribution
 resort distribution
 resort distribution
 resort distribution
 resort distribution
 resort distribution
 resort distribution
 resort distribution
 resort distribution
 resort distribution
 resort distribution
 resort distribution
 resort distribution
 resort distribution
 resort distribution
 resort distribution
 resort distribution
 resort distribution
 resort distribution
 resort distribution
 resort distribution
 resort distribution
 resort distribution
 resort distribution
 resort distribution
 resort distribution
 resort distribution
 resort distribution
 resort distribution
 resort distribution
 resort distribution
 resort distribution
 resort distribution
 resort distribution
 resort distribution
 resort distribution
 resort distribution
 resort distribution
 resort distribution
 resort distribution
 resort distribution
 resort distribution
 resort distribution
 resort distribution
 resort distribution
 resort distribution
 resort distribution
 resort distribution
 resort distribution
 resort distribution
 resort distribution
 resort distribution
 resort distribution
 resort distribution
 resort distribution
 resort distribution
 resort distribution
 resort distribution
 resort distribution
 resort distribution
 resort distribution
 resort distribution
 resort distribution
 resort distribution
 resort distribution
 resort distribution
 resort distribution
 resort distribution
 resort distribution
 resort distribution
 resort distribution
 resort distribution
 FFT: planning ...
 WAVECAR not read
 augmentation electrons   286.03099166084633     
 soft         electrons   0.0000000000000000     
 augmentation electrons   286.03099166084633     
 soft         electrons   0.0000000000000000     
 augmentation electrons   286.03099166084633     
 soft         electrons   0.0000000000000000     
 augmentation electrons   286.03099166084633     
 soft         electrons   0.0000000000000000     
 augmentation electrons   286.03099166084633     
 soft         electrons   0.0000000000000000     
 augmentation electrons   286.03099166084633     
 soft         electrons   0.0000000000000000     
 augmentation electrons   286.03099166084633     
 soft         electrons   0.0000000000000000     
 augmentation electrons   286.03099166084633     
 soft         electrons   0.0000000000000000     
 augmentation electrons   286.03099166084633     
 soft         electrons   0.0000000000000000     
 augmentation electrons   286.03099166084633     
 soft         electrons   0.0000000000000000     
 augmentation electrons   286.03099166084633     
 soft         electrons   0.0000000000000000     
 augmentation electrons   286.03099166084633     
 soft         electrons   0.0000000000000000     
 augmentation electrons   286.03099166084633     
 soft         electrons   0.0000000000000000     
 augmentation electrons   286.03099166084633     
 soft         electrons   0.0000000000000000     
 augmentation electrons   286.03099166084633     
 soft         electrons   0.0000000000000000     
 augmentation electrons   286.03099166084633     
 soft         electrons   0.0000000000000000     
 augmentation electrons   286.03099166084633     
 soft         electrons   0.0000000000000000     
 augmentation electrons   286.03099166084633     
 soft         electrons   0.0000000000000000     
 augmentation electrons   286.03099166084633     
 soft         electrons   0.0000000000000000     
 augmentation electrons   286.03099166084633     
 soft         electrons   0.0000000000000000     
 augmentation electrons   286.03099166084633     
 soft         electrons   0.0000000000000000     
 augmentation electrons   286.03099166084633     
 soft         electrons   0.0000000000000000     
 augmentation electrons   286.03099166084633     
 soft         electrons   0.0000000000000000     
 augmentation electrons   286.03099166084633     
 soft         electrons   0.0000000000000000     
 augmentation electrons   286.03099166084633     
 soft         electrons   0.0000000000000000     
 augmentation electrons   286.03099166084633     
 soft         electrons   0.0000000000000000     
 augmentation electrons   286.03099166084633     
 soft         electrons   0.0000000000000000     
 augmentation electrons   286.03099166084633     
 soft         electrons   0.0000000000000000     
 augmentation electrons   286.03099166084633     
 soft         electrons   0.0000000000000000     
 augmentation electrons   286.03099166084633     
 soft         electrons   0.0000000000000000     
 augmentation electrons   286.03099166084633     
 soft         electrons   0.0000000000000000     
 augmentation electrons   286.03099166084633     
 soft         electrons   0.0000000000000000     
 augmentation electrons   286.03099166084633     
 soft         electrons   0.0000000000000000     
 augmentation electrons   286.03099166084633     
 soft         electrons   0.0000000000000000     
 augmentation electrons   286.03099166084633     
 soft         electrons   0.0000000000000000     
 augmentation electrons   286.03099166084633     
 soft         electrons   0.0000000000000000     
 augmentation electrons   286.03099166084633     
 soft         electrons   0.0000000000000000     
 augmentation electrons   286.03099166084633     
 soft         electrons   0.0000000000000000     
 augmentation electrons   286.03099166084633     
 soft         electrons   0.0000000000000000     
 augmentation electrons   286.03099166084633     
 soft         electrons   0.0000000000000000     
 augmentation electrons   286.03099166084633     
 soft         electrons   0.0000000000000000     
 augmentation electrons   286.03099166084633     
 soft         electrons   0.0000000000000000     
 augmentation electrons   286.03099166084633     
 soft         electrons   0.0000000000000000     
 augmentation electrons   286.03099166084633     
 soft         electrons   0.0000000000000000     
 augmentation electrons   286.03099166084633     
 soft         electrons   0.0000000000000000     
 augmentation electrons   286.03099166084633     
 soft         electrons   0.0000000000000000     
 augmentation electrons   286.03099166084633     
 soft         electrons   0.0000000000000000     
 augmentation electrons   286.03099166084633     
 soft         electrons   0.0000000000000000     
 augmentation electrons   286.03099166084633     
 soft         electrons   0.0000000000000000     
 augmentation electrons   286.03099166084633     
 soft         electrons   0.0000000000000000     
 augmentation electrons   286.03099166084633     
 soft         electrons   0.0000000000000000     
 augmentation electrons   286.03099166084633     
 soft         electrons   0.0000000000000000     
 augmentation electrons   286.03099166084633     
 soft         electrons   0.0000000000000000     
 augmentation electrons   286.03099166084633     
 soft         electrons   0.0000000000000000     
 augmentation electrons   286.03099166084633     
 soft         electrons   0.0000000000000000     
 augmentation electrons   286.03099166084633     
 soft         electrons   0.0000000000000000     
 augmentation electrons   286.03099166084633     
 soft         electrons   0.0000000000000000     
 augmentation electrons   286.03099166084633     
 soft         electrons   0.0000000000000000     
 augmentation electrons   286.03099166084633     
 soft         electrons   0.0000000000000000     
 augmentation electrons   286.03099166084633     
 soft         electrons   0.0000000000000000     
 augmentation electrons   286.03099166084633     
 soft         electrons   0.0000000000000000     
 augmentation electrons   286.03099166084633     
 soft         electrons   0.0000000000000000     
 augmentation electrons   286.03099166084633     
 soft         electrons   0.0000000000000000     
 augmentation electrons   286.03099166084633     
 soft         electrons   0.0000000000000000     
 augmentation electrons   286.03099166084633     
 soft         electrons   0.0000000000000000     
 augmentation electrons   286.03099166084633     
 soft         electrons   0.0000000000000000     
 augmentation electrons   286.03099166084633     
 soft         electrons   0.0000000000000000     
 augmentation electrons   286.03099166084633     
 soft         electrons   0.0000000000000000     
 augmentation electrons   286.03099166084633     
 soft         electrons   0.0000000000000000     
 augmentation electrons   286.03099166084633     
 soft         electrons   0.0000000000000000     
 augmentation electrons   286.03099166084633     
 soft         electrons   0.0000000000000000     
 augmentation electrons   286.03099166084633     
 soft         electrons   0.0000000000000000     
 total        electrons   286.03099166084633     
 total        electrons   286.03099166084633     
 total        electrons   286.03099166084633     
 total        electrons   286.03099166084633     
 total        electrons   286.03099166084633     
 total        electrons   286.03099166084633     
 total        electrons   286.03099166084633     
 total        electrons   286.03099166084633     
 total        electrons   286.03099166084633     
 total        electrons   286.03099166084633     
 total        electrons   286.03099166084633     
 total        electrons   286.03099166084633     
 total        electrons   286.03099166084633     
 total        electrons   286.03099166084633     
 total        electrons   286.03099166084633     
 total        electrons   286.03099166084633     
 total        electrons   286.03099166084633     
 total        electrons   286.03099166084633     
 total        electrons   286.03099166084633     
 total        electrons   286.03099166084633     
 total        electrons   286.03099166084633     
 total        electrons   286.03099166084633     
 total        electrons   286.03099166084633     
 total        electrons   286.03099166084633     
 total        electrons   286.03099166084633     
 total        electrons   286.03099166084633     
 total        electrons   286.03099166084633     
 total        electrons   286.03099166084633     
 total        electrons   286.03099166084633     
 total        electrons   286.03099166084633     
 total        electrons   286.03099166084633     
 total        electrons   286.03099166084633     
 total        electrons   286.03099166084633     
 total        electrons   286.03099166084633     
 total        electrons   286.03099166084633     
 total        electrons   286.03099166084633     
 total        electrons   286.03099166084633     
 total        electrons   286.03099166084633     
 total        electrons   286.03099166084633     
 total        electrons   286.03099166084633     
 total        electrons   286.03099166084633     
 total        electrons   286.03099166084633     
 total        electrons   286.03099166084633     
 total        electrons   286.03099166084633     
 total        electrons   286.03099166084633     
 total        electrons   286.03099166084633     
 total        electrons   286.03099166084633     
 total        electrons   286.03099166084633     
 total        electrons   286.03099166084633     
 total        electrons   286.03099166084633     
 total        electrons   286.03099166084633     
 total        electrons   286.03099166084633     
 total        electrons   286.03099166084633     
 total        electrons   286.03099166084633     
 total        electrons   286.03099166084633     
 total        electrons   286.03099166084633     
 total        electrons   286.03099166084633     
 total        electrons   286.03099166084633     
 total        electrons   286.03099166084633     
 total        electrons   286.03099166084633     
 total        electrons   286.03099166084633     
 total        electrons   286.03099166084633     
 total        electrons   286.03099166084633     
 total        electrons   286.03099166084633     
 total        electrons   286.03099166084633     
 total        electrons   286.03099166084633     
 total        electrons   286.03099166084633     
 total        electrons   286.03099166084633     
 total        electrons   286.03099166084633     
 total        electrons   286.03099166084633     
 total        electrons   286.03099166084633     
 total        electrons   286.03099166084633     
 augmentation electrons   997.07737191289675     
 soft         electrons   0.0000000000000000     
 augmentation electrons   997.07737191289675     
 soft         electrons   0.0000000000000000     
 augmentation electrons   997.07737191289675     
 soft         electrons   0.0000000000000000     
 augmentation electrons   997.07737191289675     
 soft         electrons   0.0000000000000000     
 augmentation electrons   997.07737191289675     
 soft         electrons   0.0000000000000000     
 augmentation electrons   997.07737191289675     
 soft         electrons   0.0000000000000000     
 augmentation electrons   997.07737191289675     
 soft         electrons   0.0000000000000000     
 augmentation electrons   997.07737191289675     
 soft         electrons   0.0000000000000000     
 augmentation electrons   997.07737191289675     
 soft         electrons   0.0000000000000000     
 augmentation electrons   997.07737191289675     
 soft         electrons   0.0000000000000000     
 augmentation electrons   997.07737191289675     
 soft         electrons   0.0000000000000000     
 augmentation electrons   997.07737191289675     
 soft         electrons   0.0000000000000000     
 augmentation electrons   997.07737191289675     
 soft         electrons   0.0000000000000000     
 augmentation electrons   997.07737191289675     
 soft         electrons   0.0000000000000000     
 augmentation electrons   997.07737191289675     
 soft         electrons   0.0000000000000000     
 augmentation electrons   997.07737191289675     
 soft         electrons   0.0000000000000000     
 augmentation electrons   997.07737191289675     
 soft         electrons   0.0000000000000000     
 augmentation electrons   997.07737191289675     
 soft         electrons   0.0000000000000000     
 augmentation electrons   997.07737191289675     
 soft         electrons   0.0000000000000000     
 augmentation electrons   997.07737191289675     
 soft         electrons   0.0000000000000000     
 augmentation electrons   997.07737191289675     
 soft         electrons   0.0000000000000000     
 augmentation electrons   997.07737191289675     
 soft         electrons   0.0000000000000000     
 augmentation electrons   997.07737191289675     
 soft         electrons   0.0000000000000000     
 augmentation electrons   997.07737191289675     
 soft         electrons   0.0000000000000000     
 augmentation electrons   997.07737191289675     
 soft         electrons   0.0000000000000000     
 augmentation electrons   997.07737191289675     
 soft         electrons   0.0000000000000000     
 augmentation electrons   997.07737191289675     
 soft         electrons   0.0000000000000000     
 augmentation electrons   997.07737191289675     
 soft         electrons   0.0000000000000000     
 augmentation electrons   997.07737191289675     
 soft         electrons   0.0000000000000000     
 augmentation electrons   997.07737191289675     
 soft         electrons   0.0000000000000000     
 augmentation electrons   997.07737191289675     
 soft         electrons   0.0000000000000000     
 augmentation electrons   997.07737191289675     
 soft         electrons   0.0000000000000000     
 augmentation electrons   997.07737191289675     
 soft         electrons   0.0000000000000000     
 augmentation electrons   997.07737191289675     
 soft         electrons   0.0000000000000000     
 augmentation electrons   997.07737191289675     
 soft         electrons   0.0000000000000000     
 augmentation electrons   997.07737191289675     
 soft         electrons   0.0000000000000000     
 augmentation electrons   997.07737191289675     
 soft         electrons   0.0000000000000000     
 augmentation electrons   997.07737191289675     
 soft         electrons   0.0000000000000000     
 augmentation electrons   997.07737191289675     
 soft         electrons   0.0000000000000000     
 augmentation electrons   997.07737191289675     
 soft         electrons   0.0000000000000000     
 augmentation electrons   997.07737191289675     
 soft         electrons   0.0000000000000000     
 augmentation electrons   997.07737191289675     
 soft         electrons   0.0000000000000000     
 augmentation electrons   997.07737191289675     
 soft         electrons   0.0000000000000000     
 augmentation electrons   997.07737191289675     
 soft         electrons   0.0000000000000000     
 augmentation electrons   997.07737191289675     
 soft         electrons   0.0000000000000000     
 augmentation electrons   997.07737191289675     
 soft         electrons   0.0000000000000000     
 augmentation electrons   997.07737191289675     
 soft         electrons   0.0000000000000000     
 augmentation electrons   997.07737191289675     
 soft         electrons   0.0000000000000000     
 augmentation electrons   997.07737191289675     
 soft         electrons   0.0000000000000000     
 augmentation electrons   997.07737191289675     
 soft         electrons   0.0000000000000000     
 augmentation electrons   997.07737191289675     
 soft         electrons   0.0000000000000000     
 augmentation electrons   997.07737191289675     
 soft         electrons   0.0000000000000000     
 augmentation electrons   997.07737191289675     
 soft         electrons   0.0000000000000000     
 augmentation electrons   997.07737191289675     
 soft         electrons   0.0000000000000000     
 augmentation electrons   997.07737191289675     
 soft         electrons   0.0000000000000000     
 augmentation electrons   997.07737191289675     
 soft         electrons   0.0000000000000000     
 augmentation electrons   997.07737191289675     
 soft         electrons   0.0000000000000000     
 augmentation electrons   997.07737191289675     
 soft         electrons   0.0000000000000000     
 augmentation electrons   997.07737191289675     
 soft         electrons   0.0000000000000000     
 augmentation electrons   997.07737191289675     
 soft         electrons   0.0000000000000000     
 augmentation electrons   997.07737191289675     
 soft         electrons   0.0000000000000000     
 augmentation electrons   997.07737191289675     
 soft         electrons   0.0000000000000000     
 augmentation electrons   997.07737191289675     
 soft         electrons   0.0000000000000000     
 augmentation electrons   997.07737191289675     
 soft         electrons   0.0000000000000000     
 augmentation electrons   997.07737191289675     
 soft         electrons   0.0000000000000000     
 augmentation electrons   997.07737191289675     
 soft         electrons   0.0000000000000000     
 augmentation electrons   997.07737191289675     
 soft         electrons   0.0000000000000000     
 augmentation electrons   997.07737191289675     
 soft         electrons   0.0000000000000000     
 augmentation electrons   997.07737191289675     
 soft         electrons   0.0000000000000000     
 augmentation electrons   997.07737191289675     
 soft         electrons   0.0000000000000000     
 augmentation electrons   997.07737191289675     
 soft         electrons   0.0000000000000000     
 augmentation electrons   997.07737191289675     
 soft         electrons   0.0000000000000000     
 total        electrons   997.07737191289675     
 total        electrons   997.07737191289675     
 total        electrons   997.07737191289675     
 total        electrons   997.07737191289675     
 total        electrons   997.07737191289675     
 total        electrons   997.07737191289675     
 total        electrons   997.07737191289675     
 total        electrons   997.07737191289675     
 total        electrons   997.07737191289675     
 total        electrons   997.07737191289675     
 total        electrons   997.07737191289675     
 total        electrons   997.07737191289675     
 total        electrons   997.07737191289675     
 total        electrons   997.07737191289675     
 total        electrons   997.07737191289675     
 total        electrons   997.07737191289675     
 total        electrons   997.07737191289675     
 total        electrons   997.07737191289675     
 total        electrons   997.07737191289675     
 total        electrons   997.07737191289675     
 total        electrons   997.07737191289675     
 total        electrons   997.07737191289675     
 total        electrons   997.07737191289675     
 total        electrons   997.07737191289675     
 total        electrons   997.07737191289675     
 total        electrons   997.07737191289675     
 total        electrons   997.07737191289675     
 total        electrons   997.07737191289675     
 total        electrons   997.07737191289675     
 total        electrons   997.07737191289675     
 total        electrons   997.07737191289675     
 total        electrons   997.07737191289675     
 total        electrons   997.07737191289675     
 total        electrons   997.07737191289675     
 total        electrons   997.07737191289675     
 total        electrons   997.07737191289675     
 total        electrons   997.07737191289675     
 total        electrons   997.07737191289675     
 total        electrons   997.07737191289675     
 total        electrons   997.07737191289675     
 total        electrons   997.07737191289675     
 total        electrons   997.07737191289675     
 total        electrons   997.07737191289675     
 total        electrons   997.07737191289675     
 total        electrons   997.07737191289675     
 total        electrons   997.07737191289675     
 total        electrons   997.07737191289675     
 total        electrons   997.07737191289675     
 total        electrons   997.07737191289675     
 total        electrons   997.07737191289675     
 total        electrons   997.07737191289675     
 total        electrons   997.07737191289675     
 total        electrons   997.07737191289675     
 total        electrons   997.07737191289675     
 total        electrons   997.07737191289675     
 total        electrons   997.07737191289675     
 total        electrons   997.07737191289675     
 total        electrons   997.07737191289675     
 total        electrons   997.07737191289675     
 total        electrons   997.07737191289675     
 total        electrons   997.07737191289675     
 total        electrons   997.07737191289675     
 total        electrons   997.07737191289675     
 total        electrons   997.07737191289675     
 total        electrons   997.07737191289675     
 total        electrons   997.07737191289675     
 total        electrons   997.07737191289675     
 total        electrons   997.07737191289675     
 total        electrons   997.07737191289675     
 total        electrons   997.07737191289675     
 total        electrons   997.07737191289675     
 total        electrons   997.07737191289675     
 entering main loop
       N       E                     dE             d eps       ncg     rms          rms(c)
DAV:   1     0.248331482383E+04    0.24833E+04   -0.10461E+05  8464   0.128E+03
DAV:   2    -0.222612593790E+03   -0.27059E+04   -0.25177E+04  9784   0.316E+02
DAV:   3    -0.662362849043E+03   -0.43975E+03   -0.41750E+03 11944   0.147E+02
DAV:   4    -0.700162460318E+03   -0.37800E+02   -0.35987E+02 13696   0.467E+01
DAV:   5    -0.702740154337E+03   -0.25777E+01   -0.24676E+01 14416   0.114E+01    0.148E+02
RMM:   6    -0.651427954757E+03    0.51312E+02   -0.11598E+03 11668   0.885E+01    0.723E+01
RMM:   7    -0.727789378239E+03   -0.76361E+02   -0.38168E+02 11637   0.365E+01    0.536E+01
RMM:   8    -0.617074883820E+03    0.11071E+03   -0.80413E+01 10337   0.267E+01    0.319E+01
RMM:   9    -0.621275548906E+03   -0.42007E+01   -0.46559E+01 10810   0.163E+01    0.303E+01
RMM:  10    -0.598989523596E+03    0.22286E+02   -0.19541E+01 10149   0.116E+01    0.186E+01
RMM:  11    -0.598877161301E+03    0.11236E+00   -0.44623E+00 10565   0.504E+00    0.166E+01
RMM:  12    -0.599089607328E+03   -0.21245E+00   -0.15186E+00 11436   0.188E+00    0.156E+01
RMM:  13    -0.598440898880E+03    0.64871E+00   -0.20347E+00  8610   0.450E+00    0.130E+01
RMM:  14    -0.598757655795E+03   -0.31676E+00   -0.89878E+00  8510   0.103E+01    0.102E+01
RMM:  15    -0.598092974388E+03    0.66468E+00   -0.24107E+00 10658   0.346E+00    0.628E+00
RMM:  16    -0.597842284210E+03    0.25069E+00   -0.70506E-01  9753   0.218E+00    0.479E+00
RMM:  17    -0.597676329604E+03    0.16595E+00   -0.51435E-01 10692   0.174E+00    0.275E+00
RMM:  18    -0.597619554460E+03    0.56775E-01   -0.60957E-01 11576   0.126E+00    0.144E+00
RMM:  19    -0.597619700838E+03   -0.14638E-03   -0.10623E-01 10467   0.763E-01    0.119E+00
RMM:  20    -0.597615702521E+03    0.39983E-02   -0.34463E-02  9861   0.433E-01    0.111E+00
RMM:  21    -0.597608611050E+03    0.70915E-02   -0.62733E-02  9631   0.740E-01    0.101E+00
RMM:  22    -0.597597816628E+03    0.10794E-01   -0.25815E-02 10386   0.409E-01    0.311E-01
RMM:  23    -0.597599182484E+03   -0.13659E-02   -0.14880E-02 11265   0.211E-01    0.292E-01
RMM:  24    -0.597599028927E+03    0.15356E-03   -0.29286E-03  9835   0.127E-01    0.115E-01
RMM:  25    -0.597600072944E+03   -0.10440E-02   -0.21546E-03 10669   0.977E-02    0.153E-01
RMM:  26    -0.597600839235E+03   -0.76629E-03   -0.10419E-03  8495   0.104E-01    0.732E-02
RMM:  27    -0.597601650572E+03   -0.81134E-03   -0.87306E-04 10554   0.329E-02    0.646E-02
RMM:  28    -0.597602469746E+03   -0.81917E-03   -0.74607E-04  8810   0.806E-02    0.116E-01
RMM:  29    -0.597602895269E+03   -0.42552E-03   -0.38402E-04  8885   0.619E-02    0.230E-02
RMM:  30    -0.597603039033E+03   -0.14376E-03   -0.29666E-04 11186   0.235E-02    0.349E-02
RMM:  31    -0.597603157483E+03   -0.11845E-03   -0.47754E-05  8494   0.129E-02    0.213E-02
RMM:  32    -0.597603219817E+03   -0.62334E-04   -0.53465E-05 10007   0.110E-02    0.107E-02
RMM:  33    -0.597603271345E+03   -0.51528E-04   -0.12448E-05  7142   0.782E-03    0.634E-03
RMM:  34    -0.597603438634E+03   -0.16729E-03   -0.15579E-05  7706   0.100E-02    0.140E-02
RMM:  35    -0.597603595271E+03   -0.15664E-03   -0.15792E-05  7731   0.544E-03    0.111E-02
RMM:  36    -0.597603642893E+03   -0.47622E-04   -0.51838E-06  6282   0.629E-03    0.773E-03
RMM:  37    -0.597603690454E+03   -0.47562E-04   -0.39228E-06  5970   0.309E-03    0.655E-03
RMM:  38    -0.597603717040E+03   -0.26586E-04   -0.26653E-06  5771   0.316E-03    0.396E-03
RMM:  39    -0.597603728439E+03   -0.11399E-04   -0.18106E-06  5545   0.236E-03    0.202E-03
RMM:  40    -0.597603730039E+03   -0.15996E-05   -0.55406E-07  4958   0.241E-03    0.592E-04
RMM:  41    -0.597603735073E+03   -0.50344E-05   -0.70722E-07  4817   0.160E-03    0.543E-04
RMM:  42    -0.597603736798E+03   -0.17248E-05   -0.33224E-07  4550   0.185E-03    0.558E-04
RMM:  43    -0.597603737112E+03   -0.31341E-06   -0.17288E-07  3684   0.108E-03
   1 F= -.59760374E+03 E0= -.59760666E+03  d E =-.597604E+03
 curvature:   0.00 expect dE= 0.000E+00 dE for cont linesearch  0.000E+00
 trial: gam= 0.00000 g(F)=  0.155E-02 g(S)=  0.000E+00 ort = 0.000E+00 (trialstep = 0.100E+01)
 search vector abs. value=  0.155E-02
 bond charge predicted
       N       E                     dE             d eps       ncg     rms          rms(c)
DAV:   1    -0.597605124037E+03   -0.13872E-02   -0.25469E-02  9632   0.337E-01    0.538E-02
RMM:   2    -0.597605137543E+03   -0.13506E-04   -0.45323E-04 10997   0.555E-02    0.413E-02
RMM:   3    -0.597605229381E+03   -0.91838E-04   -0.16645E-04 10953   0.307E-02    0.807E-02
RMM:   4    -0.597605152784E+03    0.76597E-04   -0.12092E-04 10163   0.303E-02    0.438E-02
RMM:   5    -0.597605132951E+03    0.19833E-04   -0.58878E-05  9812   0.222E-02    0.282E-02
RMM:   6    -0.597605122981E+03    0.99704E-05   -0.17608E-05  7971   0.136E-02    0.706E-03
RMM:   7    -0.597605123653E+03   -0.67209E-06   -0.99559E-06  7169   0.647E-03
   2 F= -.59760512E+03 E0= -.59760805E+03  d E =-.138654E-02
 ZBRENT: can't locate minimum, use default step
 trial-energy change:   -0.001387  1 .order   -0.001383   -0.001547   -0.001219
 step:   4.0000(harm=  4.7236)  dis= 0.01629  next Energy=  -597.607390 (dE=-0.365E-02)
 bond charge predicted
       N       E                     dE             d eps       ncg     rms          rms(c)
DAV:   1    -0.597607344059E+03   -0.22211E-02   -0.22946E-01  9224   0.101E+00    0.162E-01
RMM:   2    -0.597607430760E+03   -0.86701E-04   -0.38509E-03 10667   0.170E-01    0.118E-01
RMM:   3    -0.597608258283E+03   -0.82752E-03   -0.16019E-03 11283   0.901E-02    0.233E-01
RMM:   4    -0.597607625748E+03    0.63254E-03   -0.10707E-03 10039   0.922E-02    0.143E-01
RMM:   5    -0.597607392664E+03    0.23308E-03   -0.54658E-04 10081   0.664E-02    0.780E-02
RMM:   6    -0.597607323099E+03    0.69565E-04   -0.16880E-04  9618   0.396E-02    0.293E-02
RMM:   7    -0.597607331467E+03   -0.83684E-05   -0.10983E-04 10561   0.211E-02    0.365E-02
RMM:   8    -0.597607317842E+03    0.13625E-04   -0.36277E-05  8761   0.171E-02    0.199E-02
RMM:   9    -0.597607314872E+03    0.29700E-05   -0.17631E-05  7993   0.110E-02    0.947E-03
RMM:  10    -0.597607314402E+03    0.47013E-06   -0.71463E-06  6463   0.574E-03
   3 F= -.59760731E+03 E0= -.59761024E+03  d E =-.357729E-02
 curvature:  -2.27 expect dE=-0.246E-02 dE for cont linesearch -0.766E-04
 ZBRENT: extrapolating
 opt :   4.6915  next Energy=  -597.607393 (dE=-0.366E-02)
 bond charge predicted
       N       E                     dE             d eps       ncg     rms          rms(c)
DAV:   1    -0.597607393680E+03   -0.78808E-04   -0.12207E-02  9408   0.234E-01    0.379E-02
RMM:   2    -0.597607401021E+03   -0.73409E-05   -0.22455E-04 10572   0.414E-02    0.301E-02
RMM:   3    -0.597607442319E+03   -0.41298E-04   -0.81142E-05 10707   0.224E-02    0.560E-02
RMM:   4    -0.597607406312E+03    0.36006E-04   -0.58325E-05  9811   0.210E-02    0.312E-02
RMM:   5    -0.597607399973E+03    0.63394E-05   -0.33125E-05  8917   0.182E-02    0.252E-02
RMM:   6    -0.597607392854E+03    0.71194E-05   -0.12459E-05  7542   0.116E-02    0.861E-03
RMM:   7    -0.597607393570E+03   -0.71625E-06   -0.63664E-06  6354   0.696E-03
   4 F= -.59760739E+03 E0= -.59761032E+03  d E =-.365646E-02
 curvature:  -2.34 expect dE=-0.344E-02 dE for cont linesearch -0.100E-06
 trial: gam= 0.95546 g(F)=  0.147E-02 g(S)=  0.000E+00 ort =-0.813E-05 (trialstep = 0.938E+00)
 search vector abs. value=  0.287E-02
 bond charge predicted
       N       E                     dE             d eps       ncg     rms          rms(c)
DAV:   1    -0.597608624042E+03   -0.12312E-02   -0.40016E-02  8800   0.427E-01    0.571E-02
RMM:   2    -0.597608664963E+03   -0.40921E-04   -0.51395E-04 10876   0.625E-02    0.385E-02
RMM:   3    -0.597608818670E+03   -0.15371E-03   -0.23514E-04 10959   0.359E-02    0.964E-02
RMM:   4    -0.597608693075E+03    0.12560E-03   -0.12948E-04  9644   0.342E-02    0.514E-02
RMM:   5    -0.597608664450E+03    0.28625E-04   -0.64795E-05  8960   0.264E-02    0.217E-02
RMM:   6    -0.597608664962E+03   -0.51253E-06   -0.29117E-05  8789   0.124E-02    0.181E-02
RMM:   7    -0.597608661973E+03    0.29889E-05   -0.10490E-05  6708   0.872E-03    0.886E-03
RMM:   8    -0.597608661280E+03    0.69358E-06   -0.38000E-06  5888   0.606E-03
   5 F= -.59760866E+03 E0= -.59761159E+03  d E =-.126771E-02
 ZBRENT: can't locate minimum, use default step
 trial-energy change:   -0.001268  1 .order   -0.001267   -0.001371   -0.001162
 step:   3.7522(harm=  6.1561)  dis= 0.02574  next Energy=  -597.611893 (dE=-0.450E-02)
 bond charge predicted
       N       E                     dE             d eps       ncg     rms          rms(c)
DAV:   1    -0.597610933303E+03   -0.22713E-02   -0.36021E-01  8688   0.128E+00    0.167E-01
RMM:   2    -0.597611249917E+03   -0.31661E-03   -0.43599E-03 10927   0.179E-01    0.110E-01
RMM:   3    -0.597612585562E+03   -0.13356E-02   -0.18215E-03 10854   0.104E-01    0.284E-01
RMM:   4    -0.597611400441E+03    0.11851E-02   -0.91320E-04  9763   0.926E-02    0.108E-01
RMM:   5    -0.597611287230E+03    0.11321E-03   -0.46088E-04 10128   0.583E-02    0.689E-02
RMM:   6    -0.597611243364E+03    0.43866E-04   -0.15521E-04 10015   0.330E-02    0.259E-02
RMM:   7    -0.597611251392E+03   -0.80276E-05   -0.87301E-05  9787   0.186E-02    0.346E-02
RMM:   8    -0.597611238422E+03    0.12969E-04   -0.21046E-05  7461   0.134E-02    0.113E-02
RMM:   9    -0.597611238270E+03    0.15263E-06   -0.13998E-05  7141   0.766E-03    0.693E-03
RMM:  10    -0.597611238145E+03    0.12452E-06   -0.43725E-06  6027   0.543E-03
   6 F= -.59761124E+03 E0= -.59761416E+03  d E =-.384458E-02
 curvature:  -4.75 expect dE=-0.256E-02 dE for cont linesearch -0.569E-03
 ZBRENT: increasing intervall
 opt :   9.3806  next Energy=  -597.610859 (dE=-0.347E-02)
 bond charge predicted
       N       E                     dE             d eps       ncg     rms          rms(c)
DAV:   1    -0.597609758603E+03    0.14797E-02   -0.14382E+00  8512   0.255E+00    0.329E-01
RMM:   2    -0.597611075382E+03   -0.13168E-02   -0.17395E-02 10977   0.353E-01    0.223E-01
RMM:   3    -0.597617139106E+03   -0.60637E-02   -0.72318E-03 10905   0.206E-01    0.608E-01
RMM:   4    -0.597611544581E+03    0.55945E-02   -0.40306E-03  9819   0.192E-01    0.198E-01
RMM:   5    -0.597611116418E+03    0.42816E-03   -0.16332E-03 10226   0.111E-01    0.120E-01
RMM:   6    -0.597610982219E+03    0.13420E-03   -0.58561E-04  9851   0.650E-02    0.527E-02
RMM:   7    -0.597611003325E+03   -0.21105E-04   -0.31487E-04 10768   0.353E-02    0.600E-02
RMM:   8    -0.597610965758E+03    0.37567E-04   -0.81019E-05  9103   0.255E-02    0.268E-02
RMM:   9    -0.597610961867E+03    0.38911E-05   -0.51992E-05  9424   0.142E-02    0.122E-02
RMM:  10    -0.597610962440E+03   -0.57338E-06   -0.18893E-05  8155   0.734E-03    0.979E-03
RMM:  11    -0.597610962718E+03   -0.27818E-06   -0.58124E-06  6152   0.703E-03
   7 F= -.59761096E+03 E0= -.59761386E+03  d E =-.356915E-02
 curvature:   3.16 expect dE= 0.707E-02 dE for cont linesearch  0.522E-03
 ZBRENT: bracketing found
 ZBRENT: interpolating
 opt :   6.3422  next Energy=  -597.611997 (dE=-0.460E-02)
 bond charge predicted
       N       E                     dE             d eps       ncg     rms          rms(c)
DAV:   1    -0.597611645069E+03   -0.68263E-03   -0.41957E-01  8576   0.138E+00    0.178E-01
RMM:   2    -0.597612018009E+03   -0.37294E-03   -0.49855E-03 10877   0.192E-01    0.118E-01
RMM:   3    -0.597613862237E+03   -0.18442E-02   -0.21960E-03 10849   0.115E-01    0.332E-01
RMM:   4    -0.597612148358E+03    0.17139E-02   -0.11192E-03  9738   0.103E-01    0.104E-01
RMM:   5    -0.597612037400E+03    0.11096E-03   -0.46545E-04  9836   0.633E-02    0.598E-02
RMM:   6    -0.597612008704E+03    0.28696E-04   -0.18094E-04 10098   0.329E-02    0.233E-02
RMM:   7    -0.597612011641E+03   -0.29368E-05   -0.74667E-05  9965   0.167E-02    0.224E-02
RMM:   8    -0.597612005088E+03    0.65523E-05   -0.16194E-05  7328   0.111E-02    0.101E-02
RMM:   9    -0.597612005634E+03   -0.54546E-06   -0.10969E-05  6894   0.708E-03    0.933E-03
RMM:  10    -0.597612005561E+03    0.72885E-07   -0.39295E-06  5957   0.565E-03
   8 F= -.59761201E+03 E0= -.59761491E+03  d E =-.461199E-02
 curvature:  -4.60 expect dE=-0.400E-02 dE for cont linesearch -0.143E-06
 trial: gam= 0.60166 g(F)=  0.870E-03 g(S)=  0.000E+00 ort = 0.944E-05 (trialstep = 0.202E+01)
 search vector abs. value=  0.192E-02
 bond charge predicted
       N       E                     dE             d eps       ncg     rms          rms(c)
DAV:   1    -0.597613336344E+03   -0.13307E-02   -0.12415E-01  8688   0.748E-01    0.876E-02
RMM:   2    -0.597613460154E+03   -0.12381E-03   -0.14926E-03 11058   0.104E-01    0.613E-02
RMM:   3    -0.597613851883E+03   -0.39173E-03   -0.52901E-04 10917   0.552E-02    0.156E-01
RMM:   4    -0.597613507702E+03    0.34418E-03   -0.31255E-04  9728   0.536E-02    0.692E-02
RMM:   5    -0.597613450184E+03    0.57518E-04   -0.13125E-04  9188   0.382E-02    0.270E-02
RMM:   6    -0.597613450098E+03    0.86528E-07   -0.60098E-05  9967   0.190E-02    0.215E-02
RMM:   7    -0.597613446990E+03    0.31073E-05   -0.21819E-05  7770   0.129E-02    0.154E-02
RMM:   8    -0.597613445159E+03    0.18315E-05   -0.85545E-06  6554   0.750E-03    0.887E-03
RMM:   9    -0.597613444636E+03    0.52255E-06   -0.33787E-06  5820   0.543E-03
   9 F= -.59761344E+03 E0= -.59761636E+03  d E =-.143908E-02
 trial-energy change:   -0.001439  1 .order   -0.001434   -0.001768   -0.001100
 step:   5.0143(harm=  5.3446)  dis= 0.03119  next Energy=  -597.614277 (dE=-0.227E-02)
 bond charge predicted
       N       E                     dE             d eps       ncg     rms          rms(c)
DAV:   1    -0.597614136971E+03   -0.69181E-03   -0.27380E-01  8512   0.111E+00    0.131E-01
RMM:   2    -0.597614393866E+03   -0.25689E-03   -0.32547E-03 11105   0.151E-01    0.891E-02
RMM:   3    -0.597615298145E+03   -0.90428E-03   -0.12922E-03 10444   0.961E-02    0.243E-01
RMM:   4    -0.597614512303E+03    0.78584E-03   -0.59933E-04  9939   0.749E-02    0.103E-01
RMM:   5    -0.597614385870E+03    0.12643E-03   -0.27294E-04  8915   0.554E-02    0.369E-02
RMM:   6    -0.597614382213E+03    0.36569E-05   -0.12128E-04 10611   0.219E-02    0.212E-02
RMM:   7    -0.597614378784E+03    0.34297E-05   -0.39306E-05  8958   0.150E-02    0.179E-02
RMM:   8    -0.597614375126E+03    0.36574E-05   -0.11659E-05  6999   0.920E-03    0.861E-03
RMM:   9    -0.597614375865E+03   -0.73866E-06   -0.79938E-06  6604   0.716E-03
  10 F= -.59761438E+03 E0= -.59761729E+03  d E =-.237030E-02
 curvature:  -5.80 expect dE=-0.310E-02 dE for cont linesearch -0.118E-04
 trial: gam= 0.55100 g(F)=  0.535E-03 g(S)=  0.000E+00 ort = 0.626E-04 (trialstep = 0.262E+01)
 search vector abs. value=  0.119E-02
 bond charge predicted
       N       E                     dE             d eps       ncg     rms          rms(c)
DAV:   1    -0.597615350282E+03   -0.97516E-03   -0.13084E-01  8624   0.766E-01    0.105E-01
RMM:   2    -0.597615473906E+03   -0.12362E-03   -0.18116E-03 10639   0.119E-01    0.937E-02
RMM:   3    -0.597615727945E+03   -0.25404E-03   -0.58295E-04 10242   0.689E-02    0.150E-01
RMM:   4    -0.597615527940E+03    0.20001E-03   -0.49036E-04 10422   0.571E-02    0.987E-02
RMM:   5    -0.597615449698E+03    0.78241E-04   -0.31362E-04  9063   0.592E-02    0.702E-02
RMM:   6    -0.597615392099E+03    0.57599E-04   -0.10068E-04  9718   0.310E-02    0.212E-02
RMM:   7    -0.597615397335E+03   -0.52363E-05   -0.48195E-05  9001   0.164E-02    0.277E-02
RMM:   8    -0.597615390231E+03    0.71043E-05   -0.13802E-05  7053   0.111E-02    0.103E-02
RMM:   9    -0.597615389741E+03    0.49064E-06   -0.82827E-06  6468   0.708E-03
  11 F= -.59761539E+03 E0= -.59761827E+03  d E =-.101388E-02
 trial-energy change:   -0.001014  1 .order   -0.001000   -0.001492   -0.000509
 step:   3.8264(harm=  3.9719)  dis= 0.01653  next Energy=  -597.615508 (dE=-0.113E-02)
 bond charge predicted
       N       E                     dE             d eps       ncg     rms          rms(c)
DAV:   1    -0.597615519845E+03   -0.12961E-03   -0.27916E-02  9064   0.354E-01    0.494E-02
RMM:   2    -0.597615546612E+03   -0.26767E-04   -0.40657E-04 10794   0.549E-02    0.433E-02
RMM:   3    -0.597615608977E+03   -0.62365E-04   -0.14171E-04  9909   0.359E-02    0.746E-02
RMM:   4    -0.597615560550E+03    0.48427E-04   -0.10064E-04 10459   0.253E-02    0.448E-02
RMM:   5    -0.597615539535E+03    0.21015E-04   -0.60643E-05  8792   0.263E-02    0.262E-02
RMM:   6    -0.597615531207E+03    0.83282E-05   -0.21044E-05  8580   0.134E-02    0.747E-03
RMM:   7    -0.597615532673E+03   -0.14658E-05   -0.86682E-06  6674   0.655E-03    0.113E-02
RMM:   8    -0.597615531557E+03    0.11158E-05   -0.24281E-06  5631   0.580E-03    0.359E-03
RMM:   9    -0.597615531952E+03   -0.39544E-06   -0.14415E-06  5423   0.305E-03
  12 F= -.59761553E+03 E0= -.59761840E+03  d E =-.115609E-02
 curvature:  -4.09 expect dE=-0.327E-03 dE for cont linesearch -0.262E-05
 ZBRENT: extrapolating
 opt :   4.0264  next Energy=  -597.615535 (dE=-0.116E-02)
 bond charge predicted
       N       E                     dE             d eps       ncg     rms          rms(c)
DAV:   1    -0.597615534946E+03   -0.33889E-05   -0.76607E-04  9952   0.593E-02    0.840E-03
RMM:   2    -0.597615536652E+03   -0.17065E-05   -0.13674E-05  8331   0.106E-02    0.861E-03
RMM:   3    -0.597615537211E+03   -0.55868E-06   -0.37121E-06  5924   0.674E-03    0.114E-02
RMM:   4    -0.597615536897E+03    0.31404E-06   -0.29595E-06  5825   0.629E-03    0.855E-03
RMM:   5    -0.597615536817E+03    0.79974E-07   -0.19392E-06  5533   0.569E-03
  13 F= -.59761554E+03 E0= -.59761840E+03  d E =-.116095E-02
 curvature:  -4.30 expect dE=-0.391E-03 dE for cont linesearch -0.127E-07
 trial: gam= 0.25660 g(F)=  0.909E-04 g(S)=  0.000E+00 ort = 0.187E-05 (trialstep = 0.290E+01)
 search vector abs. value=  0.170E-03
 bond charge predicted
       N       E                     dE             d eps       ncg     rms          rms(c)
DAV:   1    -0.597615735865E+03   -0.19897E-03   -0.22899E-02  8576   0.319E-01    0.441E-02
RMM:   2    -0.597615756374E+03   -0.20509E-04   -0.32225E-04 10542   0.506E-02    0.369E-02
RMM:   3    -0.597615794304E+03   -0.37930E-04   -0.13731E-04  9736   0.353E-02    0.659E-02
RMM:   4    -0.597615769644E+03    0.24660E-04   -0.74665E-05  9690   0.264E-02    0.332E-02
RMM:   5    -0.597615766369E+03    0.32749E-05   -0.40432E-05  9574   0.171E-02    0.349E-02
RMM:   6    -0.597615750135E+03    0.16234E-04   -0.16374E-05  7824   0.124E-02    0.142E-02
RMM:   7    -0.597615748601E+03    0.15336E-05   -0.72259E-06  6490   0.800E-03    0.663E-03
RMM:   8    -0.597615748592E+03    0.88348E-08   -0.24529E-06  5599   0.495E-03
  14 F= -.59761575E+03 E0= -.59761862E+03  d E =-.211776E-03
 trial-energy change:   -0.000212  1 .order   -0.000209   -0.000265   -0.000154
 step:   6.8978(harm=  6.8978)  dis= 0.01347  next Energy=  -597.615852 (dE=-0.315E-03)
 bond charge predicted
       N       E                     dE             d eps       ncg     rms          rms(c)
DAV:   1    -0.597615836804E+03   -0.88203E-04   -0.43572E-02  8560   0.440E-01    0.605E-02
RMM:   2    -0.597615874044E+03   -0.37240E-04   -0.59229E-04 10610   0.688E-02    0.467E-02
RMM:   3    -0.597616002053E+03   -0.12801E-03   -0.22910E-04 10518   0.405E-02    0.964E-02
RMM:   4    -0.597615899433E+03    0.10262E-03   -0.14128E-04 10163   0.328E-02    0.478E-02
RMM:   5    -0.597615872848E+03    0.26585E-04   -0.77662E-05  9348   0.283E-02    0.330E-02
RMM:   6    -0.597615860219E+03    0.12629E-04   -0.27382E-05  8773   0.163E-02    0.844E-03
RMM:   7    -0.597615861494E+03   -0.12751E-05   -0.11964E-05  6985   0.714E-03    0.110E-02
RMM:   8    -0.597615860381E+03    0.11128E-05   -0.31507E-06  5775   0.650E-03    0.479E-03
RMM:   9    -0.597615860485E+03   -0.10384E-06   -0.16028E-06  5444   0.349E-03
  15 F= -.59761586E+03 E0= -.59761873E+03  d E =-.323668E-03
 curvature:  -6.42 expect dE=-0.536E-03 dE for cont linesearch -0.223E-07
 trial: gam= 0.83499 g(F)=  0.835E-04 g(S)=  0.000E+00 ort = 0.769E-06 (trialstep = 0.309E+01)
 search vector abs. value=  0.203E-03
 bond charge predicted
       N       E                     dE             d eps       ncg     rms          rms(c)
DAV:   1    -0.597616050603E+03   -0.19022E-03   -0.30742E-02  8584   0.371E-01    0.444E-02
RMM:   2    -0.597616077990E+03   -0.27387E-04   -0.34084E-04 10807   0.511E-02    0.296E-02
RMM:   3    -0.597616192878E+03   -0.11489E-03   -0.14159E-04 10073   0.338E-02    0.883E-02
RMM:   4    -0.597616085725E+03    0.10715E-03   -0.58181E-05  9566   0.243E-02    0.230E-02
RMM:   5    -0.597616080585E+03    0.51403E-05   -0.25592E-05  8416   0.159E-02    0.158E-02
RMM:   6    -0.597616079047E+03    0.15380E-05   -0.11269E-05  7265   0.884E-03    0.722E-03
RMM:   7    -0.597616079354E+03   -0.30703E-06   -0.39940E-06  5961   0.609E-03
  16 F= -.59761608E+03 E0= -.59761896E+03  d E =-.218869E-03
 trial-energy change:   -0.000219  1 .order   -0.000216   -0.000260   -0.000172
 step:   9.1374(harm=  9.1374)  dis= 0.01811  next Energy=  -597.616245 (dE=-0.384E-03)
 bond charge predicted
       N       E                     dE             d eps       ncg     rms          rms(c)
DAV:   1    -0.597616153262E+03   -0.74215E-04   -0.11731E-01  8512   0.725E-01    0.862E-02
RMM:   2    -0.597616256462E+03   -0.10320E-03   -0.12797E-03 10674   0.991E-02    0.586E-02
RMM:   3    -0.597616656683E+03   -0.40022E-03   -0.54548E-04  9976   0.679E-02    0.166E-01
RMM:   4    -0.597616312365E+03    0.34432E-03   -0.24279E-04  9773   0.482E-02    0.605E-02
RMM:   5    -0.597616258511E+03    0.53854E-04   -0.10192E-04  9008   0.337E-02    0.219E-02
RMM:   6    -0.597616259481E+03   -0.96996E-06   -0.51323E-05  9740   0.145E-02    0.178E-02
RMM:   7    -0.597616259008E+03    0.47293E-06   -0.15112E-05  6867   0.110E-02    0.151E-02
RMM:   8    -0.597616257242E+03    0.17661E-05   -0.68555E-06  6310   0.696E-03    0.616E-03
RMM:   9    -0.597616257293E+03   -0.51426E-07   -0.27651E-06  5690   0.427E-03
  17 F= -.59761626E+03 E0= -.59761913E+03  d E =-.396808E-03
 curvature: -11.04 expect dE=-0.960E-03 dE for cont linesearch -0.116E-06
 trial: gam= 1.04575 g(F)=  0.869E-04 g(S)=  0.000E+00 ort = 0.146E-05 (trialstep = 0.280E+01)
 search vector abs. value=  0.312E-03
 bond charge predicted
       N       E                     dE             d eps       ncg     rms          rms(c)
DAV:   1    -0.597616376528E+03   -0.11929E-03   -0.39055E-02  8720   0.419E-01    0.512E-02
RMM:   2    -0.597616414621E+03   -0.38093E-04   -0.48215E-04 10767   0.609E-02    0.380E-02
RMM:   3    -0.597616522902E+03   -0.10828E-03   -0.16663E-04 10817   0.323E-02    0.859E-02
RMM:   4    -0.597616428637E+03    0.94265E-04   -0.10956E-04  9891   0.304E-02    0.407E-02
RMM:   5    -0.597616414871E+03    0.13766E-04   -0.55929E-05  9212   0.242E-02    0.279E-02
RMM:   6    -0.597616407093E+03    0.77777E-05   -0.18901E-05  8227   0.127E-02    0.105E-02
RMM:   7    -0.597616407619E+03   -0.52605E-06   -0.96317E-06  6711   0.807E-03
  18 F= -.59761641E+03 E0= -.59761929E+03  d E =-.150326E-03
 trial-energy change:   -0.000150  1 .order   -0.000144   -0.000248   -0.000041
 step:   3.2563(harm=  3.3507)  dis= 0.00788  next Energy=  -597.616411 (dE=-0.154E-03)
 reached required accuracy - stopping structural energy minimisation
 augmentation electrons   31.552772087731057     
 soft         electrons   254.54053349043721     
 total        electrons   286.09330557816827     
 augmentation electrons   31.552772087731057     
 soft         electrons   254.54053349043721     
 total        electrons   286.09330557816827     
 augmentation electrons   31.552772087731057     
 soft         electrons   254.54053349043721     
 total        electrons   286.09330557816827     
 augmentation electrons   31.552772087731057     
 soft         electrons   254.54053349043721     
 total        electrons   286.09330557816827     
 augmentation electrons   31.552772087731057     
 soft         electrons   254.54053349043721     
 total        electrons   286.09330557816827     
 augmentation electrons   31.552772087731057     
 soft         electrons   254.54053349043721     
 total        electrons   286.09330557816827     
 augmentation electrons   31.552772087731057     
 soft         electrons   254.54053349043721     
 total        electrons   286.09330557816827     
 augmentation electrons   31.552772087731057     
 soft         electrons   254.54053349043721     
 total        electrons   286.09330557816827     
 augmentation electrons   31.552772087731057     
 soft         electrons   254.54053349043721     
 total        electrons   286.09330557816827     
 augmentation electrons   31.552772087731057     
 soft         electrons   254.54053349043721     
 total        electrons   286.09330557816827     
 augmentation electrons   31.552772087731057     
 soft         electrons   254.54053349043721     
 total        electrons   286.09330557816827     
 augmentation electrons   31.552772087731057     
 soft         electrons   254.54053349043721     
 total        electrons   286.09330557816827     
 augmentation electrons   31.552772087731057     
 soft         electrons   254.54053349043721     
 total        electrons   286.09330557816827     
 augmentation electrons   31.552772087731057     
 soft         electrons   254.54053349043721     
 total        electrons   286.09330557816827     
 augmentation electrons   31.552772087731057     
 soft         electrons   254.54053349043721     
 total        electrons   286.09330557816827     
 augmentation electrons   31.552772087731057     
 soft         electrons   254.54053349043721     
 total        electrons   286.09330557816827     
 augmentation electrons   31.552772087731057     
 soft         electrons   254.54053349043721     
 total        electrons   286.09330557816827     
 augmentation electrons   31.552772087731057     
 soft         electrons   254.54053349043721     
 total        electrons   286.09330557816827     
 augmentation electrons   31.552772087731057     
 soft         electrons   254.54053349043721     
 total        electrons   286.09330557816827     
 augmentation electrons   31.552772087731057     
 soft         electrons   254.54053349043721     
 total        electrons   286.09330557816827     
 augmentation electrons   31.552772087731057     
 soft         electrons   254.54053349043721     
 total        electrons   286.09330557816827     
 augmentation electrons   31.552772087731057     
 soft         electrons   254.54053349043721     
 total        electrons   286.09330557816827     
 augmentation electrons   31.552772087731057     
 soft         electrons   254.54053349043721     
 total        electrons   286.09330557816827     
 augmentation electrons   31.552772087731057     
 soft         electrons   254.54053349043721     
 total        electrons   286.09330557816827     
 augmentation electrons   31.552772087731057     
 soft         electrons   254.54053349043721     
 total        electrons   286.09330557816827     
 augmentation electrons   31.552772087731057     
 soft         electrons   254.54053349043721     
 total        electrons   286.09330557816827     
 augmentation electrons   31.552772087731057     
 soft         electrons   254.54053349043721     
 total        electrons   286.09330557816827     
 augmentation electrons   31.552772087731057     
 soft         electrons   254.54053349043721     
 total        electrons   286.09330557816827     
 augmentation electrons   31.552772087731057     
 soft         electrons   254.54053349043721     
 total        electrons   286.09330557816827     
 augmentation electrons   31.552772087731057     
 soft         electrons   254.54053349043721     
 total        electrons   286.09330557816827     
 augmentation electrons   31.552772087731057     
 soft         electrons   254.54053349043721     
 total        electrons   286.09330557816827     
 augmentation electrons   31.552772087731057     
 soft         electrons   254.54053349043721     
 total        electrons   286.09330557816827     
 augmentation electrons   31.552772087731057     
 soft         electrons   254.54053349043721     
 total        electrons   286.09330557816827     
 augmentation electrons   31.552772087731057     
 soft         electrons   254.54053349043721     
 total        electrons   286.09330557816827     
 augmentation electrons   31.552772087731057     
 soft         electrons   254.54053349043721     
 total        electrons   286.09330557816827     
 augmentation electrons   31.552772087731057     
 soft         electrons   254.54053349043721     
 total        electrons   286.09330557816827     
 augmentation electrons   31.552772087731057     
 soft         electrons   254.54053349043721     
 total        electrons   286.09330557816827     
 augmentation electrons   31.552772087731057     
 soft         electrons   254.54053349043721     
 total        electrons   286.09330557816827     
 augmentation electrons   31.552772087731057     
 soft         electrons   254.54053349043721     
 total        electrons   286.09330557816827     
 augmentation electrons   31.552772087731057     
 soft         electrons   254.54053349043721     
 total        electrons   286.09330557816827     
 augmentation electrons   31.552772087731057     
 soft         electrons   254.54053349043721     
 total        electrons   286.09330557816827     
 augmentation electrons   31.552772087731057     
 soft         electrons   254.54053349043721     
 total        electrons   286.09330557816827     
 augmentation electrons   31.552772087731057     
 soft         electrons   254.54053349043721     
 total        electrons   286.09330557816827     
 augmentation electrons   31.552772087731057     
 soft         electrons   254.54053349043721     
 total        electrons   286.09330557816827     
 augmentation electrons   31.552772087731057     
 soft         electrons   254.54053349043721     
 total        electrons   286.09330557816827     
 augmentation electrons   31.552772087731057     
 soft         electrons   254.54053349043721     
 total        electrons   286.09330557816827     
 augmentation electrons   31.552772087731057     
 soft         electrons   254.54053349043721     
 total        electrons   286.09330557816827     
 augmentation electrons   31.552772087731057     
 soft         electrons   254.54053349043721     
 total        electrons   286.09330557816827     
 augmentation electrons   31.552772087731057     
 soft         electrons   254.54053349043721     
 total        electrons   286.09330557816827     
 augmentation electrons   31.552772087731057     
 soft         electrons   254.54053349043721     
 total        electrons   286.09330557816827     
 augmentation electrons   31.552772087731057     
 soft         electrons   254.54053349043721     
 total        electrons   286.09330557816827     
 augmentation electrons   31.552772087731057     
 soft         electrons   254.54053349043721     
 total        electrons   286.09330557816827     
 augmentation electrons   31.552772087731057     
 soft         electrons   254.54053349043721     
 total        electrons   286.09330557816827     
 augmentation electrons   31.552772087731057     
 soft         electrons   254.54053349043721     
 total        electrons   286.09330557816827     
 augmentation electrons   31.552772087731057     
 soft         electrons   254.54053349043721     
 total        electrons   286.09330557816827     
 augmentation electrons   31.552772087731057     
 soft         electrons   254.54053349043721     
 total        electrons   286.09330557816827     
 augmentation electrons   31.552772087731057     
 soft         electrons   254.54053349043721     
 total        electrons   286.09330557816827     
 augmentation electrons   31.552772087731057     
 soft         electrons   254.54053349043721     
 total        electrons   286.09330557816827     
 augmentation electrons   31.552772087731057     
 soft         electrons   254.54053349043721     
 total        electrons   286.09330557816827     
 augmentation electrons   31.552772087731057     
 soft         electrons   254.54053349043721     
 total        electrons   286.09330557816827     
 augmentation electrons   31.552772087731057     
 soft         electrons   254.54053349043721     
 total        electrons   286.09330557816827     
 augmentation electrons   31.552772087731057     
 soft         electrons   254.54053349043721     
 total        electrons   286.09330557816827     
 augmentation electrons   31.552772087731057     
 soft         electrons   254.54053349043721     
 total        electrons   286.09330557816827     
 augmentation electrons   31.552772087731057     
 soft         electrons   254.54053349043721     
 total        electrons   286.09330557816827     
 augmentation electrons   31.552772087731057     
 soft         electrons   254.54053349043721     
 total        electrons   286.09330557816827     
 augmentation electrons   31.552772087731057     
 soft         electrons   254.54053349043721     
 total        electrons   286.09330557816827     
 augmentation electrons   31.552772087731057     
 soft         electrons   254.54053349043721     
 total        electrons   286.09330557816827     
 augmentation electrons   31.552772087731057     
 soft         electrons   254.54053349043721     
 total        electrons   286.09330557816827     
 augmentation electrons   31.552772087731057     
 soft         electrons   254.54053349043721     
 total        electrons   286.09330557816827     
 augmentation electrons   31.552772087731057     
 soft         electrons   254.54053349043721     
 total        electrons   286.09330557816827     
 augmentation electrons   31.552772087731057     
 soft         electrons   254.54053349043721     
 total        electrons   286.09330557816827     
 augmentation electrons   31.552772087731057     
 soft         electrons   254.54053349043721     
 total        electrons   286.09330557816827     
Note: The following floating-point exceptions are signalling: IEEE_OVERFLOW_FLAG
Note: The following floating-point exceptions are signalling: IEEE_OVERFLOW_FLAG
Note: The following floating-point exceptions are signalling: IEEE_OVERFLOW_FLAG
Note: The following floating-point exceptions are signalling: IEEE_OVERFLOW_FLAG
Note: The following floating-point exceptions are signalling: IEEE_OVERFLOW_FLAG
Note: The following floating-point exceptions are signalling: IEEE_OVERFLOW_FLAG
Note: The following floating-point exceptions are signalling: IEEE_OVERFLOW_FLAG
Note: The following floating-point exceptions are signalling: IEEE_OVERFLOW_FLAG
Note: The following floating-point exceptions are signalling: IEEE_OVERFLOW_FLAG
Note: The following floating-point exceptions are signalling: IEEE_OVERFLOW_FLAG
Note: The following floating-point exceptions are signalling: IEEE_OVERFLOW_FLAG
Note: The following floating-point exceptions are signalling: IEEE_OVERFLOW_FLAG
Note: The following floating-point exceptions are signalling: IEEE_OVERFLOW_FLAG
Note: The following floating-point exceptions are signalling: IEEE_OVERFLOW_FLAG
Note: The following floating-point exceptions are signalling: IEEE_OVERFLOW_FLAG
Note: The following floating-point exceptions are signalling: IEEE_OVERFLOW_FLAG
Note: The following floating-point exceptions are signalling: IEEE_OVERFLOW_FLAG
Note: The following floating-point exceptions are signalling: IEEE_OVERFLOW_FLAG
Note: The following floating-point exceptions are signalling: IEEE_OVERFLOW_FLAG
Note: The following floating-point exceptions are signalling: IEEE_OVERFLOW_FLAG
Note: The following floating-point exceptions are signalling: IEEE_OVERFLOW_FLAG
Note: The following floating-point exceptions are signalling: IEEE_OVERFLOW_FLAG
Note: The following floating-point exceptions are signalling: IEEE_OVERFLOW_FLAG
Note: The following floating-point exceptions are signalling: IEEE_OVERFLOW_FLAG
Note: The following floating-point exceptions are signalling: IEEE_OVERFLOW_FLAG
Note: The following floating-point exceptions are signalling: IEEE_OVERFLOW_FLAG
Note: The following floating-point exceptions are signalling: IEEE_OVERFLOW_FLAG
Note: The following floating-point exceptions are signalling: IEEE_OVERFLOW_FLAG
Note: The following floating-point exceptions are signalling: IEEE_OVERFLOW_FLAG
Note: The following floating-point exceptions are signalling: IEEE_OVERFLOW_FLAG
Note: The following floating-point exceptions are signalling: IEEE_OVERFLOW_FLAG
Note: The following floating-point exceptions are signalling: IEEE_OVERFLOW_FLAG
Note: The following floating-point exceptions are signalling: IEEE_OVERFLOW_FLAG
Note: The following floating-point exceptions are signalling: IEEE_OVERFLOW_FLAG
Note: The following floating-point exceptions are signalling: IEEE_OVERFLOW_FLAG
Note: The following floating-point exceptions are signalling: IEEE_OVERFLOW_FLAG
Note: The following floating-point exceptions are signalling: IEEE_OVERFLOW_FLAG
Note: The following floating-point exceptions are signalling: IEEE_OVERFLOW_FLAG
Note: The following floating-point exceptions are signalling: IEEE_OVERFLOW_FLAG
Note: The following floating-point exceptions are signalling: IEEE_OVERFLOW_FLAG
Note: The following floating-point exceptions are signalling: IEEE_OVERFLOW_FLAG
Note: The following floating-point exceptions are signalling: IEEE_OVERFLOW_FLAG
Note: The following floating-point exceptions are signalling: IEEE_OVERFLOW_FLAG
Note: The following floating-point exceptions are signalling: IEEE_OVERFLOW_FLAG
Note: The following floating-point exceptions are signalling: IEEE_OVERFLOW_FLAG
Note: The following floating-point exceptions are signalling: IEEE_OVERFLOW_FLAG
Note: The following floating-point exceptions are signalling: IEEE_OVERFLOW_FLAG
Note: The following floating-point exceptions are signalling: IEEE_OVERFLOW_FLAG
Note: The following floating-point exceptions are signalling: IEEE_OVERFLOW_FLAG
Note: The following floating-point exceptions are signalling: IEEE_OVERFLOW_FLAG
Note: The following floating-point exceptions are signalling: IEEE_OVERFLOW_FLAG
Note: The following floating-point exceptions are signalling: IEEE_OVERFLOW_FLAG
Note: The following floating-point exceptions are signalling: IEEE_OVERFLOW_FLAG
Note: The following floating-point exceptions are signalling: IEEE_OVERFLOW_FLAG
Note: The following floating-point exceptions are signalling: IEEE_OVERFLOW_FLAG
Note: The following floating-point exceptions are signalling: IEEE_OVERFLOW_FLAG
Note: The following floating-point exceptions are signalling: IEEE_OVERFLOW_FLAG
Note: The following floating-point exceptions are signalling: IEEE_OVERFLOW_FLAG
Note: The following floating-point exceptions are signalling: IEEE_OVERFLOW_FLAG
Note: The following floating-point exceptions are signalling: IEEE_OVERFLOW_FLAG
Note: The following floating-point exceptions are signalling: IEEE_OVERFLOW_FLAG
Note: The following floating-point exceptions are signalling: IEEE_OVERFLOW_FLAG
Note: The following floating-point exceptions are signalling: IEEE_OVERFLOW_FLAG
Note: The following floating-point exceptions are signalling: IEEE_OVERFLOW_FLAG
Note: The following floating-point exceptions are signalling: IEEE_OVERFLOW_FLAG
Note: The following floating-point exceptions are signalling: IEEE_OVERFLOW_FLAG
Note: The following floating-point exceptions are signalling: IEEE_OVERFLOW_FLAG
Note: The following floating-point exceptions are signalling: IEEE_OVERFLOW_FLAG
Note: The following floating-point exceptions are signalling: IEEE_OVERFLOW_FLAG
Note: The following floating-point exceptions are signalling: IEEE_OVERFLOW_FLAG
Note: The following floating-point exceptions are signalling: IEEE_OVERFLOW_FLAG
Note: The following floating-point exceptions are signalling: IEEE_OVERFLOW_FLAG
