   3    3    1    1
  2.5814221e+01   3.0026042e-10   3.0026042e-10   3.3062237e-10   5.0000000e-16
            1.000000e-04
  CAR
 DOS and projected DOS file by LOBSTER. Energy is shifted such that the Fermi level lies at 0 eV. 
     34.28832625     -10.76172937   901       9.26051757       1.00000000
-20.02225   0.00000   0.00000
-19.97219   0.00000   0.00000
-19.92214   0.00000   0.00000
-19.87208   0.00000   0.00000
-19.82202   0.00000   0.00000
-19.77197   0.00000   0.00000
-19.72191   0.00000   0.00000
-19.67186   0.00000   0.00000
-19.62180   0.00000   0.00000
-19.57175   0.00000   0.00000
-19.52169   0.00000   0.00000
-19.47164   0.00000   0.00000
-19.42158   0.00000   0.00000
-19.37152   0.00000   0.00000
-19.32147   0.00000   0.00000
-19.27141   0.00000   0.00000
-19.22136   0.00000   0.00000
-19.17130   0.00000   0.00000
-19.12125   0.00000   0.00000
-19.07119   0.00000   0.00000
-19.02113   0.00000   0.00000
-18.97108   0.00000   0.00000
-18.92102   0.00000   0.00000
-18.87097   0.00000   0.00000
-18.82091   0.00000   0.00000
-18.77086   0.00000   0.00000
-18.72080   0.00000   0.00000
-18.67075   0.00000   0.00000
-18.62069   0.00000   0.00000
-18.57063   0.00000   0.00000
-18.52058   0.00000   0.00000
-18.47052   0.00000   0.00000
-18.42047   0.00000   0.00000
-18.37041   0.00000   0.00000
-18.32036   0.00000   0.00000
-18.27030   0.00000   0.00000
-18.22024   0.00000   0.00000
-18.17019   0.00000   0.00000
-18.12013   0.00000   0.00000
-18.07008   0.00000   0.00000
-18.02002   0.00000   0.00000
-17.96997   0.00000   0.00000
-17.91991   0.00000   0.00000
-17.86986   0.00000   0.00000
-17.81980   0.00000   0.00000
-17.76974   0.00000   0.00000
-17.71969   0.00000   0.00000
-17.66963   0.00000   0.00000
-17.61958   0.00000   0.00000
-17.56952   0.00000   0.00000
-17.51947   0.00000   0.00000
-17.46941   0.00000   0.00000
-17.41935   0.00000   0.00000
-17.36930   0.00000   0.00000
-17.31924   0.00000   0.00000
-17.26919   0.00000   0.00000
-17.21913   0.00000   0.00000
-17.16908   0.00000   0.00000
-17.11902   0.00000   0.00000
-17.06897   0.00000   0.00000
-17.01891   0.00000   0.00000
-16.96885   0.00000   0.00000
-16.91880   0.00000   0.00000
-16.86874   0.00000   0.00000
-16.81869   0.00000   0.00000
-16.76863   0.00000   0.00000
-16.71858   0.00000   0.00000
-16.66852   0.00000   0.00000
-16.61846   0.00000   0.00000
-16.56841   0.00000   0.00000
-16.51835   0.00000   0.00000
-16.46830   0.00000   0.00000
-16.41824   0.00000   0.00000
-16.36819   0.00000   0.00000
-16.31813   0.00000   0.00000
-16.26808   0.00000   0.00000
-16.21802   0.00000   0.00000
-16.16796   0.00000   0.00000
-16.11791   0.00000   0.00000
-16.06785   0.00000   0.00000
-16.01780   0.00000   0.00000
-15.96774   0.00000   0.00000
-15.91769   0.00000   0.00000
-15.86763   0.00000   0.00000
-15.81758   0.00000   0.00000
-15.76752   0.00000   0.00000
-15.71746   0.00000   0.00000
-15.66741   0.00000   0.00000
-15.61735   0.00000   0.00000
-15.56730   0.00000   0.00000
-15.51724   0.00000   0.00000
-15.46719   0.00000   0.00000
-15.41713   0.00000   0.00000
-15.36707   0.00000   0.00000
-15.31702   0.00000   0.00000
-15.26696   0.00000   0.00000
-15.21691   0.00000   0.00000
-15.16685   0.00000   0.00000
-15.11680   0.00000   0.00000
-15.06674   0.00000   0.00000
-15.01669   0.00000   0.00000
-14.96663   0.00000   0.00000
-14.91657   0.00041   0.00002
-14.86652   0.02151   0.00110
-14.81646   0.05370   0.00379
-14.76641   0.06436   0.00701
-14.71635   0.08310   0.01117
-14.66630   0.09661   0.01600
-14.61624   0.10381   0.02120
-14.56618   0.11390   0.02690
-14.51613   0.12490   0.03315
-14.46607   0.13649   0.03998
-14.41602   0.14597   0.04729
-14.36596   0.15326   0.05496
-14.31591   0.16102   0.06302
-14.26585   0.16910   0.07149
-14.21580   0.17870   0.08043
-14.16574   0.18853   0.08987
-14.11568   0.19766   0.09976
-14.06563   0.20601   0.11007
-14.01557   0.21338   0.12075
-13.96552   0.22178   0.13186
-13.91546   0.23052   0.14339
-13.86541   0.23939   0.15538
-13.81535   0.24834   0.16781
-13.76529   0.25773   0.18071
-13.71524   0.26819   0.19413
-13.66518   0.27892   0.20809
-13.61513   0.28850   0.22254
-13.56507   0.29791   0.23745
-13.51502   0.30734   0.25283
-13.46496   0.31847   0.26877
-13.41491   0.33087   0.28534
-13.36485   0.34406   0.30256
-13.31479   0.35758   0.32046
-13.26474   0.37129   0.33904
-13.21468   0.38585   0.35836
-13.16463   0.40289   0.37852
-13.11457   0.42019   0.39956
-13.06452   0.44334   0.42175
-13.01446   0.46957   0.44525
-12.96440   0.49710   0.47013
-12.91435   0.53324   0.49683
-12.86429   0.61049   0.52738
-12.81424   0.61422   0.55813
-12.76418   0.61559   0.58894
-12.71413   0.61915   0.61994
-12.66407   0.62475   0.65121
-12.61402   0.62730   0.68261
-12.56396   0.62955   0.71412
-12.51390   0.63550   0.74593
-12.46385   0.63831   0.77788
-12.41379   0.63893   0.80986
-12.36374   0.64468   0.84213
-12.31368   0.65124   0.87473
-12.26363   0.65458   0.90750
-12.21357   0.65578   0.94032
-12.16352   0.66370   0.97354
-12.11346   0.67344   1.00725
-12.06340   0.68386   1.04148
-12.01335   0.68853   1.07595
-11.96329   0.69415   1.11070
-11.91324   0.71106   1.14629
-11.86318   0.73157   1.18291
-11.81313   0.75629   1.22076
-11.76307   0.78462   1.26004
-11.71301   0.87469   1.30382
-11.66296   0.87840   1.34779
-11.61290   0.84187   1.38993
-11.56285   0.81091   1.43052
-11.51279   0.77357   1.46924
-11.46274   0.74799   1.50668
-11.41268   0.71828   1.54264
-11.36263   0.68546   1.57695
-11.31257   0.65724   1.60985
-11.26251   0.63389   1.64158
-11.21246   0.61199   1.67221
-11.16240   0.60712   1.70260
-11.11235   0.58781   1.73202
-11.06229   0.56309   1.76021
-11.01224   0.52126   1.78630
-10.96218   0.52938   1.81280
-10.91212   0.48822   1.83724
-10.86207   0.41284   1.85790
-10.81201   0.34862   1.87535
-10.76196   0.30903   1.89082
-10.71190   0.27176   1.90443
-10.66185   0.23769   1.91632
-10.61179   0.21593   1.92713
-10.56174   0.19580   1.93693
-10.51168   0.18620   1.94625
-10.46162   0.21124   1.95683
-10.41157   0.22749   1.96821
-10.36151   0.16466   1.97646
-10.31146   0.17257   1.98509
-10.26140   0.20256   1.99523
-10.21135   0.22537   2.00651
-10.16129   0.29800   2.02143
-10.11123   0.35078   2.03899
-10.06118   0.35813   2.05692
-10.01112   0.36663   2.07527
 -9.96107   0.36029   2.09330
 -9.91101   0.38360   2.11250
 -9.86096   0.41960   2.13351
 -9.81090   0.46279   2.15667
 -9.76085   0.52741   2.18307
 -9.71079   0.62767   2.21449
 -9.66073   0.85452   2.25726
 -9.61068   0.67532   2.29107
 -9.56062   0.64077   2.32314
 -9.51057   0.63145   2.35475
 -9.46051   0.62821   2.38619
 -9.41046   0.62935   2.41770
 -9.36040   0.62784   2.44912
 -9.31034   0.62749   2.48053
 -9.26029   0.62595   2.51187
 -9.21023   0.61876   2.54284
 -9.16018   0.61612   2.57368
 -9.11012   0.63102   2.60526
 -9.06007   0.63344   2.63697
 -9.01001   0.64071   2.66904
 -8.95996   0.64721   2.70144
 -8.90990   0.63836   2.73339
 -8.85984   0.63394   2.76513
 -8.80979   0.64307   2.79731
 -8.75973   0.64435   2.82957
 -8.70968   0.62082   2.86064
 -8.65962   0.61572   2.89146
 -8.60957   0.60250   2.92162
 -8.55951   0.59714   2.95151
 -8.50945   0.59316   2.98120
 -8.45940   0.59028   3.01075
 -8.40934   0.58876   3.04022
 -8.35929   0.58884   3.06970
 -8.30923   0.59145   3.09930
 -8.25918   0.59548   3.12911
 -8.20912   0.60133   3.15921
 -8.15907   0.60878   3.18968
 -8.10901   0.61781   3.22061
 -8.05895   0.62720   3.25200
 -8.00890   0.63551   3.28381
 -7.95884   0.63046   3.31537
 -7.90879   0.63744   3.34728
 -7.85873   0.65521   3.38007
 -7.80868   0.67376   3.41380
 -7.75862   0.69412   3.44854
 -7.70857   0.71827   3.48450
 -7.65851   0.75625   3.52235
 -7.60845   0.80814   3.56280
 -7.55840   0.85267   3.60549
 -7.50834   0.91147   3.65111
 -7.45829   0.99752   3.70104
 -7.40823   0.97623   3.74991
 -7.35818   0.86763   3.79334
 -7.30812   0.79102   3.83293
 -7.25806   0.74457   3.87020
 -7.20801   0.69474   3.90498
 -7.15795   0.68696   3.93936
 -7.10790   0.70294   3.97455
 -7.05784   0.72513   4.01085
 -7.00779   0.76251   4.04901
 -6.95773   0.81335   4.08973
 -6.90768   0.93409   4.13648
 -6.85762   1.12459   4.19278
 -6.80756   1.22425   4.25406
 -6.75751   1.27860   4.31806
 -6.70745   1.28942   4.38260
 -6.65740   1.31752   4.44855
 -6.60734   1.37790   4.51752
 -6.55729   1.46966   4.59109
 -6.50723   1.54998   4.66867
 -6.45717   1.44315   4.74091
 -6.40712   1.09084   4.79551
 -6.35706   1.10188   4.85067
 -6.30701   1.12487   4.90697
 -6.25695   1.10721   4.96240
 -6.20690   1.15873   5.02040
 -6.15684   1.21299   5.08111
 -6.10679   1.26521   5.14444
 -6.05673   1.29474   5.20925
 -6.00667   1.34278   5.27647
 -5.95662   1.40346   5.34672
 -5.90656   1.53088   5.42335
 -5.85651   1.57273   5.50207
 -5.80645   1.56666   5.58049
 -5.75640   1.62001   5.66158
 -5.70634   1.74186   5.74877
 -5.65628   1.96960   5.84736
 -5.60623   2.07353   5.95115
 -5.55617   2.19695   6.06112
 -5.50612   2.22920   6.17271
 -5.45606   2.31488   6.28858
 -5.40601   2.46646   6.41204
 -5.35595   2.77148   6.55077
 -5.30590   3.47001   6.72446
 -5.25584   2.81123   6.86518
 -5.20578   2.45590   6.98811
 -5.15573   2.10227   7.09334
 -5.10567   1.88451   7.18767
 -5.05562   1.76867   7.27620
 -5.00556   1.53253   7.35291
 -4.95551   1.40863   7.42342
 -4.90545   1.50065   7.49854
 -4.85539   1.65441   7.58135
 -4.80534   1.72020   7.66746
 -4.75528   1.75447   7.75528
 -4.70523   1.85667   7.84822
 -4.65517   1.89789   7.94322
 -4.60512   1.99770   8.04321
 -4.55506   2.14078   8.15037
 -4.50501   2.28904   8.26495
 -4.45495   2.10214   8.37017
 -4.40489   1.96516   8.46854
 -4.35484   1.90435   8.56387
 -4.30478   1.85803   8.65687
 -4.25473   1.66008   8.73997
 -4.20467   1.54461   8.81728
 -4.15462   1.45297   8.89001
 -4.10456   1.36722   8.95845
 -4.05451   1.27717   9.02238
 -4.00445   1.18922   9.08191
 -3.95439   1.07189   9.13556
 -3.90434   1.02187   9.18671
 -3.85428   0.99165   9.23635
 -3.80423   0.95951   9.28438
 -3.75417   0.92300   9.33058
 -3.70412   0.88780   9.37502
 -3.65406   0.85595   9.41786
 -3.60400   0.82622   9.45922
 -3.55395   0.79877   9.49920
 -3.50389   0.77389   9.53794
 -3.45384   0.74634   9.57530
 -3.40378   0.71718   9.61120
 -3.35373   0.68838   9.64565
 -3.30367   0.65374   9.67838
 -3.25362   0.61576   9.70920
 -3.20356   0.58463   9.73846
 -3.15350   0.55610   9.76630
 -3.10345   0.53187   9.79292
 -3.05339   0.50539   9.81822
 -3.00334   0.45118   9.84080
 -2.95328   0.39670   9.86066
 -2.90323   0.35900   9.87863
 -2.85317   0.33304   9.89530
 -2.80311   0.30929   9.91078
 -2.75306   0.25338   9.92347
 -2.70300   0.21507   9.93423
 -2.65295   0.17608   9.94305
 -2.60289   0.14692   9.95040
 -2.55284   0.13008   9.95691
 -2.50278   0.12371   9.96310
 -2.45273   0.11982   9.96910
 -2.40267   0.11919   9.97507
 -2.35261   0.12442   9.98130
 -2.30256   0.14491   9.98855
 -2.25250   0.21681   9.99940
 -2.20245   0.21036  10.00993
 -2.15239   0.22544  10.02122
 -2.10234   0.33161  10.03782
 -2.05228   0.42085  10.05888
 -2.00222   0.50378  10.08410
 -1.95217   0.54736  10.11150
 -1.90211   0.57081  10.14007
 -1.85206   0.58933  10.16957
 -1.80200   0.59560  10.19938
 -1.75195   0.60546  10.22969
 -1.70189   0.61508  10.26048
 -1.65184   0.62625  10.29182
 -1.60178   0.63715  10.32372
 -1.55172   0.64916  10.35621
 -1.50167   0.66061  10.38928
 -1.45161   0.66964  10.42280
 -1.40156   0.68111  10.45689
 -1.35150   0.69386  10.49162
 -1.30145   0.70910  10.52712
 -1.25139   0.72624  10.56347
 -1.20133   0.74886  10.60095
 -1.15128   0.77166  10.63958
 -1.10122   0.79973  10.67961
 -1.05117   0.84258  10.72179
 -1.00111   0.91463  10.76757
 -0.95106   0.95879  10.81556
 -0.90100   1.00230  10.86573
 -0.85095   1.05260  10.91842
 -0.80089   1.11299  10.97413
 -0.75083   1.19433  11.03392
 -0.70078   1.22786  11.09538
 -0.65072   1.25369  11.15813
 -0.60067   1.26372  11.22139
 -0.55061   1.26102  11.28451
 -0.50056   1.24837  11.34700
 -0.45050   1.24306  11.40922
 -0.40044   1.24827  11.47170
 -0.35039   1.25082  11.53431
 -0.30033   1.25626  11.59720
 -0.25028   1.26504  11.66052
 -0.20022   1.29184  11.72518
 -0.15017   1.33206  11.79186
 -0.10011   1.35770  11.85982
 -0.05006   1.37999  11.92890
  0.00000   1.39502  11.99872
  0.05006   1.43940  12.07077
  0.10011   1.55804  12.14876
  0.15017   1.61247  12.22948
  0.20022   1.58139  12.30863
  0.25028   1.61168  12.38931
  0.30033   1.67062  12.47293
  0.35039   1.71748  12.55890
  0.40044   1.68045  12.64302
  0.45050   1.64451  12.72533
  0.50056   1.66101  12.80848
  0.55061   1.68621  12.89288
  0.60067   1.72934  12.97944
  0.65072   1.74648  13.06687
  0.70078   1.79321  13.15663
  0.75083   1.68389  13.24091
  0.80089   1.63473  13.32274
  0.85095   1.29265  13.38745
  0.90100   1.04889  13.43995
  0.95106   1.07830  13.49392
  1.00111   1.16938  13.55246
  1.05117   1.32103  13.61858
  1.10122   1.53644  13.69549
  1.15128   1.56954  13.77405
  1.20133   1.55142  13.85171
  1.25139   1.55059  13.92933
  1.30145   1.61087  14.00996
  1.35150   1.76658  14.09839
  1.40156   1.97726  14.19736
  1.45161   2.38997  14.31699
  1.50167   2.62074  14.44817
  1.55172   2.63671  14.58016
  1.60178   2.60611  14.71061
  1.65184   2.56521  14.83901
  1.70189   2.52668  14.96548
  1.75195   2.30104  15.08066
  1.80200   2.15781  15.18868
  1.85206   2.02320  15.28995
  1.90211   1.87903  15.38400
  1.95217   1.74815  15.47151
  2.00222   1.59866  15.55153
  2.05228   1.37948  15.62058
  2.10234   1.18022  15.67966
  2.15239   1.10627  15.73503
  2.20245   1.07843  15.78901
  2.25250   1.07244  15.84270
  2.30256   1.08405  15.89696
  2.35261   1.09782  15.95191
  2.40267   1.10345  16.00714
  2.45273   1.11218  16.06282
  2.50278   1.11918  16.11884
  2.55284   1.10205  16.17400
  2.60289   1.08041  16.22808
  2.65295   1.05423  16.28085
  2.70300   1.03913  16.33287
  2.75306   1.02745  16.38430
  2.80311   1.01502  16.43510
  2.85317   1.01086  16.48570
  2.90323   1.01125  16.53632
  2.95328   0.99159  16.58596
  3.00334   0.98455  16.63524
  3.05339   0.98693  16.68464
  3.10345   0.97741  16.73356
  3.15350   0.96654  16.78194
  3.20356   0.95513  16.82975
  3.25362   0.94125  16.87687
  3.30367   0.96355  16.92510
  3.35373   0.87660  16.96898
  3.40378   0.80094  17.00907
  3.45384   0.74869  17.04655
  3.50389   0.73934  17.08355
  3.55395   0.76644  17.12192
  3.60400   0.79767  17.16185
  3.65406   0.80758  17.20227
  3.70412   0.78361  17.24150
  3.75417   0.79051  17.28107
  3.80423   0.89777  17.32600
  3.85428   1.74051  17.41313
  3.90434   1.08877  17.46763
  3.95439   0.87293  17.51132
  4.00445   0.78008  17.55037
  4.05451   0.72636  17.58673
  4.10456   0.66137  17.61983
  4.15462   0.57220  17.64847
  4.20467   0.52592  17.67480
  4.25473   0.44465  17.69706
  4.30478   0.41621  17.71789
  4.35484   0.44134  17.73998
  4.40489   0.45171  17.76259
  4.45495   0.47782  17.78651
  4.50501   0.48545  17.81081
  4.55506   0.49887  17.83578
  4.60512   0.50331  17.86097
  4.65517   0.52473  17.88724
  4.70523   0.54735  17.91464
  4.75528   0.57091  17.94321
  4.80534   0.59311  17.97290
  4.85539   0.62262  18.00407
  4.90545   0.66120  18.03717
  4.95551   0.72065  18.07324
  5.00556   0.80877  18.11372
  5.05562   0.82579  18.15506
  5.10567   0.85627  18.19792
  5.15573   0.86461  18.24120
  5.20578   0.88368  18.28543
  5.25584   0.92980  18.33197
  5.30590   1.00209  18.38213
  5.35595   1.08940  18.43666
  5.40601   1.17790  18.49562
  5.45606   1.21542  18.55646
  5.50612   1.21677  18.61737
  5.55617   1.18558  18.67671
  5.60623   1.17111  18.73533
  5.65628   1.23044  18.79692
  5.70634   1.31493  18.86274
  5.75640   1.35695  18.93067
  5.80645   1.36881  18.99918
  5.85651   1.39956  19.06924
  5.90656   1.43513  19.14108
  5.95662   1.45728  19.21402
  6.00667   1.41425  19.28481
  6.05673   1.39632  19.35471
  6.10679   1.37929  19.42375
  6.15684   1.37613  19.49263
  6.20690   1.33495  19.55945
  6.25695   1.27726  19.62339
  6.30701   1.21154  19.68403
  6.35706   1.15987  19.74209
  6.40712   1.09509  19.79690
  6.45717   1.10222  19.85208
  6.50723   1.17774  19.91103
  6.55729   1.19845  19.97102
  6.60734   1.21394  20.03178
  6.65740   1.24685  20.09419
  6.70745   1.24894  20.15671
  6.75751   1.22117  20.21784
  6.80756   1.18043  20.27692
  6.85762   1.09982  20.33198
  6.90768   1.06336  20.38520
  6.95773   1.05323  20.43792
  7.00779   1.05484  20.49072
  7.05784   1.04784  20.54317
  7.10790   1.04611  20.59554
  7.15795   0.94775  20.64298
  7.20801   0.92102  20.68908
  7.25806   0.88625  20.73344
  7.30812   0.88222  20.77760
  7.35818   0.91032  20.82317
  7.40823   0.94641  20.87054
  7.45829   1.00466  20.92083
  7.50834   1.08749  20.97527
  7.55840   1.19885  21.03528
  7.60845   1.37321  21.10401
  7.65851   1.49517  21.17885
  7.70857   1.59458  21.25867
  7.75862   1.76420  21.34698
  7.80868   1.80210  21.43719
  7.85873   1.66043  21.52030
  7.90879   1.21586  21.58116
  7.95884   1.07097  21.63477
  8.00890   1.02153  21.68590
  8.05895   0.98748  21.73533
  8.10901   0.94675  21.78272
  8.15907   0.92269  21.82891
  8.20912   0.96317  21.87712
  8.25918   0.93781  21.92406
  8.30923   0.90714  21.96947
  8.35929   0.89567  22.01430
  8.40934   0.88634  22.05867
  8.45940   0.87609  22.10252
  8.50945   0.87203  22.14617
  8.55951   0.87782  22.19011
  8.60957   0.88212  22.23427
  8.65962   0.89347  22.27899
  8.70968   0.94147  22.32611
  8.75973   0.98032  22.37519
  8.80979   1.00274  22.42538
  8.85984   1.00297  22.47558
  8.90990   1.01120  22.52620
  8.95996   1.04580  22.57855
  9.01001   0.98306  22.62775
  9.06007   0.97786  22.67670
  9.11012   1.01213  22.72736
  9.16018   1.09451  22.78215
  9.21023   1.22385  22.84341
  9.26029   1.27723  22.90734
  9.31034   1.29125  22.97198
  9.36040   1.29971  23.03704
  9.41046   1.33537  23.10388
  9.46051   1.40373  23.17414
  9.51057   1.39411  23.24393
  9.56062   1.38365  23.31319
  9.61068   1.38365  23.38245
  9.66073   1.36962  23.45100
  9.71079   1.41749  23.52196
  9.76085   1.50331  23.59720
  9.81090   1.54127  23.67435
  9.86096   1.56742  23.75281
  9.91101   1.59069  23.83244
  9.96107   1.44048  23.90454
 10.01112   1.35891  23.97256
 10.06118   1.28619  24.03694
 10.11123   1.20864  24.09744
 10.16129   1.17787  24.15640
 10.21135   1.16534  24.21473
 10.26140   1.11254  24.27042
 10.31146   1.08950  24.32496
 10.36151   1.08908  24.37947
 10.41157   1.11090  24.43508
 10.46162   1.12726  24.49150
 10.51168   1.17104  24.55012
 10.56174   1.16179  24.60827
 10.61179   1.29219  24.67295
 10.66185   1.25303  24.73568
 10.71190   1.22476  24.79698
 10.76196   1.19713  24.85691
 10.81201   1.18742  24.91634
 10.86207   1.14702  24.97376
 10.91212   1.13494  25.03057
 10.96218   1.12285  25.08677
 11.01224   1.06762  25.14021
 11.06229   1.03362  25.19195
 11.11235   1.04116  25.24407
 11.16240   1.02079  25.29516
 11.21246   1.00720  25.34558
 11.26251   0.99844  25.39556
 11.31257   0.99013  25.44512
 11.36263   0.97757  25.49405
 11.41268   0.96710  25.54246
 11.46274   0.96680  25.59085
 11.51279   0.97942  25.63988
 11.56285   0.98584  25.68923
 11.61290   0.99420  25.73899
 11.66296   1.00691  25.78939
 11.71301   1.02467  25.84068
 11.76307   1.03556  25.89252
 11.81313   1.02357  25.94375
 11.86318   1.01206  25.99441
 11.91324   1.02684  26.04581
 11.96329   1.04843  26.09829
 12.01335   1.02560  26.14963
 12.06340   0.97560  26.19846
 12.11346   0.94027  26.24553
 12.16352   0.92410  26.29179
 12.21357   0.94253  26.33896
 12.26363   0.89202  26.38362
 12.31368   0.79295  26.42331
 12.36374   0.75793  26.46125
 12.41379   0.78557  26.50057
 12.46385   0.83642  26.54243
 12.51390   0.90012  26.58749
 12.56396   0.95959  26.63552
 12.61402   0.96123  26.68364
 12.66407   1.00437  26.73391
 12.71413   1.03337  26.78564
 12.76418   1.05533  26.83846
 12.81424   1.04097  26.89057
 12.86429   1.01853  26.94155
 12.91435   0.98997  26.99111
 12.96440   0.98440  27.04038
 13.01446   0.94081  27.08748
 13.06452   0.90295  27.13267
 13.11457   0.86023  27.17573
 13.16463   0.82324  27.21694
 13.21468   0.80380  27.25718
 13.26474   0.80283  27.29736
 13.31479   0.83573  27.33919
 13.36485   0.91205  27.38485
 13.41491   0.99076  27.43444
 13.46496   0.94096  27.48154
 13.51502   0.84707  27.52394
 13.56507   0.81240  27.56461
 13.61513   0.81956  27.60563
 13.66518   0.84439  27.64790
 13.71524   0.89380  27.69264
 13.76529   0.98067  27.74172
 13.81535   1.06180  27.79487
 13.86541   1.00762  27.84531
 13.91546   1.01616  27.89618
 13.96552   1.05920  27.94919
 14.01557   1.09882  28.00420
 14.06563   1.15557  28.06204
 14.11568   1.16459  28.12033
 14.16574   1.18820  28.17981
 14.21580   1.22987  28.24137
 14.26585   1.30382  28.30664
 14.31591   1.36576  28.37500
 14.36596   1.35392  28.44277
 14.41602   1.27209  28.50645
 14.46607   1.20118  28.56657
 14.51613   1.13788  28.62353
 14.56618   1.09362  28.67827
 14.61624   1.09147  28.73291
 14.66630   0.89215  28.77756
 14.71635   0.84562  28.81989
 14.76641   0.82826  28.86135
 14.81646   0.81568  28.90218
 14.86652   0.82534  28.94349
 14.91657   0.81274  28.98417
 14.96663   0.79657  29.02405
 15.01669   0.78879  29.06353
 15.06674   0.79872  29.10351
 15.11680   0.80992  29.14405
 15.16685   0.82953  29.18557
 15.21691   0.89193  29.23022
 15.26696   0.88129  29.27433
 15.31702   0.85025  29.31689
 15.36707   0.82366  29.35812
 15.41713   0.80868  29.39860
 15.46719   0.79355  29.43832
 15.51724   0.77932  29.47733
 15.56730   0.76386  29.51557
 15.61735   0.75246  29.55323
 15.66741   0.75805  29.59118
 15.71746   0.75733  29.62909
 15.76752   0.74994  29.66663
 15.81758   0.74271  29.70380
 15.86763   0.72769  29.74023
 15.91769   0.72570  29.77655
 15.96774   0.75974  29.81458
 16.01780   0.79729  29.85449
 16.06785   0.81441  29.89526
 16.11791   0.83913  29.93726
 16.16796   0.85494  29.98005
 16.21802   0.86490  30.02335
 16.26808   0.86553  30.06667
 16.31813   0.86037  30.10974
 16.36819   0.86978  30.15328
 16.41824   0.86990  30.19682
 16.46830   0.86321  30.24003
 16.51835   0.87549  30.28385
 16.56841   0.90150  30.32898
 16.61846   0.93604  30.37583
 16.66852   0.97278  30.42452
 16.71858   1.02735  30.47595
 16.76863   1.05900  30.52896
 16.81869   1.10071  30.58405
 16.86874   1.22484  30.64536
 16.91880   1.22413  30.70664
 16.96885   1.25705  30.76956
 17.01891   1.29820  30.83454
 17.06897   1.29077  30.89915
 17.11902   1.29576  30.96401
 17.16908   1.29542  31.02886
 17.21913   1.26813  31.09233
 17.26919   1.23990  31.15440
 17.31924   1.26976  31.21796
 17.36930   1.33238  31.28465
 17.41935   1.36830  31.35314
 17.46941   1.42741  31.42459
 17.51947   1.61331  31.50535
 17.56952   1.71938  31.59141
 17.61958   1.67393  31.67520
 17.66963   1.75241  31.76292
 17.71969   1.79727  31.85288
 17.76974   1.69763  31.93786
 17.81980   1.61707  32.01880
 17.86986   1.56500  32.09714
 17.91991   1.52994  32.17372
 17.96997   1.48932  32.24827
 18.02002   1.45072  32.32088
 18.07008   1.40005  32.39097
 18.12013   1.34675  32.45838
 18.17019   1.22232  32.51956
 18.22024   1.14642  32.57695
 18.27030   1.07678  32.63085
 18.32036   1.00980  32.68139
 18.37041   1.01005  32.73195
 18.42047   0.99852  32.78193
 18.47052   0.98616  32.83129
 18.52058   0.97401  32.88005
 18.57063   0.96763  32.92848
 18.62069   0.96401  32.97674
 18.67075   0.96283  33.02493
 18.72080   0.94861  33.07242
 18.77086   0.91362  33.11815
 18.82091   0.85903  33.16115
 18.87097   0.80472  33.20143
 18.92102   0.76952  33.23995
 18.97108   0.74581  33.27728
 19.02113   0.72814  33.31373
 19.07119   0.71164  33.34935
 19.12125   0.69494  33.38413
 19.17130   0.67728  33.41804
 19.22136   0.66794  33.45147
 19.27141   0.67367  33.48519
 19.32147   0.68031  33.51925
 19.37152   0.67921  33.55324
 19.42158   0.67158  33.58686
 19.47164   0.66880  33.62034
 19.52169   0.63837  33.65229
 19.57175   0.57538  33.68109
 19.62180   0.53696  33.70797
 19.67186   0.51138  33.73357
 19.72191   0.45935  33.75656
 19.77197   0.39866  33.77652
 19.82202   0.31993  33.79253
 19.87208   0.27483  33.80629
 19.92214   0.25873  33.81924
 19.97219   0.24262  33.83138
 20.02225   0.22697  33.84274
 20.07230   0.21086  33.85330
 20.12236   0.19992  33.86330
 20.17241   0.19158  33.87289
 20.22247   0.18215  33.88201
 20.27253   0.17040  33.89054
 20.32258   0.15994  33.89855
 20.37264   0.15068  33.90609
 20.42269   0.14311  33.91325
 20.47275   0.13560  33.92004
 20.52280   0.12884  33.92649
 20.57286   0.12311  33.93265
 20.62291   0.11886  33.93860
 20.67297   0.11515  33.94436
 20.72303   0.11086  33.94991
 20.77308   0.10764  33.95530
 20.82314   0.10449  33.96053
 20.87319   0.09716  33.96540
 20.92325   0.08990  33.96990
 20.97330   0.08274  33.97404
 21.02336   0.07569  33.97783
 21.07341   0.06875  33.98127
 21.12347   0.06191  33.98437
 21.17353   0.05516  33.98713
 21.22358   0.04834  33.98955
 21.27364   0.04074  33.99159
 21.32369   0.03252  33.99321
 21.37375   0.02496  33.99446
 21.42380   0.01817  33.99537
 21.47386   0.01211  33.99598
 21.52392   0.00639  33.99630
 21.57397   0.00172  33.99639
 21.62403   0.00006  33.99639
 21.67408   0.00000  33.99639
 21.72414   0.00000  33.99639
 21.77419   0.00000  33.99639
 21.82425   0.00000  33.99639
 21.87430   0.00000  33.99639
 21.92436   0.00000  33.99639
 21.97442   0.00000  33.99639
 22.02447   0.00000  33.99639
 22.07453   0.00000  33.99639
 22.12458   0.00000  33.99639
 22.17464   0.00000  33.99639
 22.22469   0.00000  33.99639
 22.27475   0.00000  33.99639
 22.32481   0.00000  33.99639
 22.37486   0.00000  33.99639
 22.42492   0.00000  33.99639
 22.47497   0.00000  33.99639
 22.52503   0.00000  33.99639
 22.57508   0.00000  33.99639
 22.62514   0.00000  33.99639
 22.67519   0.00000  33.99639
 22.72525   0.00000  33.99639
 22.77531   0.00000  33.99639
 22.82536   0.00000  33.99639
 22.87542   0.00000  33.99639
 22.92547   0.00000  33.99639
 22.97553   0.00000  33.99639
 23.02558   0.00000  33.99639
 23.07564   0.00000  33.99639
 23.12570   0.00000  33.99639
 23.17575   0.00000  33.99639
 23.22581   0.00000  33.99639
 23.27586   0.00000  33.99639
 23.32592   0.00000  33.99639
 23.37597   0.00000  33.99639
 23.42603   0.00000  33.99639
 23.47608   0.00000  33.99639
 23.52614   0.00000  33.99639
 23.57620   0.00000  33.99639
 23.62625   0.00000  33.99639
 23.67631   0.00000  33.99639
 23.72636   0.00000  33.99639
 23.77642   0.00000  33.99639
 23.82647   0.00000  33.99639
 23.87653   0.00000  33.99639
 23.92659   0.00000  33.99639
 23.97664   0.00000  33.99639
 24.02670   0.00000  33.99639
 24.07675   0.00000  33.99639
 24.12681   0.00000  33.99639
 24.17686   0.00000  33.99639
 24.22692   0.00000  33.99639
 24.27697   0.00000  33.99639
 24.32703   0.00000  33.99639
 24.37709   0.00000  33.99639
 24.42714   0.00000  33.99639
 24.47720   0.00000  33.99639
 24.52725   0.00000  33.99639
 24.57731   0.00000  33.99639
 24.62736   0.00000  33.99639
 24.67742   0.00000  33.99639
 24.72747   0.00000  33.99639
 24.77753   0.00000  33.99639
 24.82759   0.00000  33.99639
 24.87764   0.00000  33.99639
 24.92770   0.00000  33.99639
 24.97775   0.00000  33.99639
 25.02781   0.00000  33.99639
     25.02780868     -20.02224694   901       9.26051757       1.00000000; Z= 42; 5s 4p_y 4p_z 4p_x 4d_xy 4d_yz 4d_z^2 4d_xz 4d_x^2-y^2 
-20.02225   0.00000   0.00000   0.00000   0.00000   0.00000   0.00000   0.00000   0.00000   0.00000
-19.97219   0.00000   0.00000   0.00000   0.00000   0.00000   0.00000   0.00000   0.00000   0.00000
-19.92214   0.00000   0.00000   0.00000   0.00000   0.00000   0.00000   0.00000   0.00000   0.00000
-19.87208   0.00000   0.00000   0.00000   0.00000   0.00000   0.00000   0.00000   0.00000   0.00000
-19.82202   0.00000   0.00000   0.00000   0.00000   0.00000   0.00000   0.00000   0.00000   0.00000
-19.77197   0.00000   0.00000   0.00000   0.00000   0.00000   0.00000   0.00000   0.00000   0.00000
-19.72191   0.00000   0.00000   0.00000   0.00000   0.00000   0.00000   0.00000   0.00000   0.00000
-19.67186   0.00000   0.00000   0.00000   0.00000   0.00000   0.00000   0.00000   0.00000   0.00000
-19.62180   0.00000   0.00000   0.00000   0.00000   0.00000   0.00000   0.00000   0.00000   0.00000
-19.57175   0.00000   0.00000   0.00000   0.00000   0.00000   0.00000   0.00000   0.00000   0.00000
-19.52169   0.00000   0.00000   0.00000   0.00000   0.00000   0.00000   0.00000   0.00000   0.00000
-19.47164   0.00000   0.00000   0.00000   0.00000   0.00000   0.00000   0.00000   0.00000   0.00000
-19.42158   0.00000   0.00000   0.00000   0.00000   0.00000   0.00000   0.00000   0.00000   0.00000
-19.37152   0.00000   0.00000   0.00000   0.00000   0.00000   0.00000   0.00000   0.00000   0.00000
-19.32147   0.00000   0.00000   0.00000   0.00000   0.00000   0.00000   0.00000   0.00000   0.00000
-19.27141   0.00000   0.00000   0.00000   0.00000   0.00000   0.00000   0.00000   0.00000   0.00000
-19.22136   0.00000   0.00000   0.00000   0.00000   0.00000   0.00000   0.00000   0.00000   0.00000
-19.17130   0.00000   0.00000   0.00000   0.00000   0.00000   0.00000   0.00000   0.00000   0.00000
-19.12125   0.00000   0.00000   0.00000   0.00000   0.00000   0.00000   0.00000   0.00000   0.00000
-19.07119   0.00000   0.00000   0.00000   0.00000   0.00000   0.00000   0.00000   0.00000   0.00000
-19.02113   0.00000   0.00000   0.00000   0.00000   0.00000   0.00000   0.00000   0.00000   0.00000
-18.97108   0.00000   0.00000   0.00000   0.00000   0.00000   0.00000   0.00000   0.00000   0.00000
-18.92102   0.00000   0.00000   0.00000   0.00000   0.00000   0.00000   0.00000   0.00000   0.00000
-18.87097   0.00000   0.00000   0.00000   0.00000   0.00000   0.00000   0.00000   0.00000   0.00000
-18.82091   0.00000   0.00000   0.00000   0.00000   0.00000   0.00000   0.00000   0.00000   0.00000