    3    3    1    1
  0.8604740E+01  0.3002604E-09  0.3002604E-09  0.3306224E-09  0.5000000E-15
   1.0000000000000000E-004
  CAR 
 Name                                    
     12   4913     18

  0.3742002E-15  0.3742002E-15  0.3742002E-15  0.2035416E-03
    1       -5.674147   1.000000
    2        4.220171   1.000000
    3        4.629607   1.000000
    4        4.629623   1.000000
    5        5.501578   1.000000
    6        9.331581   0.159144
    7        9.331593   0.014931
    8       11.556134   0.000000
    9       11.556149   0.000000
   10       14.084250   0.000000
   11       14.084271   0.000000
   12       15.024262   0.000000
   13       17.601064   0.000000
   14       17.847784   0.000000
   15       26.640223   0.000000
   16       26.640244   0.000000
   17       28.707086   0.000000
   18       31.093157   0.000000

  0.5882353E-01  0.3706497E-15  0.3742002E-15  0.2035416E-03
    1       -5.604822   1.000000
    2        4.276966   1.000000
    3        4.458434   1.000000
    4        4.660006   1.000000
    5        5.353365   1.000000
    6        9.299100   0.587621
    7        9.544187  -0.009851
    8       11.213603   0.000000
    9       11.281655   0.000000
   10       14.343380   0.000000
   11       14.535913   0.000000
   12       15.267359   0.000000
   13       17.340060   0.000000
   14       17.949007   0.000000
   15       26.773834   0.000000
   16       27.091741   0.000000
   17       28.774250   0.000000
   18       31.156843   0.000000

  0.1176471E+00  0.3767996E-15  0.3742002E-15  0.2035416E-03
    1       -5.399239   1.000000
    2        3.980403   1.000000
    3        4.438515   1.000000
    4        4.739593   1.000000
    5        4.995917   1.000000
    6        9.207485   0.994133
    7       10.076647   0.000000
    8       10.526448   0.000000
    9       10.788591   0.000000
   10       14.777767   0.000000
   11       15.564609   0.000000
   12       15.975354   0.000000
   13       16.720529   0.000000
   14       18.218878   0.000000
   15       27.163134   0.000000
   16       28.273860   0.000000
   17       28.951214   0.000000
   18       31.289707   0.000000

  0.1764706E+00  0.3607731E-15  0.3742002E-15  0.2035416E-03
    1       -5.064285   1.000000
    2        3.307829   1.000000
    3        4.569590   1.000000
    4        4.625538   1.000000
    5        4.836942   1.000000
    6        9.072619   1.000000
    7        9.896089   0.000000
    8       10.389749   0.000000
    9       10.724374   0.000000
   10       15.096218   0.000000
   11       16.055916   0.000000
   12       16.866361   0.000000
   13       17.035314   0.000000
   14       18.539194   0.000000
   15       27.776883   0.000000
   16       29.097428   0.000000
   17       29.787171   0.000000
   18       31.278664   0.000000

  0.2352941E+00  0.3655633E-15  0.3742002E-15  0.2035416E-03
    1       -4.610475   1.000000
    2        2.520843   1.000000
    3        4.161378   1.000000
    4        4.734096   1.000000
    5        4.912405   1.000000
    6        8.915991   1.000000
    7        9.568610   0.000000
    8       10.188863   0.000000
    9       11.264501   0.000000
   10       15.286035   0.000000
   11       15.641296   0.000000
   12       18.257510   0.000000
   13       18.334100   0.000000
   14       18.755238   0.000000
   15       28.563217   0.000000
   16       28.771177   0.000000
   17       30.508704   0.000000
   18       31.122870   0.000000

  0.2941176E+00  0.3668569E-15  0.3742002E-15  0.2035416E-03
    1       -4.050994   1.000000
    2        1.675140   1.000000
    3        3.813136   1.000000
    4        4.675360   1.000000
    5        4.939578   1.000000
    6        8.760000   1.000000
    7        9.680786   0.000000
    8       10.197582   0.000000
    9       11.493825   0.000000
   10       15.388967   0.000000
   11       15.698721   0.000000
   12       18.531385   0.000000
   13       19.683032   0.000000
   14       19.911286   0.000000
   15       27.891813   0.000000
   16       29.379378   0.000000
   17       29.448127   0.000000
   18       29.501792   0.000000

  0.3529412E+00  0.3820644E-15  0.3742002E-15  0.2035416E-03
    1       -3.401469   1.000000
    2        0.803772   1.000000
    3        3.543966   1.000000
    4        4.486151   1.000000
    5        4.922057   1.000000
    6        8.624724   1.000000
    7       10.184537   0.000000
    8       10.359360   0.000000
    9       11.422085   0.000000
   10       15.436008   0.000000
   11       16.185048   0.000000
   12       18.057291   0.000000
   13       20.959595   0.000000
   14       21.532590   0.000000
   15       27.020184   0.000000
   16       27.934112   0.000000
   17       28.193773   0.000000
   18       30.329799   0.000000

  0.4117647E+00  0.3552411E-15  0.3742002E-15  0.2035416E-03
    1       -2.683115   1.000000
    2       -0.065662   1.000000
    3        3.362178   1.000000
    4        4.284144   1.000000
    5        4.886086   1.000000
    6        8.525774   1.000000
    7       10.569258   0.000000
    8       10.868244   0.000000
    9       11.249946   0.000000
   10       15.440509   0.000000
   11       16.802284   0.000000
   12       17.375820   0.000000
   13       22.055238   0.000000
   14       23.064469   0.000000
   15       26.378128   0.000000
   16       26.881703   0.000000
   17       27.091538   0.000000
   18       31.085219   0.000000

  0.4705882E+00  0.3565347E-15  0.3742002E-15  0.2035416E-03
    1       -1.959932   1.000000
    2       -0.865463   1.000000
    3        3.270812   1.000000
    4        4.162160   1.000000
    5        4.859908   1.000000
    6        8.473666   1.000000
    7       10.712477   0.000000
    8       11.132011   0.000000
    9       11.400118   0.000000
   10       15.413235   0.000000
   11       16.851137   0.000000
   12       17.226559   0.000000
   13       22.742227   0.000000
   14       24.153764   0.000000
   15       26.004396   0.000000
   16       26.322321   0.000000
   17       26.444716   0.000000
   18       30.879207   0.000000

 -0.4705882E+00  0.3925045E-15  0.3742002E-15  0.2035416E-03
    1       -1.959932   1.000000
    2       -0.865463   1.000000
    3        3.270812   1.000000
    4        4.162160   1.000000
    5        4.859908   1.000000
    6        8.473666   1.000000
    7       10.712477   0.000000
    8       11.132011   0.000000
    9       11.400118   0.000000
   10       15.413235   0.000000
   11       16.851137   0.000000
   12       17.226559   0.000000
   13       22.742227   0.000000
   14       24.153775   0.000000
   15       26.004403   0.000000
   16       26.322327   0.000000
   17       26.444717   0.000000
   18       30.863407   0.000000

 -0.4117647E+00  0.4077120E-15  0.3742002E-15  0.2035416E-03
    1       -2.683115   1.000000
    2       -0.065662   1.000000
    3        3.362178   1.000000
    4        4.284144   1.000000
    5        4.886086   1.000000
    6        8.525774   1.000000
    7       10.569258   0.000000
    8       10.868244   0.000000
    9       11.249946   0.000000
   10       15.440509   0.000000
   11       16.802284   0.000000
   12       17.375820   0.000000
   13       22.055238   0.000000
   14       23.064469   0.000000
   15       26.378136   0.000000
   16       26.881712   0.000000
   17       27.091538   0.000000
   18       31.071564   0.000000

 -0.3529412E+00  0.3600539E-15  0.3742002E-15  0.2035416E-03
    1       -3.401469   1.000000
    2        0.803772   1.000000
    3        3.543966   1.000000
    4        4.486151   1.000000
    5        4.922057   1.000000
    6        8.624724   1.000000
    7       10.184537   0.000000
    8       10.359360   0.000000
    9       11.422085   0.000000
   10       15.436008   0.000000
   11       16.185048   0.000000
   12       18.057291   0.000000
   13       20.959595   0.000000
   14       21.532590   0.000000
   15       27.020188   0.000000
   16       27.934099   0.000000
   17       28.193774   0.000000
   18       30.339071   0.000000

 -0.2941176E+00  0.3821823E-15  0.3742002E-15  0.2035416E-03
    1       -4.050994   1.000000
    2        1.675140   1.000000
    3        3.813136   1.000000
    4        4.675360   1.000000
    5        4.939578   1.000000
    6        8.760000   1.000000
    7        9.680786   0.000000
    8       10.197582   0.000000
    9       11.493825   0.000000
   10       15.388967   0.000000
   11       15.698721   0.000000
   12       18.531385   0.000000
   13       19.683032   0.000000
   14       19.911286   0.000000
   15       27.891814   0.000000
   16       29.379480   0.000000
   17       29.448322   0.000000
   18       29.501839   0.000000

 -0.2352941E+00  0.3765912E-15  0.3742002E-15  0.2035416E-03
    1       -4.610475   1.000000
    2        2.520843   1.000000
    3        4.161378   1.000000
    4        4.734096   1.000000
    5        4.912405   1.000000
    6        8.915991   1.000000
    7        9.568610   0.000000
    8       10.188863   0.000000
    9       11.264501   0.000000
   10       15.286035   0.000000
   11       15.641296   0.000000
   12       18.257510   0.000000
   13       18.334100   0.000000
   14       18.755238   0.000000
   15       28.563278   0.000000
   16       28.771192   0.000000
   17       30.512618   0.000000
   18       31.178154   0.000000

 -0.1764706E+00  0.3813814E-15  0.3742002E-15  0.2035416E-03
    1       -5.064285   1.000000
    2        3.307829   1.000000
    3        4.569590   1.000000
    4        4.625538   1.000000
    5        4.836942   1.000000
    6        9.072619   1.000000
    7        9.896089   0.000000
    8       10.389749   0.000000
    9       10.724374   0.000000
   10       15.096218   0.000000
   11       16.055916   0.000000
   12       16.866361   0.000000
   13       17.035314   0.000000
   14       18.539194   0.000000
   15       27.776880   0.000000
   16       29.097446   0.000000
   17       29.787308   0.000000
   18       31.280509   0.000000

 -0.1176471E+00  0.3718962E-15  0.3742002E-15  0.2035416E-03
    1       -5.399239   1.000000
    2        3.980403   1.000000
    3        4.438515   1.000000
    4        4.739593   1.000000
    5        4.995917   1.000000
    6        9.207485   0.994133
    7       10.076647   0.000000
    8       10.526448   0.000000
    9       10.788591   0.000000
   10       14.777767   0.000000
   11       15.564609   0.000000
   12       15.975354   0.000000
   13       16.720529   0.000000
   14       18.218878   0.000000
   15       27.163135   0.000000
   16       28.273861   0.000000
   17       28.951224   0.000000
   18       31.289837   0.000000

 -0.5882353E-01  0.3766864E-15  0.3742002E-15  0.2035416E-03
    1       -5.604822   1.000000
    2        4.276966   1.000000
    3        4.458434   1.000000
    4        4.660006   1.000000
    5        5.353365   1.000000
    6        9.299100   0.587621
    7        9.544187  -0.009851
    8       11.213603   0.000000
    9       11.281655   0.000000
   10       14.343380   0.000000
   11       14.535913   0.000000
   12       15.267359   0.000000
   13       17.340060   0.000000
   14       17.949007   0.000000
   15       26.773812   0.000000
   16       27.091734   0.000000
   17       28.774258   0.000000
   18       31.156985   0.000000

  0.3742002E-15  0.5882353E-01  0.3742002E-15  0.2035416E-03
    1       -5.604822   1.000000
    2        4.276966   1.000000
    3        4.458434   1.000000
    4        4.660007   1.000000
    5        5.353365   1.000000
    6        9.299100   0.587621
    7        9.544187  -0.009851
    8       11.213602   0.000000
    9       11.281656   0.000000
   10       14.343382   0.000000
   11       14.535911   0.000000
   12       15.267360   0.000000
   13       17.340060   0.000000
   14       17.949007   0.000000
   15       26.773814   0.000000
   16       27.091744   0.000000
   17       28.774255   0.000000
   18       31.156893   0.000000

  0.5882353E-01  0.5882353E-01  0.3742002E-15  0.2035416E-03
    1       -5.467348   1.000000
    2        4.144887   1.000000
    3        4.374310   1.000000
    4        4.715787   1.000000
    5        5.104308   1.000000
    6        9.222715   0.979098
    7        9.928494   0.000000
    8       10.748409   0.000000
    9       10.885210   0.000000
   10       14.737564   0.000000
   11       15.159970   0.000000
   12       15.771953   0.000000
   13       16.902963   0.000000
   14       18.137143   0.000000
   15       27.025495   0.000000
   16       27.915124   0.000000
   17       28.897143   0.000000
   18       31.255714   0.000000

  0.1176471E+00  0.5882353E-01  0.3742002E-15  0.2035416E-03
    1       -5.196990   1.000000
    2        3.595248   1.000000
    3        4.482322   1.000000
    4        4.726692   1.000000
    5        4.846243   1.000000
    6        9.070201   1.000000
    7       10.111489   0.000000
    8       10.487697   0.000000
    9       10.554445   0.000000
   10       15.145791   0.000000
   11       16.080381   0.000000
   12       16.267724   0.000000
   13       16.785130   0.000000
   14       18.445136   0.000000
   15       27.489118   0.000000
   16       29.069452   0.000000
   17       29.312266   0.000000
   18       31.295314   0.000000

  0.1764706E+00  0.5882353E-01  0.3742002E-15  0.2035416E-03
    1       -4.802287   1.000000
    2        2.891745   1.000000
    3        4.329560   1.000000
    4        4.480398   1.000000
    5        5.064186   1.000000
    6        8.866695   1.000000
    7        9.581029  -0.006358
    8       10.291845   0.000000
    9       11.220433   0.000000
   10       15.387305   0.000000
   11       15.718868   0.000000
   12       17.222804   0.000000
   13       18.109164   0.000000
   14       18.726014   0.000000
   15       28.079749   0.000000
   16       28.990082   0.000000
   17       30.774262   0.000000
   18       31.087079   0.000000

  0.2352941E+00  0.5882353E-01  0.3742002E-15  0.2035416E-03
    1       -4.294909   1.000000
    2        2.098975   1.000000
    3        3.972640   1.000000
    4        4.350148   1.000000
    5        5.263461   1.000000
    6        8.639878   1.000000
    7        9.355591   0.058089
    8       10.340514   0.000000
    9       11.700920   0.000000
   10       15.513163   0.000000
   11       15.522488   0.000000
   12       18.371398   0.000000
   13       18.924981   0.000000
   14       19.582555   0.000000
   15       28.269226   0.000000
   16       28.518794   0.000000
   17       29.952284   0.000000
   18       30.797622   0.000000

  0.2941176E+00  0.5882353E-01  0.3742002E-15  0.2035416E-03
    1       -3.688932   1.000000
    2        1.256943   1.000000
    3        3.683756   1.000000
    4        4.137314   1.000000
    5        5.350093   1.000000
    6        8.419265   1.000000
    7        9.507945  -0.012176
    8       10.594861   0.000000
    9       11.843846   0.000000
   10       15.572837   0.000000
   11       15.819114   0.000000
   12       18.380845   0.000000
   13       19.986803   0.000000
   14       21.104983   0.000000
   15       27.337071   0.000000
   16       28.094431   0.000000
   17       28.480938   0.000000
   18       30.768018   0.000000

  0.3529412E+00  0.5882353E-01  0.3742002E-15  0.2035416E-03
    1       -3.001543   1.000000
    2        0.394007   1.000000
    3        3.474479   1.000000
    4        3.915075   1.000000
    5        5.337405   1.000000
    6        8.234222   1.000000
    7        9.930066  -0.014646
    8       10.952149   0.000000
    9       11.759199   0.000000
   10       15.602780   0.000000
   11       16.427368   0.000000
   12       17.839657   0.000000
   13       21.252292   0.000000
   14       22.566520   0.000000
   15       26.602358   0.000000
   16       27.087026   0.000000
   17       27.256035   0.000000
   18       31.300216   0.000000

  0.4117647E+00  0.5882353E-01  0.3742002E-15  0.2035416E-03
    1       -2.262147   1.000000
    2       -0.453925   1.000000
    3        3.348641   1.000000
    4        3.752969   1.000000
    5        5.295540   1.000000
    6        8.110820   1.000000
    7       10.373642   0.000000
    8       11.274200   0.000000
    9       11.641350   0.000000
   10       15.633394   0.000000
   11       17.004729   0.000000
   12       17.241192   0.000000
   13       22.271307   0.000000
   14       23.730862   0.000000
   15       26.172600   0.000000
   16       26.242469   0.000000
   17       26.450966   0.000000
   18       30.473493   0.000000

  0.4705882E+00  0.5882353E-01  0.3742002E-15  0.2035416E-03
    1       -1.704530   1.000000
    2       -1.048350   1.000000
    3        3.306702   1.000000
    4        3.694270   1.000000
    5        5.276066   1.000000
    6        8.067454   1.000000
    7       10.563840   0.000000
    8       11.409548   0.000000
    9       11.592930   0.000000
   10       15.657635   0.000000
   11       16.964135   0.000000
   12       17.243703   0.000000
   13       22.698972   0.000000
   14       24.167444   0.000000
   15       25.914731   0.000000
   16       26.095159   0.000000
   17       26.160145   0.000000
   18       29.966795   0.000000

 -0.4705882E+00  0.5882353E-01  0.3742002E-15  0.2035416E-03
    1       -2.262147   1.000000
    2       -0.453924   1.000000
    3        3.348640   1.000000
    4        3.752966   1.000000
    5        5.295541   1.000000
    6        8.110822   1.000000
    7       10.373648   0.000000
    8       11.274195   0.000000
    9       11.641349   0.000000
   10       15.633394   0.000000
   11       17.004731   0.000000
   12       17.241191   0.000000
   13       22.271303   0.000000
   14       23.730862   0.000000
   15       26.172589   0.000000
   16       26.242460   0.000000
   17       26.450972   0.000000
   18       30.473582   0.000000

 -0.4117647E+00  0.5882353E-01  0.3742002E-15  0.2035416E-03
    1       -3.001543   1.000000
    2        0.394009   1.000000
    3        3.474477   1.000000
    4        3.915069   1.000000
    5        5.337406   1.000000
    6        8.234225   1.000000
    7        9.930076  -0.017084
    8       10.952140   0.000000
    9       11.759197   0.000000
   10       15.602781   0.000000
   11       16.427371   0.000000
   12       17.839654   0.000000
   13       21.252283   0.000000
   14       22.566529   0.000000
   15       26.602354   0.000000
   16       27.087012   0.000000
   17       27.256041   0.000000
   18       31.341140   0.000000

 -0.3529412E+00  0.5882353E-01  0.3742002E-15  0.2035416E-03
    1       -3.688931   1.000000
    2        1.256947   1.000000
    3        3.683754   1.000000
    4        4.137306   1.000000
    5        5.350094   1.000000
    6        8.419270   1.000000
    7        9.507957  -0.008227
    8       10.594850   0.000000
    9       11.843844   0.000000
   10       15.572839   0.000000
   11       15.819117   0.000000
   12       18.380843   0.000000
   13       19.986789   0.000000
   14       21.104997   0.000000
   15       27.337066   0.000000
   16       28.094419   0.000000
   17       28.481049   0.000000
   18       30.808841   0.000000

 -0.2941176E+00  0.5882353E-01  0.3742002E-15  0.2035416E-03
    1       -4.294909   1.000000
    2        2.098981   1.000000
    3        3.972637   1.000000
    4        4.350139   1.000000
    5        5.263461   1.000000
    6        8.639884   1.000000
    7        9.355603   0.054590
    8       10.340501   0.000000
    9       11.700917   0.000000
   10       15.513166   0.000000
   11       15.522490   0.000000
   12       18.371395   0.000000
   13       18.924964   0.000000
   14       19.582573   0.000000
   15       28.269214   0.000000
   16       28.518846   0.000000
   17       29.944976   0.000000
   18       30.769041   0.000000

 -0.2352941E+00  0.5882353E-01  0.3742002E-15  0.2035416E-03
    1       -4.802287   1.000000
    2        2.891753   1.000000
    3        4.329557   1.000000
    4        4.480389   1.000000
    5        5.064185   1.000000
    6        8.866702   1.000000
    7        9.581041  -0.005533
    8       10.291832   0.000000
    9       11.220431   0.000000
   10       15.387309   0.000000
   11       15.718870   0.000000
   12       17.222791   0.000000
   13       18.109184   0.000000
   14       18.726005   0.000000
   15       28.079731   0.000000
   16       28.990070   0.000000
   17       30.805979   0.000000
   18       31.041242   0.000000

 -0.1764706E+00  0.5882353E-01  0.3742002E-15  0.2035416E-03
    1       -5.196990   1.000000
    2        3.595259   1.000000
    3        4.482316   1.000000
    4        4.726688   1.000000
    5        4.846237   1.000000
    6        9.070209   1.000000
    7       10.111500   0.000000
    8       10.487683   0.000000
    9       10.554442   0.000000
   10       15.145794   0.000000
   11       16.080370   0.000000
   12       16.267725   0.000000
   13       16.785150   0.000000
   14       18.445129   0.000000
   15       27.489105   0.000000
   16       29.069447   0.000000
   17       29.312284   0.000000
   18       31.294636   0.000000

 -0.1176471E+00  0.5882353E-01  0.3742002E-15  0.2035416E-03
    1       -5.467348   1.000000
    2        4.144900   1.000000
    3        4.374309   1.000000
    4        4.715775   1.000000
    5        5.104305   1.000000
    6        9.222725   0.981358
    7        9.928488   0.000000
    8       10.748421   0.000000
    9       10.885194   0.000000
   10       14.737558   0.000000
   11       15.159973   0.000000
   12       15.771965   0.000000
   13       16.902964   0.000000
   14       18.137138   0.000000
   15       27.025484   0.000000
   16       27.915138   0.000000
   17       28.897133   0.000000
   18       31.255570   0.000000

 -0.5882353E-01  0.5882353E-01  0.3742002E-15  0.2035416E-03
    1       -5.604822   1.000000
    2        4.276966   1.000000
    3        4.458446   1.000000
    4        4.659995   1.000000
    5        5.353364   1.000000
    6        9.299110   0.591819
    7        9.544179  -0.011342
    8       11.213608   0.000000
    9       11.281648   0.000000
   10       14.343370   0.000000
   11       14.535924   0.000000
   12       15.267362   0.000000
   13       17.340061   0.000000
   14       17.949005   0.000000
   15       26.773794   0.000000
   16       27.091746   0.000000
   17       28.774249   0.000000
   18       31.157103   0.000000

  0.3742002E-15  0.1176471E+00  0.3742002E-15  0.2035416E-03
    1       -5.399239   1.000000
    2        3.980403   1.000000
    3        4.438515   1.000000
    4        4.739593   1.000000
    5        4.995918   1.000000
    6        9.207485   0.994133
    7       10.076646   0.000000
    8       10.526447   0.000000
    9       10.788591   0.000000
   10       14.777768   0.000000
   11       15.564607   0.000000
   12       15.975354   0.000000
   13       16.720529   0.000000
   14       18.218878   0.000000
   15       27.163137   0.000000
   16       28.273867   0.000000
   17       28.951223   0.000000
   18       31.289804   0.000000

  0.5882353E-01  0.1176471E+00  0.3742002E-15  0.2035416E-03
    1       -5.196990   1.000000
    2        3.595248   1.000000
    3        4.482322   1.000000
    4        4.726692   1.000000
    5        4.846243   1.000000
    6        9.070201   1.000000
    7       10.111489   0.000000
    8       10.487697   0.000000
    9       10.554445   0.000000
   10       15.145792   0.000000
   11       16.080381   0.000000
   12       16.267724   0.000000
   13       16.785130   0.000000
   14       18.445136   0.000000
   15       27.489117   0.000000
   16       29.069451   0.000000
   17       29.312290   0.000000
   18       31.294771   0.000000

  0.1176471E+00  0.1176471E+00  0.3742002E-15  0.2035416E-03
    1       -4.866634   1.000000
    2        3.062031   1.000000
    3        4.337234   1.000000
    4        4.398866   1.000000
    5        5.119582   1.000000
    6        8.794783   1.000000
    7        9.590244  -0.018091
    8       10.340305   0.000000
    9       11.260304   0.000000
   10       15.609269   0.000000
   11       15.745502   0.000000
   12       16.665583   0.000000
   13       18.020589   0.000000
   14       18.731952   0.000000
   15       27.864260   0.000000
   16       29.040853   0.000000
   17       30.844973   0.000000
   18       30.933710   0.000000

  0.1764706E+00  0.1176471E+00  0.3742002E-15  0.2035416E-03
    1       -4.417568   1.000000
    2        2.417355   1.000000
    3        4.042574   1.000000
    4        4.086439   1.000000
    5        5.475216   1.000000
    6        8.438507   1.000000
    7        9.130986   0.522253
    8       10.470687   0.000000
    9       12.000737   0.000000
   10       15.370777   0.000000
   11       15.860349   0.000000
   12       17.561357   0.000000
   13       18.944865   0.000000
   14       19.432971   0.000000
   15       28.019540   0.000000
   16       28.451886   0.000000
   17       30.037668   0.000000
   18       31.557763   0.000000

  0.2352941E+00  0.1176471E+00  0.3742002E-15  0.2035416E-03
    1       -3.861876   1.000000
    2        1.684874   1.000000
    3        3.686789   1.000000
    4        3.827480   1.000000
    5        5.786299   1.000000
    6        8.059025   1.000000
    7        8.934267   1.051069
    8       10.788111   0.000000
    9       12.528072   0.000000
   10       15.382136   0.000000
   11       15.951051   0.000000
   12       18.438970   0.000000
   13       19.177821   0.000000
   14       20.902189   0.000000
   15       27.497188   0.000000
   16       27.569262   0.000000
   17       28.811686   0.000000
   18       31.301685   0.000000

  0.2941176E+00  0.1176471E+00  0.3742002E-15  0.2035416E-03
    1       -3.214143   1.000000
    2        0.886499   1.000000
    3        3.355702   1.000000
    4        3.636400   1.000000
    5        5.941738   1.000000
    6        7.711703   1.000000
    7        9.112806   0.659530
    8       11.127791   0.000000
    9       12.692784   0.000000
   10       15.873752   0.000000
   11       16.001781   0.000000
   12       18.382903   0.000000
   13       20.176231   0.000000
   14       22.296026   0.000000
   15       26.621461   0.000000
   16       26.669777   0.000000
   17       27.583282   0.000000
   18       30.769173   0.000000

  0.3529412E+00  0.1176471E+00  0.3742002E-15  0.2035416E-03
    1       -2.493654   1.000000
    2        0.053320   1.000000
    3        3.109615   1.000000
    4        3.514104   1.000000
    5        5.956931   1.000000
    6        7.446801   1.000000
    7        9.584246   0.011625
    8       11.296721   0.000000
    9       12.658302   0.000000
   10       16.110249   0.000000
   11       16.560139   0.000000
   12       17.961297   0.000000
   13       21.334130   0.000000
   14       23.376220   0.000000
   15       25.642062   0.000000
   16       26.126863   0.000000
   17       26.677518   0.000000
   18       29.892897   0.000000

  0.4117647E+00  0.1176471E+00  0.3742002E-15  0.2035416E-03
    1       -1.751243   1.000000
    2       -0.749981   1.000000
    3        2.980310   1.000000
    4        3.455358   1.000000
    5        5.932773   1.000000
    6        7.303441   1.000000
    7       10.063940   0.000000
    8       11.228753   0.000000
    9       12.606678   0.000000
   10       16.280200   0.000000
   11       17.048579   0.000000
   12       17.581105   0.000000
   13       22.187233   0.000000
   14       23.791940   0.000000
   15       25.014307   0.000000
   16       25.851892   0.000000
   17       26.406796   0.000000
   18       29.122860   0.000000

  0.4705882E+00  0.1176471E+00  0.3742002E-15  0.2035416E-03
    1       -1.751243   1.000000
    2       -0.749980   1.000000
    3        2.980308   1.000000
    4        3.455357   1.000000
    5        5.932773   1.000000
    6        7.303442   1.000000
    7       10.063944   0.000000
    8       11.228750   0.000000
    9       12.606678   0.000000
   10       16.280199   0.000000
   11       17.048581   0.000000
   12       17.581104   0.000000
   13       22.187231   0.000000
   14       23.791944   0.000000
   15       25.014305   0.000000
   16       25.851889   0.000000
   17       26.406806   0.000000
   18       29.122887   0.000000

 -0.4705882E+00  0.1176471E+00  0.3742002E-15  0.2035416E-03
    1       -2.493654   1.000000
    2        0.053324   1.000000
    3        3.109608   1.000000
    4        3.514100   1.000000
    5        5.956932   1.000000
    6        7.446806   1.000000
    7        9.584254   0.019958
    8       11.296715   0.000000
    9       12.658300   0.000000
   10       16.110249   0.000000
   11       16.560143   0.000000
   12       17.961294   0.000000
   13       21.334122   0.000000
   14       23.376226   0.000000
   15       25.642060   0.000000
   16       26.126861   0.000000
   17       26.677535   0.000000
   18       29.892969   0.000000

 -0.4117647E+00  0.1176471E+00  0.3742002E-15  0.2035416E-03
    1       -3.214142   1.000000
    2        0.886506   1.000000
    3        3.355690   1.000000
    4        3.636395   1.000000
    5        5.941738   1.000000
    6        7.711710   1.000000
    7        9.112817   0.648139
    8       11.127782   0.000000
    9       12.692781   0.000000
   10       15.873757   0.000000
   11       16.001784   0.000000
   12       18.382898   0.000000
   13       20.176218   0.000000
   14       22.296039   0.000000
   15       26.621454   0.000000
   16       26.669770   0.000000
   17       27.583302   0.000000
   18       30.767908   0.000000

 -0.3529412E+00  0.1176471E+00  0.3742002E-15  0.2035416E-03
    1       -3.861875   1.000000
    2        1.684885   1.000000
    3        3.686774   1.000000
    4        3.827474   1.000000
    5        5.786299   1.000000
    6        8.059034   1.000000