  COHP#       atomMU       atomNU     distance     translation      ICOHP (at) eF   for spin  1
      1           B2          Mo1      2.39541       0   0   0           -1.59262 
      2           B2          Mo1      2.39541       0   1   0           -1.59288 
      3           B2          Mo1      2.39541       1   1   0           -1.59245 
      4           B2          Mo1      2.39541       0   0   1           -1.59267 
      5           B2          Mo1      2.39541       0   1   1           -1.59257 
      6           B2          Mo1      2.39541       1   1   1           -1.59276 
      7           B3          Mo1      2.39541       0   0   0           -1.59273 
      8           B3          Mo1      2.39541       1   0   0           -1.59248 
      9           B3          Mo1      2.39541       1   1   0           -1.59277 
     10           B3          Mo1      2.39541       0   0   1           -1.59261 
     11           B3          Mo1      2.39541       1   0   1           -1.59282 
     12           B3          Mo1      2.39541       1   1   1           -1.59257 
