 running on    4 total cores
 distrk:  each k-point on    4 cores,    1 groups
 distr:  one band on    2 cores,    2 groups
 using from now: INCAR     
 vasp.5.4.4.18Apr17-6-g9f103f2a35 (build Dec  7 2020 12:43:57) complex           
 POSCAR found type information on POSCAR  Mo B 
 POSCAR found :  2 types and       3 ions
 scaLAPACK will be used
 LDA part: xc-table for Pade appr. of Perdew

 ----------------------------------------------------------------------------- 
|                                                                             |
|           W    W    AA    RRRRR   N    N  II  N    N   GGGG   !!!           |
|           W    W   A  A   R    R  NN   N  II  NN   N  G    G  !!!           |
|           W    W  A    A  R    R  N N  N  II  N N  N  G       !!!           |
|           W WW W  AAAAAA  RRRRR   N  N N  II  N  N N  G  GGG   !            |
|           WW  WW  A    A  R   R   N   NN  II  N   NN  G    G                |
|           W    W  A    A  R    R  N    N  II  N    N   GGGG   !!!           |
|                                                                             |
|      The number of bands has been changed from the values supplied          |
|      in the INCAR file. This is a result of running the parallel version.   |
|      The orbitals not found in the WAVECAR file will be initialized with    |
|      random numbers, which is usually adequate. For correlated              |
|      calculations, however, you should redo the groundstate calculation.    |
|      I found NBANDS    =       17  now  NBANDS  =      18                   |
|                                                                             |
 ----------------------------------------------------------------------------- 

 WARNING: stress and forces are not correct
 POSCAR, INCAR and KPOINTS ok, starting setup
 FFT: planning ...
 WAVECAR not read
 augmentation electrons   12.019473928388933     
 soft         electrons   0.0000000000000000     
 augmentation electrons   12.019473928388933     
 soft         electrons   0.0000000000000000     
 augmentation electrons   12.019473928388933     
 soft         electrons   0.0000000000000000     
 augmentation electrons   12.019473928388933     
 soft         electrons   0.0000000000000000     
 total        electrons   12.019473928388933     
 total        electrons   12.019473928388933     
 total        electrons   12.019473928388933     
 total        electrons   12.019473928388933     
 augmentation electrons   177.20266100097092     
 soft         electrons   0.0000000000000000     
 augmentation electrons   177.20266100097092     
 soft         electrons   0.0000000000000000     
 augmentation electrons   177.20266100097092     
 soft         electrons   0.0000000000000000     
 augmentation electrons   177.20266100097092     
 soft         electrons   0.0000000000000000     
 total        electrons   177.20266100097092     
 total        electrons   177.20266100097092     
 total        electrons   177.20266100097092     
 total        electrons   177.20266100097092     
 charge-density read from file: Name                                    
 entering main loop
       N       E                     dE             d eps       ncg     rms          rms(c)
DAV:   1     0.251911737136E+02    0.25191E+02   -0.51296E+03176956   0.580E+02
DAV:   2    -0.239516110844E+02   -0.49143E+02   -0.45546E+02231236   0.147E+02
DAV:   3    -0.252025674931E+02   -0.12510E+01   -0.12365E+01202096   0.196E+01
DAV:   4    -0.252049179101E+02   -0.23504E-02   -0.23497E-02208470   0.887E-01
DAV:   5    -0.252049210543E+02   -0.31441E-05   -0.31457E-05201022   0.340E-02
RMM:   6    -0.252049210619E+02   -0.75968E-08   -0.77974E-08118658   0.173E-03
   1 F= -.25204921E+02 E0= -.25204921E+02  d E =0.000000E+00
 writing wavefunctions
 augmentation electrons   1.1773900154482733     
 augmentation electrons   1.1773900154482733     
 soft         electrons   10.844949018020753     
 augmentation electrons   1.1773900154482733     
 soft         electrons   10.844949018020753     
 soft         electrons   10.844949018020753     
 augmentation electrons   1.1773900154482733     
 soft         electrons   10.844949018020753     
 total        electrons   12.022339033469025     
 total        electrons   12.022339033469025     
 total        electrons   12.022339033469025     
 total        electrons   12.022339033469025     
