   24   24    1    1
  0.8602741E+01  0.6071501E-09  0.6071501E-09  0.6465832E-09  0.5000000E-15
   1.0000000000000000E-004
  CAR 
 Name                                    
     94    666     60

  0.3742002E-15  0.3742002E-15  0.3742002E-15  0.7513148E-03
    1       -5.734685   1.000000
    2       -3.650835   1.000000
    3       -2.522685   1.000000
    4       -2.399922   1.000000
    5       -2.279721   1.000000
    6       -1.813193   1.000000
    7       -1.807380   1.000000
    8       -1.804164   1.000000
    9       -1.323273   1.000000
   10       -1.296394   1.000000
   11       -1.269598   1.000000
   12       -0.033667   1.000000
   13        0.340783   1.000000
   14        0.425333   1.000000
   15        0.493595   1.000000
   16        2.489698   1.000000
   17        2.521708   1.000000
   18        2.648794   1.000000
   19        2.806221   1.000000
   20        3.005574   1.000000
   21        3.129383   1.000000
   22        3.477837   1.000000
   23        3.794419   1.000000
   24        3.870958   1.000000
   25        4.012675   1.000000
   26        4.249505   1.000000
   27        4.395115   1.000000
   28        4.540001   1.000000
   29        4.580764   1.000000
   30        4.602916   1.000000
   31        4.611525   1.000000
   32        4.647686   1.000000
   33        4.853215   1.000000
   34        4.950805   1.000000
   35        5.010321   1.000000
   36        5.017791   1.000000
   37        5.672238   1.000000
   38        6.733692   1.000000
   39        6.808898   1.000000
   40        7.244449   1.000000
   41        7.255232   1.000000
   42        7.270623   1.000000
   43        7.293655   1.000000
   44        8.378566   1.000000
   45        8.396536   1.000000
   46        8.507148   1.000000
   47        8.855826   1.000000
   48        9.116768  -0.166076
   49        9.127129   0.000000
   50        9.816132   0.000000
   51        9.888025   0.000000
   52        9.978109   0.000000
   53       10.089734   0.000000
   54       10.116823   0.000000
   55       10.168345   0.000000
   56       10.259815   0.000000
   57       10.432290   0.000000
   58       10.512914   0.000000
   59       10.908824   0.000000
   60       11.130529   0.000000

  0.9090909E-01  0.3808283E-15  0.3742002E-15  0.1502630E-02
    1       -5.694341   1.000000
    2       -3.636965   1.000000
    3       -2.540700   1.000000
    4       -2.391487   1.000000
    5       -2.308953   1.000000
    6       -2.238667   1.000000
    7       -1.933712   1.000000
    8       -1.929220   1.000000
    9       -1.121378   1.000000
   10       -1.117763   1.000000
   11       -0.842723   1.000000
   12        0.023961   1.000000
   13        0.384744   1.000000
   14        0.410784   1.000000
   15        0.547243   1.000000
   16        2.503371   1.000000
   17        2.524492   1.000000
   18        2.671279   1.000000
   19        2.811341   1.000000
   20        3.037365   1.000000
   21        3.122612   1.000000
   22        3.509345   1.000000
   23        3.758017   1.000000
   24        3.820918   1.000000
   25        3.866864   1.000000
   26        3.883183   1.000000
   27        4.364364   1.000000
   28        4.421757   1.000000
   29        4.538307   1.000000
   30        4.569760   1.000000
   31        4.638730   1.000000
   32        4.919325   1.000000
   33        4.931238   1.000000
   34        4.986857   1.000000
   35        5.102507   1.000000
   36        5.212918   1.000000
   37        5.592716   1.000000
   38        6.238204   1.000000
   39        6.298054   1.000000
   40        7.150139   1.000000
   41        7.301860   1.000000
   42        7.740569   1.000000
   43        7.806037   1.000000
   44        8.204893   1.000000
   45        8.238202   1.000000
   46        8.478394   1.000000
   47        8.874419   1.000000
   48        9.103961  -0.094367
   49        9.237905   0.000000
   50        9.804144   0.000000
   51        9.882162   0.000000
   52        9.959232   0.000000
   53       10.036815   0.000000
   54       10.047561   0.000000
   55       10.138920   0.000000
   56       10.226551   0.000000
   57       10.427003   0.000000
   58       10.469385   0.000000
   59       10.843429   0.000000
   60       10.907142   0.000000

  0.1818182E+00  0.3821840E-15  0.3742002E-15  0.1502630E-02
    1       -5.574068   1.000000
    2       -3.595150   1.000000
    3       -2.819260   1.000000
    4       -2.626043   1.000000
    5       -2.368628   1.000000
    6       -2.343543   1.000000
    7       -2.125883   1.000000
    8       -2.122805   1.000000
    9       -0.770867   1.000000
   10       -0.766111   1.000000
   11       -0.194394   1.000000
   12        0.196107   1.000000
   13        0.371993   1.000000
   14        0.380465   1.000000
   15        0.822446   1.000000
   16        2.523744   1.000000
   17        2.529827   1.000000
   18        2.758348   1.000000
   19        2.764513   1.000000
   20        3.128845   1.000000
   21        3.129721   1.000000
   22        3.259653   1.000000
   23        3.295516   1.000000
   24        3.600360   1.000000
   25        3.899957   1.000000
   26        3.918995   1.000000
   27        4.103710   1.000000
   28        4.450839   1.000000
   29        4.534527   1.000000
   30        4.598491   1.000000
   31        4.660657   1.000000
   32        4.838619   1.000000
   33        4.880794   1.000000
   34        4.924457   1.000000
   35        5.384730   1.000000
   36        5.518228   1.000000
   37        5.628714   1.000000
   38        5.655035   1.000000
   39        5.726849   1.000000
   40        6.889141   1.000000
   41        7.446335   1.000000
   42        7.770612   1.000000
   43        7.776258   1.000000
   44        8.383650   1.000000
   45        8.438912   1.000000
   46        8.604027   1.000000
   47        8.929376   1.011005
   48        9.060284   0.148272
   49        9.548297   0.000000
   50        9.761837   0.000000
   51        9.794517   0.000000
   52        9.795056   0.000000
   53        9.876544   0.000000
   54        9.922702   0.000000
   55       10.027887   0.000000
   56       10.063054   0.000000
   57       10.394391   0.000000
   58       10.417399   0.000000
   59       10.723511   0.000000
   60       10.837226   0.000000

  0.2727273E+00  0.3502790E-15  0.3742002E-15  0.1502630E-02
    1       -5.376053   1.000000
    2       -3.524917   1.000000
    3       -3.376315   1.000000
    4       -2.785291   1.000000
    5       -2.338299   1.000000
    6       -2.337485   1.000000
    7       -2.285718   1.000000
    8       -2.283630   1.000000
    9       -0.358839   1.000000
   10       -0.352297   1.000000
   11        0.321916   1.000000
   12        0.337337   1.000000
   13        0.425110   1.000000
   14        0.524786   1.000000
   15        1.269957   1.000000
   16        2.530653   1.000000
   17        2.531936   1.000000
   18        2.531987   1.000000
   19        2.716907   1.000000
   20        2.719771   1.000000
   21        2.929178   1.000000
   22        3.230279   1.000000
   23        3.269842   1.000000
   24        3.660688   1.000000
   25        3.737087   1.000000
   26        3.962315   1.000000
   27        4.025117   1.000000
   28        4.468787   1.000000
   29        4.563459   1.000000
   30        4.654172   1.000000
   31        4.699849   1.000000
   32        4.724277   1.000000
   33        4.778720   1.000000
   34        4.833296   1.000000
   35        4.929461   1.000000
   36        5.079945   1.000000
   37        5.107582   1.000000
   38        6.141502   1.000000
   39        6.260316   1.000000
   40        6.557397   1.000000
   41        7.293111   1.000000
   42        7.308089   1.000000
   43        7.676330   1.000000
   44        8.542980   1.000000
   45        8.935400   1.000000
   46        8.992664   0.993659
   47        9.017716   0.654728
   48        9.306940  -0.032981
   49        9.363773   0.000000
   50        9.365924   0.000000
   51        9.656733   0.000000
   52        9.679923   0.000000
   53        9.842961   0.000000
   54        9.869246   0.000000
   55        9.975955   0.000000
   56        9.978096   0.000000
   57       10.036916   0.000000
   58       10.219463   0.000000
   59       10.498528   0.000000
   60       10.520106   0.000000

  0.3636364E+00  0.3710175E-15  0.3742002E-15  0.1502630E-02
    1       -5.103779   1.000000
    2       -3.891458   1.000000
    3       -3.425840   1.000000
    4       -2.968319   1.000000
    5       -2.395474   1.000000
    6       -2.394246   1.000000
    7       -2.314830   1.000000
    8       -2.310411   1.000000
    9        0.071784   1.000000
   10        0.079632   1.000000
   11        0.277396   1.000000
   12        0.290671   1.000000
   13        0.820447   1.000000
   14        1.169209   1.000000
   15        1.825421   1.000000
   16        2.096172   1.000000
   17        2.180241   1.000000
   18        2.250346   1.000000
   19        2.528137   1.000000
   20        2.531911   1.000000
   21        3.058210   1.000000
   22        3.176736   1.000000
   23        3.435268   1.000000
   24        3.450654   1.000000
   25        3.762769   1.000000
   26        3.930604   1.000000
   27        4.173206   1.000000
   28        4.234769   1.000000
   29        4.346586   1.000000
   30        4.439011   1.000000
   31        4.620581   1.000000
   32        4.725579   1.000000
   33        4.747557   1.000000
   34        4.788656   1.000000
   35        4.809796   1.000000
   36        4.811656   1.000000
   37        5.072236   1.000000
   38        6.057761   1.000000
   39        6.774038   1.000000
   40        6.784315   1.000000
   41        6.893548   1.000000
   42        6.905701   1.000000
   43        7.973626   1.000000
   44        8.623706   1.000000
   45        8.830808   1.000000
   46        8.845846   1.009782
   47        8.907488   1.035560
   48        9.134157   0.063884
   49        9.236751   0.000000
   50        9.448995   0.000000
   51        9.558635   0.000000
   52        9.701577   0.000000
   53        9.815066   0.000000
   54        9.822417   0.000000
   55        9.833713   0.000000
   56        9.915729   0.000000
   57       10.031626   0.000000
   58       10.234230   0.000000
   59       10.509030   0.000000
   60       10.596997   0.000000

  0.4545455E+00  0.3725823E-15  0.3742002E-15  0.1502630E-02
    1       -4.761826   1.000000
    2       -4.355654   1.000000
    3       -3.298152   1.000000
    4       -3.143780   1.000000
    5       -2.450779   1.000000
    6       -2.450372   1.000000
    7       -2.296983   1.000000
    8       -2.294796   1.000000
    9        0.253656   1.000000
   10        0.258842   1.000000
   11        0.425729   1.000000
   12        0.430641   1.000000
   13        1.250689   1.000000
   14        1.665277   1.000000
   15        1.753676   1.000000
   16        1.821922   1.000000
   17        1.854241   1.000000
   18        2.420250   1.000000
   19        2.474408   1.000000
   20        2.518993   1.000000
   21        2.571654   1.000000
   22        3.157911   1.000000
   23        3.485582   1.000000
   24        3.572570   1.000000
   25        3.574825   1.000000
   26        3.806601   1.000000
   27        4.237506   1.000000
   28        4.270254   1.000000
   29        4.279208   1.000000
   30        4.301815   1.000000
   31        4.396798   1.000000
   32        4.523138   1.000000
   33        4.772667   1.000000
   34        4.791811   1.000000
   35        4.823040   1.000000
   36        4.844882   1.000000
   37        5.333278   1.000000
   38        5.675685   1.000000
   39        6.662051   1.000000
   40        6.666657   1.000000
   41        7.219029   1.000000
   42        7.223731   1.000000
   43        8.223951   1.000000
   44        8.344548   1.000000
   45        8.506848   1.000000
   46        8.715286   1.000000
   47        8.812362   1.000000
   48        8.814344   1.095569
   49        9.270727   0.000000
   50        9.416673   0.000000
   51        9.526967   0.000000
   52        9.563280   0.000000
   53        9.804207   0.000000
   54        9.806538   0.000000
   55        9.924264   0.000000
   56        9.928678   0.000000
   57       10.044449   0.000000
   58       10.385960   0.000000
   59       10.525267   0.000000
   60       10.782976   0.000000

  0.3741969E-15  0.9090909E-01  0.3742002E-15  0.1502630E-02
    1       -5.694341   1.000000
    2       -3.636965   1.000000
    3       -2.540699   1.000000
    4       -2.391487   1.000000
    5       -2.308953   1.000000
    6       -2.238668   1.000000
    7       -1.933710   1.000000
    8       -1.929220   1.000000
    9       -1.121378   1.000000
   10       -1.117763   1.000000
   11       -0.842723   1.000000
   12        0.023961   1.000000
   13        0.384746   1.000000
   14        0.410785   1.000000
   15        0.547241   1.000000
   16        2.503371   1.000000
   17        2.524492   1.000000
   18        2.671280   1.000000
   19        2.811341   1.000000
   20        3.037365   1.000000
   21        3.122613   1.000000
   22        3.509345   1.000000
   23        3.758017   1.000000
   24        3.820918   1.000000
   25        3.866863   1.000000
   26        3.883183   1.000000
   27        4.364365   1.000000
   28        4.421756   1.000000
   29        4.538307   1.000000
   30        4.569762   1.000000
   31        4.638731   1.000000
   32        4.919325   1.000000
   33        4.931239   1.000000
   34        4.986857   1.000000
   35        5.102506   1.000000
   36        5.212918   1.000000
   37        5.592716   1.000000
   38        6.238206   1.000000
   39        6.298053   1.000000
   40        7.150139   1.000000
   41        7.301860   1.000000
   42        7.740568   1.000000
   43        7.806038   1.000000
   44        8.204893   1.000000
   45        8.238203   1.000000
   46        8.478393   1.000000
   47        8.874419   1.000000
   48        9.103960  -0.094365
   49        9.237906   0.000000
   50        9.804144   0.000000
   51        9.882209   0.000000
   52        9.959204   0.000000
   53       10.036824   0.000000
   54       10.047736   0.000000
   55       10.138990   0.000000
   56       10.227253   0.000000
   57       10.427647   0.000000
   58       10.542906   0.000000
   59       10.914634   0.000000
   60       11.031450   0.000000

  0.9090909E-01  0.9090909E-01  0.3742002E-15  0.1502630E-02
    1       -5.614014   1.000000
    2       -3.608535   1.000000
    3       -2.580416   1.000000
    4       -2.508019   1.000000
    5       -2.495077   1.000000
    6       -2.417883   1.000000
    7       -2.311130   1.000000
    8       -1.670186   1.000000
    9       -1.240644   1.000000
   10       -0.536426   1.000000
   11       -0.476124   1.000000
   12        0.139118   1.000000
   13        0.260700   1.000000
   14        0.597245   1.000000
   15        0.644599   1.000000
   16        2.494797   1.000000
   17        2.536337   1.000000
   18        2.741385   1.000000
   19        2.794490   1.000000
   20        3.063689   1.000000
   21        3.160434   1.000000
   22        3.217922   1.000000
   23        3.573810   1.000000
   24        3.829726   1.000000
   25        3.889039   1.000000
   26        3.894776   1.000000
   27        4.037736   1.000000
   28        4.265075   1.000000
   29        4.425471   1.000000
   30        4.611998   1.000000
   31        4.855727   1.000000
   32        4.904434   1.000000
   33        4.935268   1.000000
   34        5.093683   1.000000
   35        5.122706   1.000000
   36        5.443204   1.000000
   37        5.699332   1.000000
   38        5.717051   1.000000
   39        5.839784   1.000000
   40        6.981474   1.000000
   41        7.392296   1.000000
   42        7.741020   1.000000
   43        8.145636   1.000000
   44        8.181273   1.000000
   45        8.389232   1.000000
   46        8.392674   1.000000
   47        8.911139   1.000000
   48        9.068502   0.128735
   49        9.454216   0.000000
   50        9.773680   0.000000
   51        9.875233   0.000000
   52        9.878578   0.000000
   53        9.929522   0.000000
   54        9.940619   0.000000
   55       10.028932   0.000000
   56       10.146900   0.000000
   57       10.353890   0.000000
   58       10.489222   0.000000
   59       10.798060   0.000000
   60       10.839812   0.000000

  0.1818182E+00  0.9090909E-01  0.3742002E-15  0.1502630E-02
    1       -5.454846   1.000000
    2       -3.552072   1.000000
    3       -3.074993   1.000000
    4       -2.709457   1.000000
    5       -2.681093   1.000000
    6       -2.511273   1.000000
    7       -2.217301   1.000000
    8       -1.696437   1.000000
    9       -0.975660   1.000000
   10       -0.128786   1.000000
   11        0.098021   1.000000
   12        0.156138   1.000000
   13        0.369128   1.000000
   14        0.687288   1.000000
   15        1.004547   1.000000
   16        2.468046   1.000000
   17        2.586054   1.000000
   18        2.607541   1.000000
   19        2.721994   1.000000
   20        2.860632   1.000000
   21        3.011086   1.000000
   22        3.320310   1.000000
   23        3.386569   1.000000
   24        3.686792   1.000000
   25        3.873397   1.000000
   26        3.920120   1.000000
   27        4.019698   1.000000
   28        4.062790   1.000000
   29        4.390304   1.000000
   30        4.696954   1.000000
   31        4.730723   1.000000
   32        4.860213   1.000000
   33        4.910213   1.000000
   34        5.023705   1.000000
   35        5.138084   1.000000
   36        5.199709   1.000000
   37        5.279769   1.000000
   38        5.635049   1.000000
   39        6.252359   1.000000
   40        6.691055   1.000000
   41        7.205608   1.000000
   42        7.574654   1.000000
   43        7.871983   1.000000
   44        8.339449   1.000000
   45        8.749540   1.000000
   46        8.983038   1.008294
   47        9.002136   0.726324
   48        9.045619   0.070579
   49        9.567835   0.000000
   50        9.612565   0.000000
   51        9.710357   0.000000
   52        9.782005   0.000000
   53        9.823751   0.000000
   54        9.831935   0.000000
   55        9.899462   0.000000
   56        9.918994   0.000000
   57       10.193008   0.000000
   58       10.370690   0.000000
   59       10.600429   0.000000
   60       10.640559   0.000000

  0.2727273E+00  0.9090909E-01  0.3742002E-15  0.1502630E-02
    1       -5.219652   1.000000
    2       -3.612334   1.000000
    3       -3.467119   1.000000
    4       -2.859328   1.000000
    5       -2.859117   1.000000
    6       -2.535090   1.000000
    7       -2.123838   1.000000
    8       -1.805537   1.000000
    9       -0.537949   1.000000
   10       -0.052901   1.000000
   11        0.276861   1.000000
   12        0.665786   1.000000
   13        0.722594   1.000000
   14        0.851367   1.000000
   15        1.515386   1.000000
   16        2.014708   1.000000
   17        2.430520   1.000000
   18        2.443299   1.000000
   19        2.625607   1.000000
   20        2.859208   1.000000
   21        3.033503   1.000000
   22        3.052880   1.000000
   23        3.396218   1.000000
   24        3.545192   1.000000
   25        3.794428   1.000000
   26        3.946402   1.000000
   27        4.186007   1.000000
   28        4.190779   1.000000
   29        4.340634   1.000000
   30        4.363709   1.000000
   31        4.543481   1.000000
   32        4.727943   1.000000
   33        4.768067   1.000000
   34        4.862551   1.000000
   35        4.915527   1.000000
   36        5.001640   1.000000
   37        5.167030   1.000000
   38        6.035563   1.000000
   39        6.435770   1.000000
   40        6.711837   1.000000
   41        6.802533   1.000000
   42        7.477080   1.000000
   43        7.839325   1.000000
   44        8.439997   1.000000
   45        8.909128   1.000000
   46        9.058537   0.832054
   47        9.086606   0.250799
   48        9.183878  -0.034326
   49        9.252832   0.000000
   50        9.463165   0.000000
   51        9.569507   0.000000
   52        9.645798   0.000000
   53        9.754485   0.000000
   54        9.763142   0.000000
   55        9.885963   0.000000
   56        9.969366   0.000000
   57       10.189314   0.000000
   58       10.273216   0.000000
   59       10.332065   0.000000
   60       10.387860   0.000000

  0.3636364E+00  0.9090909E-01  0.3742002E-15  0.1502630E-02
    1       -4.912447   1.000000
    2       -4.102665   1.000000
    3       -3.353531   1.000000
    4       -3.045194   1.000000
    5       -2.949390   1.000000
    6       -2.537542   1.000000
    7       -2.052423   1.000000
    8       -1.880688   1.000000
    9       -0.161087   1.000000
   10       -0.085509   1.000000
   11        0.654011   1.000000
   12        0.738024   1.000000
   13        1.070793   1.000000
   14        1.472272   1.000000
   15        1.508510   1.000000
   16        2.006273   1.000000
   17        2.112442   1.000000
   18        2.418524   1.000000
   19        2.422318   1.000000
   20        2.650256   1.000000
   21        2.753037   1.000000
   22        3.183202   1.000000
   23        3.320948   1.000000
   24        3.435806   1.000000
   25        3.766074   1.000000
   26        3.880179   1.000000
   27        4.206964   1.000000
   28        4.283058   1.000000
   29        4.317709   1.000000
   30        4.338632   1.000000
   31        4.358620   1.000000
   32        4.401441   1.000000
   33        4.628527   1.000000
   34        4.667058   1.000000
   35        4.973626   1.000000
   36        5.161468   1.000000
   37        5.197987   1.000000
   38        5.840104   1.000000
   39        6.344832   1.000000
   40        6.695477   1.000000
   41        7.180934   1.000000
   42        7.353451   1.000000
   43        8.153419   1.000000
   44        8.555146   1.000000
   45        8.621833   1.000000
   46        8.643317   1.010386
   47        8.797111   1.067274
   48        9.048025   0.528715
   49        9.214158   0.000000
   50        9.420395   0.000000
   51        9.506668   0.000000
   52        9.611686   0.000000
   53        9.709615   0.000000
   54        9.731403   0.000000
   55        9.873759   0.000000
   56       10.052795   0.000000
   57       10.155781   0.000000
   58       10.360193   0.000000
   59       10.508573   0.000000
   60       10.553389   0.000000

  0.4545455E+00  0.9090909E-01  0.3742002E-15  0.1502630E-02
    1       -4.538247   1.000000
    2       -4.538210   1.000000
    3       -3.213847   1.000000
    4       -3.212259   1.000000
    5       -2.979217   1.000000
    6       -2.534896   1.000000
    7       -2.025980   1.000000
    8       -1.906864   1.000000
    9       -0.197404   1.000000
   10        0.168989   1.000000
   11        0.739640   1.000000
   12        0.843921   1.000000
   13        1.186883   1.000000
   14        1.515772   1.000000
   15        1.534757   1.000000
   16        2.150466   1.000000
   17        2.158726   1.000000
   18        2.219315   1.000000
   19        2.399681   1.000000
   20        2.659838   1.000000
   21        2.771536   1.000000
   22        2.776526   1.000000
   23        3.196583   1.000000
   24        3.619096   1.000000
   25        3.650351   1.000000
   26        3.907223   1.000000
   27        4.159999   1.000000
   28        4.254211   1.000000
   29        4.267945   1.000000
   30        4.362487   1.000000
   31        4.411159   1.000000
   32        4.464661   1.000000
   33        4.472039   1.000000
   34        4.573481   1.000000
   35        5.089133   1.000000
   36        5.092637   1.000000
   37        5.484476   1.000000
   38        5.510720   1.000000
   39        6.203867   1.000000
   40        6.892037   1.000000
   41        7.066640   1.000000
   42        7.736935   1.000000
   43        8.221462   1.000000
   44        8.309720   1.000000
   45        8.645473   1.000000
   46        8.654526   1.000000
   47        8.674867   1.000000
   48        8.678550   1.008599
   49        9.357747   0.000000
   50        9.358984   0.000000
   51        9.417274   0.000000
   52        9.422759   0.000000
   53        9.691643   0.000000
   54        9.869761   0.000000
   55       10.013535   0.000000
   56       10.018783   0.000000
   57       10.179084   0.000000
   58       10.190705   0.000000
   59       10.227176   0.000000
   60       10.570479   0.000000

 -0.4545455E+00  0.9090909E-01  0.3742002E-15  0.1502630E-02
    1       -4.912540   1.000000
    2       -4.102734   1.000000
    3       -3.356609   1.000000
    4       -3.046744   1.000000
    5       -2.948723   1.000000
    6       -2.531295   1.000000
    7       -2.053357   1.000000
    8       -1.881756   1.000000
    9       -0.151042   1.000000
   10       -0.090792   1.000000
   11        0.664558   1.000000
   12        0.731142   1.000000
   13        1.067987   1.000000
   14        1.433860   1.000000
   15        1.570551   1.000000
   16        1.976825   1.000000
   17        2.072350   1.000000
   18        2.427960   1.000000
   19        2.452784   1.000000
   20        2.667080   1.000000
   21        2.762875   1.000000
   22        3.157249   1.000000
   23        3.297412   1.000000
   24        3.436636   1.000000
   25        3.740367   1.000000
   26        3.940304   1.000000
   27        4.160301   1.000000
   28        4.215432   1.000000
   29        4.275864   1.000000
   30        4.280887   1.000000
   31        4.505331   1.000000
   32        4.509360   1.000000
   33        4.568603   1.000000
   34        4.670955   1.000000
   35        4.966182   1.000000
   36        5.151986   1.000000
   37        5.235016   1.000000
   38        5.846144   1.000000
   39        6.350807   1.000000
   40        6.687366   1.000000
   41        7.168988   1.000000
   42        7.322788   1.000000
   43        8.186985   1.000000
   44        8.551675   1.000000
   45        8.577162   1.000000
   46        8.677920   1.007020
   47        8.801101   1.073254
   48        9.052141   0.511255
   49        9.215225   0.000000
   50        9.413916   0.000000
   51        9.506208   0.000000
   52        9.616116   0.000000
   53        9.704858   0.000000
   54        9.734143   0.000000
   55        9.878496   0.000000
   56       10.051045   0.000000
   57       10.217509   0.000000
   58       10.402457   0.000000
   59       10.523210   0.000000
   60       10.587455   0.000000

 -0.3636364E+00  0.9090909E-01  0.3742002E-15  0.1502630E-02
    1       -5.219765   1.000000
    2       -3.612570   1.000000
    3       -3.470528   1.000000
    4       -2.865678   1.000000
    5       -2.858003   1.000000
    6       -2.525958   1.000000
    7       -2.120108   1.000000
    8       -1.807809   1.000000
    9       -0.542343   1.000000
   10       -0.038052   1.000000
   11        0.289787   1.000000
   12        0.659845   1.000000
   13        0.712339   1.000000
   14        0.849840   1.000000
   15        1.489905   1.000000
   16        2.043938   1.000000
   17        2.407165   1.000000
   18        2.459185   1.000000
   19        2.658500   1.000000
   20        2.858669   1.000000
   21        3.016846   1.000000
   22        3.079763   1.000000
   23        3.315943   1.000000
   24        3.519947   1.000000
   25        3.817024   1.000000
   26        3.953789   1.000000
   27        4.040357   1.000000
   28        4.183435   1.000000
   29        4.425905   1.000000
   30        4.495032   1.000000
   31        4.588245   1.000000
   32        4.650543   1.000000
   33        4.725934   1.000000
   34        4.841754   1.000000
   35        4.952638   1.000000
   36        5.035795   1.000000
   37        5.159987   1.000000
   38        6.243636   1.000000
   39        6.254065   1.000000
   40        6.723529   1.000000
   41        6.753900   1.000000
   42        7.458319   1.000000
   43        7.865259   1.000000
   44        8.436566   1.000000
   45        8.913617   1.000000
   46        9.060554   0.774435
   47        9.086964   0.219332
   48        9.182693  -0.005736
   49        9.259798   0.000000
   50        9.466939   0.000000
   51        9.566910   0.000000
   52        9.655568   0.000000
   53        9.742461   0.000000
   54        9.745536   0.000000
   55        9.906889   0.000000
   56        9.972285   0.000000
   57       10.213699   0.000000
   58       10.265264   0.000000
   59       10.293978   0.000000
   60       10.597549   0.000000

 -0.2727273E+00  0.9090909E-01  0.3742002E-15  0.1502630E-02
    1       -5.454946   1.000000
    2       -3.555019   1.000000
    3       -3.075472   1.000000
    4       -2.707499   1.000000
    5       -2.688809   1.000000
    6       -2.514773   1.000000
    7       -2.197489   1.000000
    8       -1.700467   1.000000
    9       -0.977674   1.000000
   10       -0.116838   1.000000
   11        0.110324   1.000000
   12        0.152081   1.000000
   13        0.366349   1.000000
   14        0.678379   1.000000
   15        0.985864   1.000000
   16        2.486598   1.000000
   17        2.634307   1.000000
   18        2.649291   1.000000
   19        2.723232   1.000000
   20        2.801557   1.000000
   21        3.005555   1.000000
   22        3.271624   1.000000
   23        3.380951   1.000000
   24        3.674752   1.000000
   25        3.824424   1.000000
   26        3.920970   1.000000
   27        3.993862   1.000000
   28        4.051436   1.000000
   29        4.489565   1.000000
   30        4.685756   1.000000
   31        4.725728   1.000000
   32        4.810927   1.000000
   33        4.939023   1.000000
   34        5.106190   1.000000
   35        5.137066   1.000000