    3    3    1    1
  0.7840870E+01  0.2996330E-09  0.2996330E-09  0.3025349E-09  0.5000000E-15
   1.0000000000000000E-004
  CAR 
 Name                                    
     11    216     10

  0.3742002E-15  0.3742002E-15  0.3742002E-15  0.2962963E-03
    1       -5.697085   1.000000
    2        5.137332   1.000000
    3        5.137341   1.000000
    4        5.856805   1.000000
    5        6.550569   1.000000
    6        9.415690   0.000000
    7        9.415693   0.000000
    8       11.898395   0.000000
    9       11.898398   0.000000
   10       14.025547   0.000000

  0.6666667E-01  0.3735550E-15  0.3742002E-15  0.1777778E-02
    1       -5.611452   1.000000
    2        4.913485   1.000000
    3        5.136048   1.000000
    4        5.883552   1.000000
    5        6.425599   1.000000
    6        9.395839   0.000000
    7        9.629867   0.000000
    8       11.485846   0.000000
    9       11.519995   0.000000
   10       14.480409   0.000000

  0.1333333E+00  0.3761975E-15  0.3742002E-15  0.1777778E-02
    1       -5.357005   1.000000
    2        4.292715   1.000000
    3        5.125513   1.000000
    4        5.953749   1.000000
    5        6.143454   1.000000
    6        9.340156   0.000000
    7       10.167286   0.000000
    8       10.792358   0.000000
    9       10.916554   0.000000
   10       15.113514   0.000000

  0.2000000E+00  0.3748230E-15  0.3742002E-15  0.1777778E-02
    1       -4.940912   1.000000
    2        3.402317   1.000000
    3        5.091210   1.000000
    4        5.837542   1.000000
    5        6.009736   1.000000
    6        9.259395  -0.051569
    7       10.258012   0.000000
    8       10.445478   0.000000
    9       10.853551   0.000000
   10       15.615245   0.000000

  0.2666667E+00  0.3561396E-15  0.3742002E-15  0.1777778E-02
    1       -4.374275   1.000000
    2        2.365056   1.000000
    3        5.025468   1.000000
    4        5.576298   1.000000
    5        5.978099   1.000000
    6        9.168404  -0.084081
    7       10.035860   0.000000
    8       10.164951   0.000000
    9       11.540171   0.000000
   10       15.970284   0.000000

  0.3333333E+00  0.3865122E-15  0.3742002E-15  0.1777778E-02
    1       -3.671203   1.000000
    2        1.266640   1.000000
    3        4.939176   1.000000
    4        5.382970   1.000000
    5        5.849593   1.000000
    6        9.083076   0.163653
    7       10.046744   0.000000
    8       10.121935   0.000000
    9       12.078932   0.000000
   10       15.644948   0.000000

  0.4000000E+00  0.3886199E-15  0.3742002E-15  0.1777778E-02
    1       -2.848009   1.000000
    2        0.163405   1.000000
    3        4.858392   1.000000
    4        5.259686   1.000000
    5        5.696016   1.000000
    6        9.017491   0.569652
    7       10.026475   0.000000
    8       10.369156   0.000000
    9       12.360831   0.000000
   10       15.479968   0.000000

  0.4666667E+00  0.3837633E-15  0.3742002E-15  0.1777778E-02
    1       -1.924685   1.000000
    2       -0.904222   1.000000
    3        4.810049   1.000000
    4        5.200721   1.000000
    5        5.597877   1.000000
    6        8.981990   0.766116
    7       10.037133   0.000000
    8       10.571292   0.000000
    9       12.438309   0.000000
   10       15.479702   0.000000

  0.6666667E-01  0.6666667E-01  0.3742002E-15  0.1777778E-02
    1       -5.441388   1.000000
    2        4.518806   1.000000
    3        5.082361   1.000000
    4        5.952589   1.000000
    5        6.226808   1.000000
    6        9.347779   0.000000
    7       10.011640   0.000000
    8       11.001610   0.000000
    9       11.040965   0.000000
   10       15.132730   0.000000

  0.1333333E+00  0.6666667E-01  0.3742002E-15  0.3555556E-02
    1       -5.106060   1.000000
    2        3.810822   1.000000
    3        4.936293   1.000000
    4        5.948920   1.000000
    5        6.096297   1.000000
    6        9.250969  -0.047195
    7       10.414786   0.000000
    8       10.585579   0.000000
    9       10.639443   0.000000
   10       15.695780   0.000000

  0.2000000E+00  0.6666667E-01  0.3742002E-15  0.3555556E-02
    1       -4.614555   1.000000
    2        2.883963   1.000000
    3        4.733334   1.000000
    4        5.687237   1.000000
    5        6.240515   1.000000
    6        9.122570   0.182445
    7        9.983013   0.000000
    8       10.324789   0.000000
    9       11.359040   0.000000
   10       16.062440   0.000000

  0.2666667E+00  0.6666667E-01  0.3742002E-15  0.3555556E-02
    1       -3.979385   1.000000
    2        1.838871   1.000000
    3        4.509298   1.000000
    4        5.483148   1.000000
    5        6.308159   1.000000
    6        8.982892   0.747734
    7        9.803110   0.000000
    8       10.264073   0.000000
    9       12.026926   0.000000
   10       15.815534   0.000000

  0.3333333E+00  0.6666667E-01  0.3742002E-15  0.3555556E-02
    1       -3.215736   1.000000
    2        0.749914   1.000000
    3        4.308098   1.000000
    4        5.346070   1.000000
    5        6.286352   1.000000
    6        8.855530   1.044013
    7        9.833713   0.000000
    8       10.346107   0.000000
    9       12.493188   0.000000
   10       15.476790   0.000000

  0.4000000E+00  0.6666667E-01  0.3742002E-15  0.3555556E-02
    1       -2.341073   1.000000
    2       -0.331254   1.000000
    3        4.169975   1.000000
    4        5.270336   1.000000
    5        6.232079   1.000000
    6        8.765278   1.077206
    7        9.932017   0.000000
    8       10.479128   0.000000
    9       12.695426   0.000000
   10       15.438633   0.000000

  0.4666667E+00  0.6666667E-01  0.3742002E-15  0.1777778E-02
    1       -1.428628   1.000000
    2       -1.314269   1.000000
    3        4.121008   1.000000
    4        5.246526   1.000000
    5        6.206399   1.000000
    6        8.732490   1.073711
    7        9.977444   0.000000
    8       10.544811   0.000000
    9       12.736691   0.000000
   10       15.469921   0.000000

  0.1333333E+00  0.1333333E+00  0.3742002E-15  0.1777778E-02
    1       -4.695187   1.000000
    2        3.162344   1.000000
    3        4.472197   1.000000
    4        5.738019   1.000000
    5        6.394468   1.000000
    6        9.063791   0.464384
    7        9.963804   0.000000
    8       10.389800   0.000000
    9       11.329872   0.000000
   10       16.534573   0.000000

  0.2000000E+00  0.1333333E+00  0.3742002E-15  0.3555556E-02
    1       -4.134761   1.000000
    2        2.336749   1.000000
    3        3.966334   1.000000
    4        5.570552   1.000000
    5        6.711842   1.000000
    6        8.816021   1.018373
    7        9.608011   0.000000
    8       10.362955   0.000000
    9       12.097515   0.000000
   10       15.919493   0.000000

  0.2666667E+00  0.1333333E+00  0.3742002E-15  0.3555556E-02
    1       -3.438354   1.000000
    2        1.366016   1.000000
    3        3.556246   1.000000
    4        5.466620   1.000000
    5        6.938705   1.000000
    6        8.552694   1.000000
    7        9.479794   0.000000
    8       10.409065   0.000000
    9       12.789719   0.000000
   10       15.479780   0.000000

  0.3333333E+00  0.1333333E+00  0.3742002E-15  0.3555556E-02
    1       -2.622276   1.000000
    2        0.327172   1.000000
    3        3.278741   1.000000
    4        5.419037   1.000000
    5        7.028779   1.000000
    6        8.327255   1.000000
    7        9.590292   0.000000
    8       10.430219   0.000000
    9       13.237909   0.000000
   10       15.346371   0.000000

  0.4000000E+00  0.1333333E+00  0.3742002E-15  0.3555556E-02
    1       -1.705804   1.000000
    2       -0.711860   1.000000
    3        3.139321   1.000000
    4        5.405337   1.000000
    5        7.039573   1.000000
    6        8.195344   1.000000
    7        9.776565   0.000000
    8       10.390437   0.000000
    9       13.402854   0.000000
   10       15.400417   0.000000

  0.2000000E+00  0.2000000E+00  0.3742002E-15  0.1777778E-02
    1       -3.512865   1.000000
    2        1.726735   1.000000
    3        3.143960   1.000000
    4        5.525605   1.000000
    5        7.216586   1.000000
    6        8.412596   1.000000
    7        9.298247   0.000000
    8       10.435759   0.000000
    9       12.927693   0.000000
   10       15.479666   0.000000

  0.2666667E+00  0.2000000E+00  0.3742002E-15  0.3555556E-02
    1       -2.763733   1.000000
    2        0.950393   1.000000
    3        2.525792   1.000000
    4        5.555054   1.000000
    5        7.618458   1.000000
    6        7.999208   1.000000
    7        9.197347   0.000000
    8       10.423933   0.000000
    9       13.671788   0.000000
   10       15.237933   0.000000

  0.3333333E+00  0.2000000E+00  0.3742002E-15  0.3555556E-02
    1       -1.906750   1.000000
    2        0.014313   1.000000
    3        2.195552   1.000000
    4        5.623935   1.000000
    5        7.674282   1.000000
    6        7.800661   1.000000
    7        9.383637   0.000000
    8       10.269178   0.000000
    9       14.099833   0.000000
   10       15.251368   0.000000

  0.4000000E+00  0.2000000E+00  0.3742002E-15  0.1777778E-02
    1       -1.016947   1.000000
    2       -0.914656   1.000000
    3        2.095011   1.000000
    4        5.661988   1.000000
    5        7.546576   1.000000
    6        7.834081   1.000000
    7        9.592248   0.000000
    8       10.104661   0.000000
    9       14.197830   0.000000
   10       15.335369   0.000000

  0.2666667E+00  0.2666667E+00  0.3742002E-15  0.1777778E-02
    1       -1.974204   1.000000
    2        0.505330   1.000000
    3        1.629371   1.000000
    4        5.745512   1.000000
    5        7.441934   1.000000
    6        8.246644   1.000000
    7        9.047815   0.000000
    8       10.232605   0.000000
    9       14.470527   0.000000
   10       15.102389   0.000000

  0.3333333E+00  0.2666667E+00  0.3742002E-15  0.3555556E-02
    1       -1.106545   1.000000
    2       -0.188943   1.000000
    3        1.170520   1.000000
    4        5.966470   1.000000
    5        7.021590   1.000000
    6        8.556293   1.026163
    7        9.246688   0.000000
    8        9.864789   0.000000
    9       14.829590   0.000000
   10       15.193209   0.000000

  0.3333333E+00  0.3333333E+00  0.3742002E-15  0.5925926E-03
    1       -0.413492   1.000000
    2       -0.413477   1.000000
    3        0.556351   1.000000
    4        6.439237   1.000000
    5        6.439245   1.000000
    6        9.187319   0.511301
    7        9.187322   0.000000
    8        9.357419   0.000000
    9       15.151363   0.000000
   10       15.151366   0.000000

  0.3742002E-15  0.3742002E-15  0.6666667E-01  0.5925926E-03
    1       -5.631917   1.000000
    2        5.191208   1.000000
    3        5.191216   1.000000
    4        5.282415   1.000000
    5        7.020189   1.000000
    6        9.263171  -0.032149
    7        9.263177  -0.006445
    8       11.790894   0.000000
    9       11.790900   0.000000
   10       14.261291   0.000000

  0.6666667E-01  0.3735550E-15  0.6666667E-01  0.3555556E-02
    1       -5.546968   1.000000
    2        4.962285   1.000000
    3        5.184314   1.000000
    4        5.297856   1.000000
    5        6.888437   1.000000
    6        9.234271   0.001181
    7        9.478722  -0.005610
    8       11.469888   0.000000
    9       11.505087   0.000000
   10       14.620187   0.000000

  0.1333333E+00  0.3761975E-15  0.6666667E-01  0.3555556E-02
    1       -5.294608   1.000000
    2        4.330350   1.000000
    3        5.156431   1.000000
    4        5.326936   1.000000
    5        6.628121   1.000000
    6        9.163288   0.102221
    7        9.933429   0.000000
    8       10.954647   0.000000
    9       11.015542   0.000000
   10       15.177027   0.000000

  0.2000000E+00  0.3748230E-15  0.6666667E-01  0.3555556E-02
    1       -4.882023   1.000000
    2        3.427606   1.000000
    3        5.093740   1.000000
    4        5.330316   1.000000
    5        6.378298   1.000000
    6        9.092136   0.268898
    7       10.075273   0.000000
    8       10.611253   0.000000
    9       10.997028   0.000000
   10       15.592805   0.000000

  0.2666667E+00  0.3561396E-15  0.6666667E-01  0.3555556E-02
    1       -4.320288   1.000000
    2        2.382164   1.000000
    3        4.993541   1.000000
    4        5.291921   1.000000
    5        6.148057   1.000000
    6        9.062150   0.379505
    7        9.974197   0.000000
    8       10.333670   0.000000
    9       11.544572   0.000000
   10       15.760004   0.000000

  0.3333333E+00  0.3865122E-15  0.6666667E-01  0.3555556E-02
    1       -3.623362   1.000000
    2        1.281350   1.000000
    3        4.874868   1.000000
    4        5.236571   1.000000
    5        5.918969   1.000000
    6        9.078403   0.250682
    7       10.068786   0.000000
    8       10.164748   0.000000
    9       12.032690   0.000000
   10       15.344060   0.000000

  0.4000000E+00  0.3886199E-15  0.6666667E-01  0.3555556E-02
    1       -2.807060   1.000000
    2        0.180308   1.000000
    3        4.770469   1.000000
    4        5.193502   1.000000
    5        5.720447   1.000000
    6        9.111755   0.092537
    7       10.080296   0.000000
    8       10.291213   0.000000
    9       12.316497   0.000000
   10       15.071642   0.000000

  0.4666667E+00  0.3837633E-15  0.6666667E-01  0.3555556E-02
    1       -1.889051   1.000000
    2       -0.883983   1.000000
    3        4.710053   1.000000
    4        5.173147   1.000000
    5        5.604033   1.000000
    6        9.133442   0.071225
    7       10.051125   0.000000
    8       10.466480   0.000000
    9       12.424689   0.000000
   10       14.950759   0.000000

  0.6666667E-01  0.6666667E-01  0.6666667E-01  0.3555556E-02
    1       -5.378304   1.000000
    2        4.560454   1.000000
    3        5.114849   1.000000
    4        5.330805   1.000000
    5        6.717204   1.000000
    6        9.157616   0.107340
    7        9.837624   0.000000
    8       11.067519   0.000000
    9       11.142162   0.000000
   10       15.179786   0.000000

  0.1333333E+00  0.6666667E-01  0.6666667E-01  0.7111111E-02
    1       -5.045779   1.000000
    2        3.842141   1.000000
    3        4.950543   1.000000
    4        5.351501   1.000000
    5        6.566766   1.000000
    6        9.019653   0.454922
    7       10.213068   0.000000
    8       10.637273   0.000000
    9       10.929286   0.000000
   10       15.713601   0.000000

  0.2000000E+00  0.6666667E-01  0.6666667E-01  0.7111111E-02
    1       -4.558501   1.000000
    2        2.905083   1.000000
    3        4.726072   1.000000
    4        5.329180   1.000000
    5        6.486828   1.000000
    6        8.893838   0.892133
    7       10.092162   0.000000
    8       10.388347   0.000000
    9       11.377996   0.000000
   10       15.947252   0.000000

  0.2666667E+00  0.6666667E-01  0.6666667E-01  0.7111111E-02
    1       -3.928938   1.000000
    2        1.854298   1.000000
    3        4.484675   1.000000
    4        5.283883   1.000000
    5        6.400868   1.000000
    6        8.846384   1.035372
    7        9.980364   0.000000
    8       10.271755   0.000000
    9       11.971535   0.000000
   10       15.578681   0.000000

  0.3333333E+00  0.6666667E-01  0.6666667E-01  0.7111111E-02
    1       -3.172015   1.000000
    2        0.765199   1.000000
    3        4.274088   1.000000
    4        5.245301   1.000000
    5        6.276126   1.000000
    6        8.870567   0.973926
    7        9.959334   0.000000
    8       10.308466   0.000000
    9       12.413292   0.000000
   10       15.188030   0.000000

  0.4000000E+00  0.6666667E-01  0.6666667E-01  0.7111111E-02
    1       -2.304431   1.000000
    2       -0.312247   1.000000
    3        4.132216   1.000000
    4        5.225358   1.000000
    5        6.161938   1.000000
    6        8.900229   0.833249
    7        9.977785   0.000000
    8       10.422022   0.000000
    9       12.637501   0.000000
   10       15.005100   0.000000

  0.4666667E+00  0.6666667E-01  0.6666667E-01  0.3555556E-02
    1       -1.364938   1.000000
    2       -1.323290   1.000000
    3        4.082344   1.000000
    4        5.220197   1.000000
    5        6.116386   1.000000
    6        8.909006   0.773161
    7        9.992273   0.000000
    8       10.480072   0.000000
    9       12.698833   0.000000
   10       14.955372   0.000000

  0.1333333E+00  0.1333333E+00  0.6666667E-01  0.3555556E-02
    1       -4.638463   1.000000
    2        3.187900   1.000000
    3        4.469432   1.000000
    4        5.346012   1.000000
    5        6.705595   1.000000
    6        8.741592   1.058407
    7       10.242514   0.000000
    8       10.333412   0.000000
    9       11.345307   0.000000
   10       16.391450   0.000000

  0.2000000E+00  0.1333333E+00  0.6666667E-01  0.7111111E-02
    1       -4.083051   1.000000
    2        2.355393   1.000000
    3        3.953730   1.000000
    4        5.326857   1.000000
    5        6.904699   1.000000
    6        8.483029   1.023584
    7        9.940848   0.000000
    8       10.351062   0.000000
    9       12.020219   0.000000
   10       15.762518   0.000000

  0.2666667E+00  0.1333333E+00  0.6666667E-01  0.7111111E-02
    1       -3.393048   1.000000
    2        1.380542   1.000000
    3        3.544638   1.000000
    4        5.322974   1.000000
    5        6.974833   1.000000
    6        8.390295   1.000000
    7        9.758847   0.000000
    8       10.392768   0.000000
    9       12.662591   0.000000
   10       15.310549   0.000000

  0.3333333E+00  0.1333333E+00  0.6666667E-01  0.7111111E-02
    1       -2.584523   1.000000
    2        0.343362   1.000000
    3        3.270620   1.000000
    4        5.341119   1.000000
    5        6.887665   1.000000
    6        8.438270   1.018869
    7        9.736404   0.000000
    8       10.410839   0.000000
    9       13.112886   0.000000
   10       15.069888   0.000000

  0.4000000E+00  0.1333333E+00  0.6666667E-01  0.7111111E-02
    1       -1.676314   1.000000
    2       -0.689708   1.000000
    3        3.133413   1.000000
    4        5.363039   1.000000
    5        6.792021   1.000000
    6        8.475726   1.038465
    7        9.823629   0.000000
    8       10.380813   0.000000
    9       13.314590   0.000000
   10       14.999551   0.000000

  0.2000000E+00  0.2000000E+00  0.6666667E-01  0.3555556E-02
    1       -3.467047   1.000000
    2        1.741921   1.000000
    3        3.136802   1.000000
    4        5.360095   1.000000
    5        7.389184   1.000000
    6        8.039026   1.000000
    7        9.670501   0.000000
    8       10.425290   0.000000
    9       12.778749   0.000000
   10       15.370120   0.000000

  0.2666667E+00  0.2000000E+00  0.6666667E-01  0.7111111E-02
    1       -2.725368   1.000000
    2        0.962649   1.000000
    3        2.530841   1.000000
    4        5.442864   1.000000
    5        7.471823   1.000000
    6        7.996253   1.000000
    7        9.494479   0.000000
    8       10.415455   0.000000
    9       13.481957   0.000000
   10       15.104431   0.000000

  0.3333333E+00  0.2000000E+00  0.6666667E-01  0.7111111E-02
    1       -1.877618   1.000000
    2        0.030765   1.000000
    3        2.208310   1.000000
    4        5.549755   1.000000
    5        7.169918   1.000000
    6        8.272752   1.005375
    7        9.526879   0.000000
    8       10.275390   0.000000
    9       13.946744   0.000000
   10       15.009584   0.000000

  0.4000000E+00  0.2000000E+00  0.6666667E-01  0.3555556E-02
    1       -1.022589   1.000000
    2       -0.864519   1.000000
    3        2.109933   1.000000
    4        5.604821   1.000000
    5        7.039492   1.000000
    6        8.356101   1.023095
    7        9.652147   0.000000
    8       10.135061   0.000000
    9       14.087786   0.000000
   10       15.015682   0.000000

  0.2666667E+00  0.2666667E+00  0.6666667E-01  0.3555556E-02
    1       -1.945009   1.000000
    2        0.512601   1.000000
    3        1.654814   1.000000
    4        5.647977   1.000000
    5        7.190198   1.000000
    6        8.367659   1.012463
    7        9.316654   0.000000
    8       10.239876   0.000000
    9       14.240059   0.000000
   10       14.983228   0.000000

  0.3333333E+00  0.2666667E+00  0.6666667E-01  0.7111111E-02
    1       -1.091019   1.000000
    2       -0.175452   1.000000
    3        1.206742   1.000000
    4        5.877261   1.000000
    5        6.806254   1.000000
    6        8.744310   0.985070
    7        9.383745   0.000000
    8        9.902682   0.000000
    9       14.668271   0.000000
   10       14.984220   0.000000

  0.3333333E+00  0.3333333E+00  0.6666667E-01  0.1185185E-02
    1       -0.413296   1.000000
    2       -0.413281   1.000000
    3        0.623462   1.000000
    4        6.311188   1.000000
    5        6.311195   1.000000
    6        9.331232   0.089929
    7        9.331235   0.000000
    8        9.389488   0.000000
    9       14.973353   0.000000
   10       14.973356   0.000000

  0.3742002E-15  0.3742002E-15  0.1333333E+00  0.5925926E-03
    1       -5.439643   1.000000
    2        4.379157   1.000000
    3        5.352160   1.000000
    4        5.352168   1.000000
    5        7.638184   1.000000
    6        8.890177   0.855296
    7        8.890183   0.546838
    8       11.480844   0.000000
    9       11.480850   0.000000
   10       14.883258   0.000000

  0.6666667E-01  0.3735550E-15  0.1333333E+00  0.3555556E-02
    1       -5.356836   1.000000
    2        4.411018   1.000000
    3        5.107084   1.000000
    4        5.326671   1.000000
    5        7.421944   1.000000
    6        8.854416   0.913159
    7        9.151176   0.047564
    8       11.323511   0.000000
    9       11.371044   0.000000
   10       15.129311   0.000000

  0.1333333E+00  0.3761975E-15  0.1333333E+00  0.3555556E-02
    1       -5.110913   1.000000
    2        4.419606   1.000000
    3        4.517148   1.000000
    4        5.243219   1.000000
    5        7.056905   1.000000
    6        8.792103   1.004728
    7        9.564961  -0.003451
    8       11.093750   0.000000
    9       11.140209   0.000000
   10       15.377998   0.000000

  0.2000000E+00  0.3748230E-15  0.1333333E+00  0.3555556E-02
    1       -4.709178   1.000000
    2        3.494251   1.000000
    3        4.629710   1.000000
    4        5.095281   1.000000
    5        6.701809   1.000000
    6        8.790123   1.028138
    7        9.748874   0.000000
    8       10.898486   0.000000
    9       11.200068   0.000000
   10       15.512656   0.000000

  0.2666667E+00  0.3561396E-15  0.1333333E+00  0.3555556E-02
    1       -4.162685   1.000000
    2        2.429266   1.000000
    3        4.768748   1.000000
    4        4.900740   1.000000
    5        6.354676   1.000000
    6        8.896122   0.988872
    7        9.786766   0.000000
    8       10.672984   0.000000
    9       11.600732   0.000000
   10       15.230435   0.000000

  0.3333333E+00  0.3865122E-15  0.1333333E+00  0.3555556E-02
    1       -3.485053   1.000000
    2        1.325606   1.000000
    3        4.701808   1.000000
    4        4.902470   1.000000
    5        6.027755   1.000000
    6        9.094745   0.300354
    7        9.901468   0.000000
    8       10.461537   0.000000
    9       11.997853   0.000000
   10       14.779541   0.000000

  0.4000000E+00  0.3886199E-15  0.1333333E+00  0.3555556E-02
    1       -2.691443   1.000000
    2        0.234838   1.000000
    3        4.542963   1.000000
    4        5.017712   1.000000
    5        5.760625   1.000000
    6        9.333004  -0.086042
    7       10.077155   0.000000
    8       10.262321   0.000000
    9       12.271124   0.000000
   10       14.420088   0.000000

  0.4666667E+00  0.3837633E-15  0.1333333E+00  0.3555556E-02
    1       -1.799792   1.000000
    2       -0.808511   1.000000
    3        4.455838   1.000000
    4        5.095541   1.000000
    5        5.600138   1.000000
    6        9.529464  -0.037261
    7       10.101993   0.000000
    8       10.202668   0.000000
    9       12.418975   0.000000
   10       14.207196   0.000000

  0.6666667E-01  0.6666667E-01  0.1333333E+00  0.3555556E-02
    1       -5.192462   1.000000
    2        4.470330   1.000000
    3        4.682271   1.000000
    4        5.222969   1.000000
    5        7.193548   1.000000
    6        8.741564   1.025367
    7        9.517943  -0.016564
    8       11.094590   0.000000
    9       11.236335   0.000000
   10       15.463498   0.000000

  0.1333333E+00  0.6666667E-01  0.1333333E+00  0.7111111E-02
    1       -4.868627   1.000000
    2        3.929571   1.000000
    3        4.575448   1.000000
    4        4.989482   1.000000
    5        6.995276   1.000000
    6        8.581717   1.051666
    7        9.875338   0.000000
    8       10.865727   0.000000
    9       11.177363   0.000000
   10       15.790440   0.000000

  0.2000000E+00  0.6666667E-01  0.1333333E+00  0.7111111E-02
    1       -4.394455   1.000000
    2        2.962830   1.000000
    3        4.658390   1.000000
    4        4.747972   1.000000
    5        6.788422   1.000000
    6        8.542800   1.025023
    7        9.973227   0.000000
    8       10.698052   0.000000
    9       11.455993   0.000000
   10       15.641989   0.000000

  0.2666667E+00  0.6666667E-01  0.1333333E+00  0.7111111E-02
    1       -3.782351   1.000000
    2        1.898690   1.000000
    3        4.403846   1.000000
    4        4.857225   1.000000
    5        6.513346   1.000000
    6        8.686106   1.073857
    7       10.026558   0.000000
    8       10.512267   0.000000
    9       11.908096   0.000000
   10       15.076876   0.000000

  0.3333333E+00  0.6666667E-01  0.1333333E+00  0.7111111E-02
    1       -3.046782   1.000000
    2        0.812650   1.000000
    3        4.170991   1.000000
    4        4.989211   1.000000
    5        6.223060   1.000000
    6        8.946137   0.668217
    7       10.146971   0.000000
    8       10.316472   0.000000
    9       12.291926   0.000000
   10       14.630892   0.000000

  0.4000000E+00  0.6666667E-01  0.1333333E+00  0.7111111E-02
    1       -2.204081   1.000000
    2       -0.249050   1.000000
    3        4.018481   1.000000
    4        5.099191   1.000000
    5        5.996917   1.000000
    6        9.212182   0.063788
    7       10.128324   0.000000
    8       10.277986   0.000000
    9       12.540186   0.000000
   10       14.329208   0.000000

  0.4666667E+00  0.6666667E-01  0.1333333E+00  0.3555556E-02
    1       -1.349001   1.000000
    2       -1.178366   1.000000
    3        3.965578   1.000000
    4        5.147044   1.000000
    5        5.907421   1.000000
    6        9.340753  -0.033437
    7       10.034214   0.000000
    8       10.331347   0.000000
    9       12.633041   0.000000
   10       14.212612   0.000000

  0.1333333E+00  0.1333333E+00  0.1333333E+00  0.3555556E-02
    1       -4.472301   1.000000
    2        3.261391   1.000000
    3        4.420473   1.000000
    4        4.715097   1.000000
    5        7.158813   1.000000
    6        8.203855   1.002473
    7       10.164667   0.000000
    8       10.626042   0.000000
    9       11.422009   0.000000
   10       15.994649   0.000000

  0.2000000E+00  0.1333333E+00  0.1333333E+00  0.7111111E-02
    1       -3.932437   1.000000
    2        2.408363   1.000000
    3        3.903488   1.000000
    4        4.838787   1.000000
    5        7.203219   1.000000
    6        8.045681   1.000000
    7       10.246273   0.000000
    8       10.463185   0.000000
    9       11.897287   0.000000
   10       15.444500   0.000000

  0.2666667E+00  0.1333333E+00  0.1333333E+00  0.7111111E-02
    1       -3.262406   1.000000
    2        1.423397   1.000000
    3        3.506545   1.000000
    4        4.986205   1.000000
    5        6.902707   1.000000
    6        8.321742   1.013255
    7       10.234710   0.000000
    8       10.351681   0.000000
    9       12.422309   0.000000
   10       14.936216   0.000000

  0.3333333E+00  0.1333333E+00  0.1333333E+00  0.7111111E-02
    1       -2.478158   1.000000
    2        0.394158   1.000000
    3        3.243931   1.000000
    4        5.135695   1.000000
    5        6.563784   1.000000
    6        8.707584   1.008595
    7       10.095458   0.000000
    8       10.356840   0.000000
    9       12.854486   0.000000
   10       14.559611   0.000000

  0.4000000E+00  0.1333333E+00  0.1333333E+00  0.7111111E-02
    1       -1.603019   1.000000
    2       -0.612279   1.000000
    3        3.112653   1.000000
    4        5.246690   1.000000
    5        6.345731   1.000000
    6        8.993654   0.535097
    7        9.958306   0.000000
    8       10.372438   0.000000
    9       13.116851   0.000000
   10       14.334114   0.000000

  0.2000000E+00  0.2000000E+00  0.1333333E+00  0.3555556E-02
    1       -3.334651   1.000000
    2        1.785310   1.000000
    3        3.112740   1.000000
    4        4.987991   1.000000
    5        7.451808   1.000000
    6        7.784146   1.000000
    7       10.239234   0.000000
    8       10.384544   0.000000
    9       12.484590   0.000000
   10       15.106837   0.000000

  0.2666667E+00  0.2000000E+00  0.1333333E+00  0.7111111E-02
    1       -2.616177   1.000000
    2        0.998564   1.000000
    3        2.545531   1.000000
    4        5.168390   1.000000
    5        6.994981   1.000000
    6        8.289029   1.023697
    7       10.045907   0.000000
    8       10.389066   0.000000
    9       13.087496   0.000000
   10       14.793808   0.000000
