   24   24   60    1
  0.8144829E+01  0.6078000E-09  0.6078000E-09  0.6110000E-09  0.5000000E-15
   1.0000000000000000E-004
  CAR 
 Name                                    
     88     60     60

  0.3742002E-15  0.3742002E-15  0.3742002E-15  0.1371742E-02
    1       -5.699212   1.000000
    2       -3.438893   1.000000
    3       -1.581161   1.000000
    4       -1.581155   1.000000
    5       -1.581153   1.000000
    6       -1.497627   1.000000
    7       -1.497624   1.000000
    8       -1.497620   1.000000
    9       -1.353129   1.000000
   10       -1.353123   1.000000
   11       -1.353121   1.000000
   12        0.203266   1.000000
   13        0.628789   1.000000
   14        0.628791   1.000000
   15        0.628796   1.000000
   16        3.235426   1.000000
   17        3.235427   1.000000
   18        3.235428   1.000000
   19        4.092604   1.000000
   20        4.092605   1.000000
   21        4.092607   1.000000
   22        4.705224   1.000000
   23        4.705229   1.000000
   24        4.705231   1.000000
   25        4.801626   1.000000
   26        4.801628   1.000000
   27        4.801631   1.000000
   28        5.137541   1.000000
   29        5.137545   1.000000
   30        5.187804   1.000000
   31        5.187809   1.000000
   32        5.187811   1.000000
   33        5.583163   1.000000
   34        5.583164   1.000000
   35        5.583167   1.000000
   36        5.854345   1.000000
   37        6.541253   1.000000
   38        7.277087   1.000000
   39        7.277090   1.000000
   40        7.788155   1.000000
   41        7.788162   1.000000
   42        8.100660   1.000000
   43        8.100661   1.000000
   44        8.973597   0.754492
   45        8.973599   0.754475
   46        8.973601   0.754463
   47        9.412104  -0.000000
   48        9.412105  -0.000000
   49        9.777728  -0.000000
   50       10.036744  -0.000000
   51       10.036747  -0.000000
   52       10.036749  -0.000000
   53       10.207575  -0.000000
   54       10.207579  -0.000000
   55       10.207585  -0.000000
   56       10.245231  -0.000000
   57       10.245234  -0.000000
   58       10.245235  -0.000000
   59       10.598410  -0.000000
   60       10.598413  -0.000000

  0.1111111E+00  0.3745146E-15  0.3742002E-15  0.8230453E-02
    1       -5.639692   1.000000
    2       -3.408876   1.000000
    3       -2.243747   1.000000
    4       -1.807400   1.000000
    5       -1.807399   1.000000
    6       -1.720720   1.000000
    7       -1.587077   1.000000
    8       -1.587071   1.000000
    9       -0.958455   1.000000
   10       -0.958452   1.000000
   11       -0.556452   1.000000
   12        0.279334   1.000000
   13        0.666127   1.000000
   14        0.666130   1.000000
   15        0.846274   1.000000
   16        3.185782   1.000000
   17        3.185783   1.000000
   18        3.292748   1.000000
   19        3.776447   1.000000
   20        4.032590   1.000000
   21        4.032592   1.000000
   22        4.283217   1.000000
   23        4.283219   1.000000
   24        4.776305   1.000000
   25        4.776309   1.000000
   26        4.819363   1.000000
   27        4.945816   1.000000
   28        4.981205   1.000000
   29        5.136751   1.000000
   30        5.207896   1.000000
   31        5.229038   1.000000
   32        5.229043   1.000000
   33        5.619422   1.000000
   34        5.872960   1.000000
   35        6.072499   1.000000
   36        6.072500   1.000000
   37        6.452630   1.000000
   38        6.624215   1.000000
   39        6.668176   1.000000
   40        7.977818   1.000000
   41        8.151620   1.000000
   42        8.363099   1.000000
   43        8.431617   1.000000
   44        8.803805   1.007596
   45        8.803808   1.007597
   46        8.986218   0.658895
   47        9.398233  -0.000000
   48        9.562897  -0.000000
   49        9.791611  -0.000000
   50        9.986776  -0.000000
   51        9.986778  -0.000000
   52       10.030602  -0.000000
   53       10.158953  -0.000000
   54       10.199352  -0.000000
   55       10.202301  -0.000000
   56       10.202307  -0.000000
   57       10.279534  -0.000000
   58       10.279537  -0.000000
   59       10.518232  -0.000000
   60       10.544463  -0.000000

  0.2222222E+00  0.3685699E-15  0.3742002E-15  0.8230453E-02
    1       -5.462339   1.000000
    2       -3.318738   1.000000
    3       -2.994798   1.000000
    4       -2.089651   1.000000
    5       -2.089650   1.000000
    6       -2.030803   1.000000
    7       -1.601663   1.000000
    8       -1.601657   1.000000
    9       -0.426672   1.000000
   10       -0.426670   1.000000
   11        0.344358   1.000000
   12        0.504264   1.000000
   13        0.766161   1.000000
   14        0.766165   1.000000
   15        1.387771   1.000000
   16        3.054544   1.000000
   17        3.054545   1.000000
   18        3.204734   1.000000
   19        3.464068   1.000000
   20        3.503979   1.000000
   21        3.503981   1.000000
   22        3.917107   1.000000
   23        3.917109   1.000000
   24        4.536496   1.000000
   25        4.868584   1.000000
   26        4.919776   1.000000
   27        4.919780   1.000000
   28        5.130994   1.000000
   29        5.269679   1.000000
   30        5.327593   1.000000
   31        5.343671   1.000000
   32        5.343675   1.000000
   33        5.717931   1.000000
   34        5.718076   1.000000
   35        5.919281   1.000000
   36        5.925880   1.000000
   37        6.237236   1.000000
   38        6.768612   1.000000
   39        6.768613   1.000000
   40        7.647417   1.000000
   41        8.301551   1.000000
   42        8.413885   1.000000
   43        8.413888   1.000000
   44        9.022753   0.355394
   45        9.050203   0.159639
   46        9.275743  -0.000444
   47        9.358534  -0.000004
   48        9.803907  -0.000000
   49        9.803908  -0.000000
   50        9.831705  -0.000000
   51        9.922287  -0.000000
   52        9.958879  -0.000000
   53       10.022937  -0.000000
   54       10.170703  -0.000000
   55       10.188358  -0.000000
   56       10.188364  -0.000000
   57       10.322161  -0.000000
   58       10.370791  -0.000000
   59       10.370864  -0.000000
   60       10.443907  -0.000000

  0.3333333E+00  0.4145315E-15  0.3742002E-15  0.8230453E-02
    1       -5.170666   1.000000
    2       -3.673263   1.000000
    3       -3.168372   1.000000
    4       -2.374479   1.000000
    5       -2.280270   1.000000
    6       -2.280268   1.000000
    7       -1.617597   1.000000
    8       -1.617592   1.000000
    9        0.155061   1.000000
   10        0.155063   1.000000
   11        0.867993   1.000000
   12        0.892685   1.000000
   13        0.892688   1.000000
   14        1.265522   1.000000
   15        2.109709   1.000000
   16        2.566367   1.000000
   17        2.735027   1.000000
   18        2.735029   1.000000
   19        2.892608   1.000000
   20        2.892608   1.000000
   21        3.747869   1.000000
   22        3.817265   1.000000
   23        3.817267   1.000000
   24        3.872544   1.000000
   25        4.775635   1.000000
   26        4.937873   1.000000
   27        5.051422   1.000000
   28        5.051425   1.000000
   29        5.111965   1.000000
   30        5.235798   1.000000
   31        5.376803   1.000000
   32        5.498622   1.000000
   33        5.498628   1.000000
   34        5.743220   1.000000
   35        5.848094   1.000000
   36        5.980169   1.000000
   37        5.986688   1.000000
   38        7.192508   1.000000
   39        7.412457   1.000000
   40        7.412459   1.000000
   41        8.002342   1.000000
   42        8.002346   1.000000
   43        8.541304   1.000000
   44        9.079297   0.027185
   45        9.298391  -0.000137
   46        9.476307  -0.000000
   47        9.476308  -0.000000
   48        9.588230  -0.000000
   49        9.671722  -0.000000
   50        9.893293  -0.000000
   51       10.043185  -0.000000
   52       10.092054  -0.000000
   53       10.118018  -0.000000
   54       10.118383  -0.000000
   55       10.172253  -0.000000
   56       10.172259  -0.000000
   57       10.379788  -0.000000
   58       10.379796  -0.000000
   59       10.486621  -0.000000
   60       10.494568  -0.000000

  0.4444444E+00  0.3784822E-15  0.3742002E-15  0.8230453E-02
    1       -4.770226   1.000000
    2       -4.268252   1.000000
    3       -2.958290   1.000000
    4       -2.691020   1.000000
    5       -2.376079   1.000000
    6       -2.376078   1.000000
    7       -1.627652   1.000000
    8       -1.627648   1.000000
    9        0.678688   1.000000
   10        0.678690   1.000000
   11        0.985641   1.000000
   12        0.985643   1.000000
   13        1.352789   1.000000
   14        1.931695   1.000000
   15        2.113229   1.000000
   16        2.113231   1.000000
   17        2.183627   1.000000
   18        2.776565   1.000000
   19        2.776566   1.000000
   20        2.939719   1.000000
   21        3.067440   1.000000
   22        3.762222   1.000000
   23        3.762225   1.000000
   24        3.838724   1.000000
   25        4.141188   1.000000
   26        4.639475   1.000000
   27        5.011016   1.000000
   28        5.072153   1.000000
   29        5.127210   1.000000
   30        5.127213   1.000000
   31        5.532625   1.000000
   32        5.621656   1.000000
   33        5.621662   1.000000
   34        5.736751   1.000000
   35        5.960623   1.000000
   36        6.009715   1.000000
   37        6.199594   1.000000
   38        6.691954   1.000000
   39        7.733302   1.000000
   40        7.733306   1.000000
   41        7.895257   1.000000
   42        7.895259   1.000000
   43        8.854501   1.027259
   44        9.134112  -0.034904
   45        9.134114  -0.034904
   46        9.149635  -0.030118
   47        9.215737  -0.005640
   48        9.225711  -0.003926
   49        9.968630  -0.000000
   50       10.026796  -0.000000
   51       10.047508  -0.000000
   52       10.131370  -0.000000
   53       10.141066  -0.000000
   54       10.161650  -0.000000
   55       10.161656  -0.000000
   56       10.237543  -0.000000
   57       10.326409  -0.000000
   58       10.354738  -0.000000
   59       10.354744  -0.000000
   60       10.559575  -0.000000

  0.1111111E+00  0.1111111E+00  0.3742002E-15  0.8230453E-02
    1       -5.521251   1.000000
    2       -3.348789   1.000000
    3       -2.588262   1.000000
    4       -2.588260   1.000000
    5       -1.836930   1.000000
    6       -1.836927   1.000000
    7       -1.452012   1.000000
    8       -1.312060   1.000000
    9       -1.250401   1.000000
   10       -0.078999   1.000000
   11       -0.078997   1.000000
   12        0.429855   1.000000
   13        0.543522   1.000000
   14        1.068885   1.000000
   15        1.068889   1.000000
   16        3.000828   1.000000
   17        3.298054   1.000000
   18        3.298055   1.000000
   19        3.460315   1.000000
   20        3.543018   1.000000
   21        3.543019   1.000000
   22        4.241743   1.000000
   23        4.345251   1.000000
   24        4.345253   1.000000
   25        4.676306   1.000000
   26        4.695559   1.000000
   27        5.110281   1.000000
   28        5.121566   1.000000
   29        5.121567   1.000000
   30        5.264639   1.000000
   31        5.264642   1.000000
   32        5.334648   1.000000
   33        5.917160   1.000000
   34        5.987075   1.000000
   35        6.093025   1.000000
   36        6.112559   1.000000
   37        6.112560   1.000000
   38        6.302588   1.000000
   39        6.762051   1.000000
   40        7.751535   1.000000
   41        8.252458   1.000000
   42        8.375517   1.000000
   43        8.842916   1.021931
   44        8.842917   1.021931
   45        8.872014   1.033889
   46        9.051431   0.152344
   47        9.366453  -0.000002
   48        9.818621  -0.000000
   49        9.839452  -0.000000
   50        9.872953  -0.000000
   51        9.939782  -0.000000
   52        9.939784  -0.000000
   53       10.105014  -0.000000
   54       10.105014  -0.000000
   55       10.188962  -0.000000
   56       10.188964  -0.000000
   57       10.194225  -0.000000
   58       10.442080  -0.000000
   59       10.442108  -0.000000
   60       10.442829  -0.000000

  0.2222222E+00  0.1111111E+00  0.3742002E-15  0.1646091E-01
    1       -5.286722   1.000000
    2       -3.303575   1.000000
    3       -3.228450   1.000000
    4       -2.836639   1.000000
    5       -2.178191   1.000000
    6       -1.925380   1.000000
    7       -1.509569   1.000000
    8       -1.336118   1.000000
    9       -0.689532   1.000000
   10        0.455009   1.000000
   11        0.481307   1.000000
   12        0.724353   1.000000
   13        0.828856   1.000000
   14        1.305876   1.000000
   15        1.711159   1.000000
   16        2.620008   1.000000
   17        2.789035   1.000000
   18        2.931477   1.000000
   19        3.215049   1.000000
   20        3.361790   1.000000
   21        3.521365   1.000000
   22        3.632927   1.000000
   23        4.168667   1.000000
   24        4.282786   1.000000
   25        4.460072   1.000000
   26        4.747280   1.000000
   27        5.034473   1.000000
   28        5.143343   1.000000
   29        5.270319   1.000000
   30        5.339481   1.000000
   31        5.374892   1.000000
   32        5.431211   1.000000
   33        5.510856   1.000000
   34        5.513061   1.000000
   35        6.011266   1.000000
   36        6.074159   1.000000
   37        6.172223   1.000000
   38        6.772678   1.000000
   39        7.361537   1.000000
   40        7.438349   1.000000
   41        7.874657   1.000000
   42        8.448575   1.000000
   43        8.521215   1.000000
   44        8.914872   1.012264
   45        9.302505  -0.000110
   46        9.449068  -0.000000
   47        9.665685  -0.000000
   48        9.665792  -0.000000
   49        9.807107  -0.000000
   50        9.824327  -0.000000
   51        9.869554  -0.000000
   52        9.871053  -0.000000
   53       10.093089  -0.000000
   54       10.150076  -0.000000
   55       10.177511  -0.000000
   56       10.183579  -0.000000
   57       10.275119  -0.000000
   58       10.309912  -0.000000
   59       10.313376  -0.000000
   60       10.424087  -0.000000

  0.3333333E+00  0.1111111E+00  0.3742002E-15  0.1646091E-01
    1       -4.940608   1.000000
    2       -3.940601   1.000000
    3       -3.047899   1.000000
    4       -2.986482   1.000000
    5       -2.514089   1.000000
    6       -1.980292   1.000000
    7       -1.647985   1.000000
    8       -1.258876   1.000000
    9       -0.066279   1.000000
   10        0.464929   1.000000
   11        0.990332   1.000000
   12        1.149167   1.000000
   13        1.506122   1.000000
   14        1.741904   1.000000
   15        1.839383   1.000000
   16        2.291423   1.000000
   17        2.486124   1.000000
   18        2.617562   1.000000
   19        2.973477   1.000000
   20        3.099278   1.000000
   21        3.248010   1.000000
   22        3.458290   1.000000
   23        3.852970   1.000000
   24        4.238146   1.000000
   25        4.240422   1.000000
   26        4.609890   1.000000
   27        4.819046   1.000000
   28        4.877722   1.000000
   29        4.918234   1.000000
   30        5.368935   1.000000
   31        5.458664   1.000000
   32        5.489910   1.000000
   33        5.717352   1.000000
   34        5.835688   1.000000
   35        5.935757   1.000000
   36        6.121515   1.000000
   37        6.213820   1.000000
   38        6.889396   1.000000
   39        7.310708   1.000000
   40        7.447529   1.000000
   41        8.053973   1.000000
   42        8.226607   1.000000
   43        8.727516   1.000305
   44        9.009085   0.468654
   45        9.214782  -0.005831
   46        9.325349  -0.000029
   47        9.333770  -0.000017
   48        9.443104  -0.000000
   49        9.843308  -0.000000
   50        9.938132  -0.000000
   51        9.995603  -0.000000
   52       10.089671  -0.000000
   53       10.091440  -0.000000
   54       10.156638  -0.000000
   55       10.160882  -0.000000
   56       10.191808  -0.000000
   57       10.227569  -0.000000
   58       10.235171  -0.000000
   59       10.435025  -0.000000
   60       10.453104  -0.000000

  0.4444444E+00  0.1111111E+00  0.3742002E-15  0.8230453E-02
    1       -4.489285   1.000000
    2       -4.489280   1.000000
    3       -3.036557   1.000000
    4       -2.808309   1.000000
    5       -2.808304   1.000000
    6       -1.998862   1.000000
    7       -1.694328   1.000000
    8       -1.232013   1.000000
    9        0.329014   1.000000
   10        0.465128   1.000000
   11        1.287953   1.000000
   12        1.390431   1.000000
   13        1.589731   1.000000
   14        1.682306   1.000000
   15        1.682310   1.000000
   16        2.550905   1.000000
   17        2.631458   1.000000
   18        2.631461   1.000000
   19        2.632653   1.000000
   20        3.042031   1.000000
   21        3.209320   1.000000
   22        3.341429   1.000000
   23        3.341432   1.000000
   24        4.216511   1.000000
   25        4.288193   1.000000
   26        4.288198   1.000000
   27        4.770760   1.000000
   28        4.770765   1.000000
   29        4.931720   1.000000
   30        5.403372   1.000000
   31        5.541019   1.000000
   32        5.625203   1.000000
   33        5.625206   1.000000
   34        5.822782   1.000000
   35        6.199551   1.000000
   36        6.199556   1.000000
   37        6.400675   1.000000
   38        6.400678   1.000000
   39        7.263654   1.000000
   40        7.544959   1.000000
   41        8.108212   1.000000
   42        8.422428   1.000000
   43        9.041554   0.214936
   44        9.069069   0.064110
   45        9.069074   0.064091
   46        9.113173  -0.031440
   47        9.113179  -0.031443
   48        9.163776  -0.023807
   49        9.944643  -0.000000
   50        9.944646  -0.000000
   51       10.015217  -0.000000
   52       10.015223  -0.000000
   53       10.090041  -0.000000
   54       10.119635  -0.000000
   55       10.153931  -0.000000
   56       10.199030  -0.000000
   57       10.273213  -0.000000
   58       10.273215  -0.000000
   59       10.442142  -0.000000
   60       10.507955  -0.000000

  0.2222222E+00  0.2222222E+00  0.3742002E-15  0.8230453E-02
    1       -4.997707   1.000000
    2       -3.511112   1.000000
    3       -3.511111   1.000000
    4       -3.077690   1.000000
    5       -2.276987   1.000000
    6       -2.276985   1.000000
    7       -1.065440   1.000000
    8       -0.939740   1.000000
    9       -0.790602   1.000000
   10        0.218794   1.000000
   11        1.080371   1.000000
   12        1.340579   1.000000
   13        1.340581   1.000000
   14        1.757073   1.000000
   15        2.006895   1.000000
   16        2.006899   1.000000
   17        2.564730   1.000000
   18        2.741112   1.000000
   19        2.741113   1.000000
   20        3.480131   1.000000
   21        3.480133   1.000000
   22        3.647541   1.000000
   23        3.840872   1.000000
   24        3.840875   1.000000
   25        4.420157   1.000000
   26        4.566677   1.000000
   27        4.638272   1.000000
   28        4.771233   1.000000
   29        4.846923   1.000000
   30        5.437788   1.000000
   31        5.437790   1.000000
   32        5.647051   1.000000
   33        5.647052   1.000000
   34        5.763315   1.000000
   35        5.876013   1.000000
   36        6.196804   1.000000
   37        6.733582   1.000000
   38        6.733583   1.000000
   39        6.959076   1.000000
   40        7.335978   1.000000
   41        8.085594   1.000000
   42        8.677301   1.000018
   43        8.677302   1.000018
   44        8.686246   1.000031
   45        9.189112  -0.013038
   46        9.512617  -0.000000
   47        9.582868  -0.000000
   48        9.582870  -0.000000
   49        9.746263  -0.000000
   50        9.746263  -0.000000
   51        9.896429  -0.000000
   52        9.927619  -0.000000
   53        9.989783  -0.000000
   54       10.133547  -0.000000
   55       10.133549  -0.000000
   56       10.156192  -0.000000
   57       10.267643  -0.000000
   58       10.376289  -0.000000
   59       10.376350  -0.000000
   60       10.503453  -0.000000

  0.3333333E+00  0.2222222E+00  0.3742002E-15  0.1646091E-01
    1       -4.600567   1.000000
    2       -4.102255   1.000000
    3       -3.615351   1.000000
    4       -2.866706   1.000000
    5       -2.597500   1.000000
    6       -2.326459   1.000000
    7       -0.973920   1.000000
    8       -0.856947   1.000000
    9       -0.216658   1.000000
   10        0.022262   1.000000
   11        1.015942   1.000000
   12        1.554945   1.000000
   13        1.764639   1.000000
   14        2.121403   1.000000
   15        2.196875   1.000000
   16        2.204305   1.000000
   17        2.436638   1.000000
   18        2.643717   1.000000
   19        2.792802   1.000000
   20        2.980903   1.000000
   21        3.351027   1.000000
   22        3.407919   1.000000
   23        3.614724   1.000000
   24        3.845811   1.000000
   25        4.116449   1.000000
   26        4.305470   1.000000
   27        4.439572   1.000000
   28        4.547943   1.000000
   29        4.763275   1.000000
   30        5.511077   1.000000
   31        5.541816   1.000000
   32        5.690384   1.000000
   33        5.719182   1.000000
   34        6.031136   1.000000
   35        6.061922   1.000000
   36        6.419233   1.000000
   37        6.508847   1.000000
   38        6.614003   1.000000
   39        6.913225   1.000000
   40        7.086712   1.000000
   41        8.502426   1.000000
   42        8.674961   1.000015
   43        8.856639   1.028210
   44        8.999147   0.552620
   45        9.034355   0.265819
   46        9.228522  -0.003530
   47        9.363826  -0.000002
   48        9.365691  -0.000002
   49        9.650654  -0.000000
   50        9.721979  -0.000000
   51        9.775967  -0.000000
   52        9.893710  -0.000000
   53        9.998070  -0.000000
   54       10.070499  -0.000000
   55       10.125101  -0.000000
   56       10.139018  -0.000000
   57       10.336924  -0.000000
   58       10.338571  -0.000000
   59       10.360978  -0.000000
   60       10.418298  -0.000000

  0.3333333E+00  0.3333333E+00  0.3742002E-15  0.2743484E-02
    1       -4.156352   1.000000
    2       -4.156347   1.000000
    3       -4.156343   1.000000
    4       -2.625241   1.000000
    5       -2.625237   1.000000
    6       -2.625233   1.000000
    7       -0.424266   1.000000
    8       -0.424262   1.000000
    9       -0.415074   1.000000
   10       -0.415070   1.000000
   11        0.554167   1.000000
   12        2.063951   1.000000
   13        2.063955   1.000000
   14        2.063958   1.000000
   15        2.374057   1.000000
   16        2.428371   1.000000
   17        2.428376   1.000000
   18        2.428378   1.000000
   19        2.924227   1.000000
   20        2.924233   1.000000
   21        2.924235   1.000000
   22        3.815341   1.000000
   23        3.815345   1.000000
   24        3.815348   1.000000
   25        3.865426   1.000000
   26        3.865430   1.000000
   27        3.865433   1.000000
   28        4.693343   1.000000
   29        4.693346   1.000000
   30        5.577386   1.000000
   31        5.577388   1.000000
   32        5.577390   1.000000
   33        6.105669   1.000000
   34        6.105672   1.000000
   35        6.105673   1.000000
   36        6.433946   1.000000
   37        6.433948   1.000000
   38        6.766398   1.000000
   39        6.766400   1.000000
   40        6.766404   1.000000
   41        8.784986   1.003918
   42        8.784990   1.003918
   43        8.784992   1.003918
   44        9.183403  -0.015202
   45        9.183404  -0.015202
   46        9.339202  -0.000012
   47        9.339205  -0.000012
   48        9.339206  -0.000012
   49        9.356832  -0.000004
   50        9.575157  -0.000000
   51        9.575161  -0.000000
   52        9.575163  -0.000000
   53       10.063898  -0.000000
   54       10.063901  -0.000000
   55       10.063907  -0.000000
   56       10.127940  -0.000000
   57       10.371930  -0.000000
   58       10.371931  -0.000000
   59       10.371932  -0.000000
   60       10.683554  -0.000000

  0.3742002E-15  0.3742002E-15  0.1111111E+00  0.2743484E-02
    1       -5.653939   1.000000
    2       -3.562595   1.000000
    3       -1.574041   1.000000
    4       -1.574035   1.000000
    5       -1.574032   1.000000
    6       -1.452380   1.000000
    7       -1.452377   1.000000
    8       -1.452373   1.000000
    9       -1.359756   1.000000
   10       -1.359750   1.000000
   11       -1.359748   1.000000
   12        0.381140   1.000000
   13        0.522568   1.000000
   14        0.522570   1.000000
   15        0.522575   1.000000
   16        3.269864   1.000000
   17        3.269865   1.000000
   18        3.269866   1.000000
   19        4.207958   1.000000
   20        4.207960   1.000000
   21        4.207961   1.000000
   22        4.718660   1.000000
   23        4.718666   1.000000
   24        4.718668   1.000000
   25        4.730221   1.000000
   26        4.730223   1.000000
   27        4.730225   1.000000
   28        5.172049   1.000000
   29        5.172053   1.000000
   30        5.172056   1.000000
   31        5.174955   1.000000
   32        5.174959   1.000000
   33        5.413612   1.000000
   34        5.586223   1.000000
   35        5.586224   1.000000
   36        5.586227   1.000000
   37        6.908792   1.000000
   38        7.321118   1.000000
   39        7.321121   1.000000
   40        7.378324   1.000000
   41        7.378329   1.000000
   42        8.542185   1.000000
   43        8.542188   1.000000
   44        9.084847   0.011323
   45        9.084850   0.011318
   46        9.084851   0.011313
   47        9.304575  -0.000098
   48        9.304576  -0.000098
   49        9.706821  -0.000000
   50       10.042833  -0.000000
   51       10.042836  -0.000000
   52       10.042837  -0.000000
   53       10.149115  -0.000000
   54       10.149118  -0.000000
   55       10.149124  -0.000000
   56       10.238737  -0.000000
   57       10.238740  -0.000000
   58       10.238741  -0.000000
   59       10.521222  -0.000000
   60       10.521223  -0.000000

  0.1111111E+00  0.3745146E-15  0.1111111E+00  0.1646091E-01
    1       -5.594752   1.000000
    2       -3.529594   1.000000
    3       -2.218080   1.000000
    4       -1.783133   1.000000
    5       -1.783131   1.000000
    6       -1.726017   1.000000
    7       -1.583708   1.000000
    8       -1.583703   1.000000
    9       -0.944445   1.000000
   10       -0.944443   1.000000
   11       -0.543037   1.000000
   12        0.453688   1.000000
   13        0.569144   1.000000
   14        0.569148   1.000000
   15        0.748896   1.000000
   16        3.212605   1.000000
   17        3.212607   1.000000
   18        3.326638   1.000000
   19        3.881079   1.000000
   20        4.136277   1.000000
   21        4.136279   1.000000
   22        4.250622   1.000000
   23        4.250624   1.000000
   24        4.750945   1.000000
   25        4.799760   1.000000
   26        4.799764   1.000000
   27        4.975228   1.000000
   28        5.016106   1.000000
   29        5.171482   1.000000
   30        5.182772   1.000000
   31        5.209277   1.000000
   32        5.209282   1.000000
   33        5.423447   1.000000
   34        5.626764   1.000000
   35        6.023805   1.000000
   36        6.023806   1.000000
   37        6.572203   1.000000
   38        6.632574   1.000000
   39        6.819653   1.000000
   40        7.767509   1.000000
   41        7.889863   1.000000
   42        8.696127   1.000055
   43        8.801845   1.007120
   44        8.918674   1.005267
   45        8.918676   1.005262
   46        9.083540   0.014807
   47        9.285812  -0.000267
   48        9.456501  -0.000000
   49        9.726706  -0.000000
   50        9.999091  -0.000000
   51        9.999094  -0.000000
   52       10.046384  -0.000000
   53       10.135724  -0.000000
   54       10.147451  -0.000000
   55       10.147457  -0.000000
   56       10.149379  -0.000000
   57       10.269228  -0.000000
   58       10.269231  -0.000000
   59       10.449478  -0.000000
   60       10.492301  -0.000000

  0.2222222E+00  0.3685699E-15  0.1111111E+00  0.1646091E-01
    1       -5.418400   1.000000
    2       -3.430965   1.000000
    3       -2.965476   1.000000
    4       -2.066155   1.000000
    5       -2.066154   1.000000
    6       -2.057835   1.000000
    7       -1.607236   1.000000
    8       -1.607231   1.000000
    9       -0.413014   1.000000
   10       -0.413012   1.000000
   11        0.355620   1.000000
   12        0.668364   1.000000
   13        0.694320   1.000000
   14        0.694323   1.000000
   15        1.299016   1.000000
   16        3.059002   1.000000
   17        3.059003   1.000000
   18        3.323662   1.000000
   19        3.493785   1.000000
   20        3.493787   1.000000
   21        3.496428   1.000000
   22        4.007225   1.000000
   23        4.007227   1.000000
   24        4.565548   1.000000
   25        4.809078   1.000000
   26        4.954245   1.000000
   27        4.954249   1.000000
   28        5.157416   1.000000
   29        5.216050   1.000000
   30        5.311719   1.000000
   31        5.311724   1.000000
   32        5.359976   1.000000
   33        5.443940   1.000000
   34        5.678928   1.000000
   35        5.739392   1.000000