 running on    4 total cores
 distrk:  each k-point on    4 cores,    1 groups
 distr:  one band on    2 cores,    2 groups
 using from now: INCAR     
 vasp.5.4.4.18Apr17-6-g9f103f2a35 (build Dec  7 2020 12:43:57) complex           
 POSCAR found type information on POSCAR  Mo B 
 POSCAR found :  2 types and       3 ions
 scaLAPACK will be used
 LDA part: xc-table for Pade appr. of Perdew
 POSCAR, INCAR and KPOINTS ok, starting setup
 FFT: planning ...
 WAVECAR not read
 augmentation electrons   12.009892027070551     
 soft         electrons   0.0000000000000000     
 augmentation electrons   12.009892027070551     
 soft         electrons   0.0000000000000000     
 augmentation electrons   12.009892027070551     
 augmentation electrons   12.009892027070551     
 soft         electrons   0.0000000000000000     
 soft         electrons   0.0000000000000000     
 total        electrons   12.009892027070551     
 total        electrons   12.009892027070551     
 total        electrons   12.009892027070551     
 total        electrons   12.009892027070551     
 augmentation electrons   121.06499746975219     
 soft         electrons   0.0000000000000000     
 augmentation electrons   121.06499746975219     
 soft         electrons   0.0000000000000000     
 augmentation electrons   121.06499746975219     
 soft         electrons   0.0000000000000000     
 augmentation electrons   121.06499746975219     
 soft         electrons   0.0000000000000000     
 total        electrons   121.06499746975219     
 total        electrons   121.06499746975219     
 total        electrons   121.06499746975219     
 total        electrons   121.06499746975219     
 entering main loop
       N       E                     dE             d eps       ncg     rms          rms(c)
DAV:   1     0.561950191409E+02    0.56195E+02   -0.66841E+03  4320   0.131E+03
DAV:   2    -0.127356861302E+02   -0.68931E+02   -0.65631E+02  5190   0.250E+02
DAV:   3    -0.158688488944E+02   -0.31332E+01   -0.29742E+01  6056   0.452E+01
DAV:   4    -0.159216996549E+02   -0.52851E-01   -0.50341E-01  5646   0.423E+00
DAV:   5    -0.159222826289E+02   -0.58297E-03   -0.58240E-03  5646   0.393E-01    0.317E+01
DAV:   6    -0.110804033493E+02    0.48419E+01   -0.24177E+01  5684   0.353E+01    0.482E+00
DAV:   7    -0.111861367966E+02   -0.10573E+00   -0.60845E-01  5082   0.987E+00    0.501E+00
DAV:   8    -0.113308464941E+02   -0.14471E+00   -0.45650E-01  4750   0.931E+00    0.360E+00
DAV:   9    -0.114422793135E+02   -0.11143E+00   -0.39876E-01  4798   0.656E+00    0.188E+00
DAV:  10    -0.115400743183E+02   -0.97795E-01   -0.41654E-01  4744   0.699E+00    0.133E+00
DAV:  11    -0.116245593356E+02   -0.84485E-01   -0.45632E-01  4848   0.670E+00    0.801E-01
DAV:  12    -0.116564210834E+02   -0.31862E-01   -0.71268E-01  4892   0.916E+00    0.121E+00
DAV:  13    -0.116550537193E+02    0.13674E-02   -0.53973E-03  4692   0.808E-01    0.136E+00
DAV:  14    -0.116613119656E+02   -0.62582E-02   -0.12202E-01  4600   0.302E+00    0.161E-01
DAV:  15    -0.116642836342E+02   -0.29717E-02   -0.78842E-03  4728   0.856E-01    0.244E-01
DAV:  16    -0.116716027646E+02   -0.73191E-02   -0.12644E-01  4744   0.391E+00    0.805E-01
DAV:  17    -0.116705629665E+02    0.10398E-02   -0.24984E-03  4554   0.551E-01    0.834E-01
DAV:  18    -0.116762795772E+02   -0.57166E-02   -0.21133E-01  4740   0.509E+00    0.150E+00
DAV:  19    -0.116857507893E+02   -0.94712E-02   -0.85453E-02  4712   0.330E+00    0.141E+00
DAV:  20    -0.116896761749E+02   -0.39254E-02   -0.28549E-02  4840   0.191E+00    0.122E+00
DAV:  21    -0.116931220443E+02   -0.34459E-02   -0.30536E-02  4744   0.191E+00    0.131E+00
DAV:  22    -0.116976530251E+02   -0.45310E-02   -0.18407E-02  4664   0.142E+00    0.136E+00
DAV:  23    -0.116912677051E+02    0.63853E-02   -0.91325E-02  4678   0.335E+00    0.137E+00
DAV:  24    -0.116936844343E+02   -0.24167E-02   -0.13806E-02  4654   0.129E+00    0.134E+00
DAV:  25    -0.116883028871E+02    0.53815E-02   -0.84757E-02  4752   0.323E+00    0.121E+00
DAV:  26    -0.116909339292E+02   -0.26310E-02   -0.15369E-02  4722   0.138E+00    0.106E+00
DAV:  27    -0.117315876723E+02   -0.40654E-01   -0.27915E+00  4704   0.186E+01    0.353E+00
DAV:  28    -0.117010646625E+02    0.30523E-01   -0.11721E+00  4636   0.126E+01    0.923E-01
DAV:  29    -0.118242422653E+02   -0.12318E+00   -0.14124E+01  4608   0.414E+01    0.243E+01
DAV:  30    -0.117677582780E+02    0.56484E-01   -0.25696E+00  4522   0.192E+01    0.850E+00
DAV:  31    -0.230588469291E+02   -0.11291E+02   -0.23049E+02  4730   0.129E+02    0.107E+03
DAV:  32     0.506066537333E+04    0.50837E+04   -0.10179E+05  5004   0.945E+03    0.557E+03
DAV:  33    -0.771475023148E+03   -0.58321E+04   -0.78224E+03  5566   0.239E+03    0.839E+03
DAV:  34    -0.610453880350E+03    0.16102E+03   -0.18706E+03  5562   0.118E+03    0.865E+03
DAV:  35     0.356239387566E+04    0.41728E+04   -0.13712E+05  4412   0.153E+04    0.386E+03
DAV:  36     0.408541308498E+04    0.52302E+03   -0.15072E+05  6524   0.455E+03    0.666E+03
DAV:  37     0.446784741150E+05    0.40593E+05   -0.33512E+05  6410   0.782E+03    0.975E+03
DAV:  38     0.414292274220E+05   -0.32492E+04   -0.24551E+04  4886   0.498E+03    0.121E+04
DAV:  39     0.604430431770E+05    0.19014E+05   -0.16970E+04  4762   0.554E+03    0.132E+04
  2  -0.000000045   0.0000000002508.611220726  -0.000000000   0.000000005
  2  -0.000000045   0.0000000002508.611691787  -0.000000000   0.000000005
  internal error in RAD_INT: RHOPS /= RHOAE
