   72   72    1    1
  0.2168974E+02  0.1053953E-08  0.6141200E-09  0.2412750E-08  0.5000000E-15
   1.0000000000000000E-004
  CAR 
 Name                                    
    282     15    184

  0.3742002E-15  0.3742002E-15  0.1262379E-14  0.2222222E-01
    1      -14.070143   1.000000
    2      -12.936381   1.000000
    3      -12.878313   1.000000
    4      -12.812892   1.000000
    5      -11.914845   1.000000
    6      -11.724674   1.000000
    7      -11.720002   1.000000
    8      -11.694573   1.000000
    9      -11.518038   1.000000
   10      -11.356700   1.000000
   11      -11.210774   1.000000
   12      -11.152103   1.000000
   13      -11.147324   1.000000
   14      -10.817483   1.000000
   15      -10.554089   1.000000
   16      -10.250826   1.000000
   17      -10.233930   1.000000
   18      -10.229704   1.000000
   19       -9.841105   1.000000
   20       -9.762057   1.000000
   21       -9.684978   1.000000
   22       -9.618752   1.000000
   23       -9.511104   1.000000
   24       -9.326180   1.000000
   25       -8.976687   1.000000
   26       -8.944212   1.000000
   27       -8.586848   1.000000
   28       -8.531784   1.000000
   29       -8.448604   1.000000
   30       -8.290846   1.000000
   31       -8.251231   1.000000
   32       -7.923950   1.000000
   33       -7.748303   1.000000
   34       -7.347875   1.000000
   35       -7.301199   1.000000
   36       -7.162553   1.000000
   37       -7.133851   1.000000
   38       -7.026054   1.000000
   39       -7.020281   1.000000
   40       -6.845274   1.000000
   41       -6.814922   1.000000
   42       -6.700966   1.000000
   43       -6.686539   1.000000
   44       -6.602495   1.000000
   45       -6.538583   1.000000
   46       -6.522522   1.000000
   47       -6.454700   1.000000
   48       -6.239722   1.000000
   49       -6.186201   1.000000
   50       -6.167076   1.000000
   51       -5.913382   1.000000
   52       -5.860514   1.000000
   53       -5.799989   1.000000
   54       -5.697259   1.000000
   55       -5.686983   1.000000
   56       -5.631156   1.000000
   57       -5.456078   1.000000
   58       -5.446551   1.000000
   59       -5.399033   1.000000
   60       -5.289395   1.000000
   61       -5.060226   1.000000
   62       -5.033575   1.000000
   63       -4.879147   1.000000
   64       -4.794403   1.000000
   65       -4.754773   1.000000
   66       -4.732043   1.000000
   67       -4.712293   1.000000
   68       -4.669237   1.000000
   69       -4.491480   1.000000
   70       -4.472498   1.000000
   71       -4.324846   1.000000
   72       -4.305527   1.000000
   73       -4.256478   1.000000
   74       -4.239124   1.000000
   75       -4.217616   1.000000
   76       -4.149813   1.000000
   77       -4.039435   1.000000
   78       -4.017214   1.000000
   79       -4.015140   1.000000
   80       -3.977517   1.000000
   81       -3.958590   1.000000
   82       -3.928551   1.000000
   83       -3.873429   1.000000
   84       -3.844987   1.000000
   85       -3.729894   1.000000
   86       -3.719461   1.000000
   87       -3.657469   1.000000
   88       -3.613963   1.000000
   89       -3.571510   1.000000
   90       -3.557836   1.000000
   91       -3.421066   1.000000
   92       -3.305622   1.000000
   93       -3.180198   1.000000
   94       -3.173202   1.000000
   95       -3.057788   1.000000
   96       -2.897604   1.000000
   97       -2.836033   1.000000
   98       -2.835793   1.000000
   99       -2.756028   1.000000
  100       -2.647012   1.000000
  101       -2.588125   1.000000
  102       -2.468220   1.000000
  103       -2.445931   1.000000
  104       -2.419778   1.000000
  105       -2.377138   1.000000
  106       -2.252805   1.000000
  107       -2.240243   1.000000
  108       -2.120869   1.000000
  109       -2.067421   1.000000
  110       -2.053205   1.000000
  111       -2.015757   1.000000
  112       -1.927734   1.000000
  113       -1.895629   1.000000
  114       -1.853711   1.000000
  115       -1.832071   1.000000
  116       -1.790801   1.000000
  117       -1.748545   1.000000
  118       -1.719345   1.000000
  119       -1.687032   1.000000
  120       -1.558597   1.000000
  121       -1.103810   1.000000
  122       -1.098012   1.000000
  123       -1.059321   1.000000
  124       -0.942558   1.000000
  125       -0.812125   1.000000
  126       -0.769608   1.000000
  127       -0.612233   1.000000
  128       -0.546867   1.000000
  129       -0.473646   1.000000
  130       -0.372786   1.000000
  131       -0.278501   1.000000
  132       -0.275000   1.000000
  133       -0.166549   1.000000
  134       -0.087963   1.000000
  135        0.110377   1.001177
  136        0.138633   1.003776
  137        0.219092   1.031433
  138        0.227112   1.034012
  139        0.294146   0.944577
  140        0.300269   0.918823
  141        0.338201   0.679741
  142        0.414715   0.105134
  143        0.511571  -0.026948
  144        0.527089  -0.019835
  145        0.544958  -0.012601
  146        0.570377  -0.005637
  147        0.575535  -0.004689
  148        0.695773  -0.000011
  149        0.720607  -0.000002
  150        0.747912  -0.000000
  151        0.989540  -0.000000
  152        1.046745  -0.000000
  153        1.091477  -0.000000
  154        1.092028  -0.000000
  155        1.197177  -0.000000
  156        1.209083  -0.000000
  157        1.244610  -0.000000
  158        1.277614  -0.000000
  159        1.330491  -0.000000
  160        1.367379  -0.000000
  161        1.373751  -0.000000
  162        1.379365  -0.000000
  163        1.433699  -0.000000
  164        1.499687  -0.000000
  165        1.627478  -0.000000
  166        1.638872  -0.000000
  167        1.643725  -0.000000
  168        1.674811  -0.000000
  169        1.686177  -0.000000
  170        1.705585  -0.000000
  171        1.715677  -0.000000
  172        1.728500  -0.000000
  173        1.786202  -0.000000
  174        1.973431  -0.000000
  175        2.249298  -0.000000
  176        2.282964  -0.000000
  177        2.303077  -0.000000
  178        2.327083  -0.000000
  179        2.465248  -0.000000
  180        2.474153  -0.000000
  181        2.632201  -0.000000
  182        2.854160  -0.000000
  183        3.442120   0.000000
  184        3.704045   0.000000

  0.2000000E+00  0.3742002E-15  0.1262379E-14  0.4444444E-01
    1      -14.021580   1.000000
    2      -13.314632   1.000000
    3      -12.767880   1.000000
    4      -12.427597   1.000000
    5      -12.106475   1.000000
    6      -11.904342   1.000000
    7      -11.746497   1.000000
    8      -11.446542   1.000000
    9      -11.354372   1.000000
   10      -11.266546   1.000000
   11      -11.207524   1.000000
   12      -11.171446   1.000000
   13      -11.049822   1.000000
   14      -10.884743   1.000000
   15      -10.682854   1.000000
   16      -10.618135   1.000000
   17      -10.584834   1.000000
   18       -9.834206   1.000000
   19       -9.809355   1.000000
   20       -9.690367   1.000000
   21       -9.596562   1.000000
   22       -9.569623   1.000000
   23       -9.487271   1.000000
   24       -9.468410   1.000000
   25       -9.125623   1.000000
   26       -8.862039   1.000000
   27       -8.443300   1.000000
   28       -8.430096   1.000000
   29       -8.220267   1.000000
   30       -8.219311   1.000000
   31       -8.194119   1.000000
   32       -8.174775   1.000000
   33       -7.623790   1.000000
   34       -7.590502   1.000000
   35       -7.392673   1.000000
   36       -7.282217   1.000000
   37       -7.259042   1.000000
   38       -7.211801   1.000000
   39       -7.020662   1.000000
   40       -6.879559   1.000000
   41       -6.749365   1.000000
   42       -6.737416   1.000000
   43       -6.666032   1.000000
   44       -6.586300   1.000000
   45       -6.556872   1.000000
   46       -6.454313   1.000000
   47       -6.284948   1.000000
   48       -6.248835   1.000000
   49       -6.165501   1.000000
   50       -6.105462   1.000000
   51       -5.851530   1.000000
   52       -5.830478   1.000000
   53       -5.722217   1.000000
   54       -5.698019   1.000000
   55       -5.578887   1.000000
   56       -5.566489   1.000000
   57       -5.452918   1.000000
   58       -5.447612   1.000000
   59       -5.422252   1.000000
   60       -5.285855   1.000000
   61       -5.232005   1.000000
   62       -4.963650   1.000000
   63       -4.951741   1.000000
   64       -4.816032   1.000000
   65       -4.815772   1.000000
   66       -4.747530   1.000000
   67       -4.733259   1.000000
   68       -4.667681   1.000000
   69       -4.440396   1.000000
   70       -4.409633   1.000000
   71       -4.295516   1.000000
   72       -4.294632   1.000000
   73       -4.286508   1.000000
   74       -4.256230   1.000000
   75       -4.210267   1.000000
   76       -4.161304   1.000000
   77       -4.035762   1.000000
   78       -4.021656   1.000000
   79       -4.017015   1.000000
   80       -4.002674   1.000000
   81       -3.975173   1.000000
   82       -3.927921   1.000000
   83       -3.832191   1.000000
   84       -3.771052   1.000000
   85       -3.714264   1.000000
   86       -3.669100   1.000000
   87       -3.627829   1.000000
   88       -3.613903   1.000000
   89       -3.596270   1.000000
   90       -3.595224   1.000000
   91       -3.558662   1.000000
   92       -3.277147   1.000000
   93       -3.262579   1.000000
   94       -3.233663   1.000000
   95       -3.035277   1.000000
   96       -3.009665   1.000000
   97       -2.883331   1.000000
   98       -2.839883   1.000000
   99       -2.806483   1.000000
  100       -2.794823   1.000000
  101       -2.465771   1.000000
  102       -2.387470   1.000000
  103       -2.339342   1.000000
  104       -2.322187   1.000000
  105       -2.311022   1.000000
  106       -2.283811   1.000000
  107       -2.231770   1.000000
  108       -2.116432   1.000000
  109       -2.070651   1.000000
  110       -2.067517   1.000000
  111       -1.994262   1.000000
  112       -1.914923   1.000000
  113       -1.849210   1.000000
  114       -1.802413   1.000000
  115       -1.798255   1.000000
  116       -1.740869   1.000000
  117       -1.706870   1.000000
  118       -1.697806   1.000000
  119       -1.549216   1.000000
  120       -1.482028   1.000000
  121       -1.192277   1.000000
  122       -1.134138   1.000000
  123       -1.057215   1.000000
  124       -0.981199   1.000000
  125       -0.911873   1.000000
  126       -0.848402   1.000000
  127       -0.635822   1.000000
  128       -0.630276   1.000000
  129       -0.550119   1.000000
  130       -0.498409   1.000000
  131       -0.404986   1.000000
  132       -0.348813   1.000000
  133       -0.271056   1.000000
  134       -0.159028   1.000000
  135       -0.026881   1.000000
  136        0.060030   1.000094
  137        0.244179   1.034713
  138        0.288549   0.964853
  139        0.289402   0.961959
  140        0.347133   0.607936
  141        0.428155   0.046751
  142        0.517264  -0.024335
  143        0.525977  -0.020334
  144        0.579485  -0.004054
  145        0.595700  -0.002142
  146        0.612846  -0.001019
  147        0.646748  -0.000192
  148        0.647792  -0.000182
  149        0.674278  -0.000041
  150        0.799248  -0.000000
  151        1.019689  -0.000000
  152        1.094059  -0.000000
  153        1.134094  -0.000000
  154        1.204802  -0.000000
  155        1.215261  -0.000000
  156        1.245469  -0.000000
  157        1.254864  -0.000000
  158        1.269262  -0.000000
  159        1.371621  -0.000000
  160        1.397904  -0.000000
  161        1.419534  -0.000000
  162        1.446370  -0.000000
  163        1.491629  -0.000000
  164        1.510854  -0.000000
  165        1.584518  -0.000000
  166        1.599017  -0.000000
  167        1.641667  -0.000000
  168        1.669287  -0.000000
  169        1.673961  -0.000000
  170        1.686541  -0.000000
  171        1.769189  -0.000000
  172        1.817357  -0.000000
  173        1.862814  -0.000000
  174        1.890719  -0.000000
  175        1.958361  -0.000000
  176        2.031762  -0.000000
  177        2.049783  -0.000000
  178        2.121468  -0.000000
  179        2.354006  -0.000000
  180        2.485620  -0.000000
  181        2.779991  -0.000000
  182        3.207871   0.000000
  183        3.270794   0.000000
  184        3.887064   0.000000

  0.4000000E+00  0.3742002E-15  0.1262379E-14  0.4444444E-01
    1      -13.876979   1.000000
    2      -13.639549   1.000000
    3      -12.633525   1.000000
    4      -12.411896   1.000000
    5      -11.887053   1.000000
    6      -11.872446   1.000000
    7      -11.818669   1.000000
    8      -11.359809   1.000000
    9      -11.349003   1.000000
   10      -11.297390   1.000000
   11      -11.180158   1.000000
   12      -11.053703   1.000000
   13      -11.036557   1.000000
   14      -10.916275   1.000000
   15      -10.864695   1.000000
   16      -10.761330   1.000000
   17      -10.737924   1.000000
   18      -10.173203   1.000000
   19       -9.751372   1.000000
   20       -9.709892   1.000000
   21       -9.540578   1.000000
   22       -9.486720   1.000000
   23       -9.383977   1.000000
   24       -9.311477   1.000000
   25       -9.090103   1.000000
   26       -8.876973   1.000000
   27       -8.426320   1.000000
   28       -8.292648   1.000000
   29       -7.998278   1.000000
   30       -7.981342   1.000000
   31       -7.973024   1.000000
   32       -7.971385   1.000000
   33       -7.885850   1.000000
   34       -7.815390   1.000000
   35       -7.684752   1.000000
   36       -7.676065   1.000000
   37       -7.437712   1.000000
   38       -7.318837   1.000000
   39       -7.220132   1.000000
   40       -6.932573   1.000000
   41       -6.687178   1.000000
   42       -6.613172   1.000000
   43       -6.612792   1.000000
   44       -6.546831   1.000000
   45       -6.427429   1.000000
   46       -6.293744   1.000000
   47       -6.245036   1.000000
   48       -6.155951   1.000000
   49       -6.107083   1.000000
   50       -6.057749   1.000000
   51       -5.935068   1.000000
   52       -5.899060   1.000000
   53       -5.806947   1.000000
   54       -5.711016   1.000000
   55       -5.605722   1.000000
   56       -5.478675   1.000000
   57       -5.416953   1.000000
   58       -5.357275   1.000000
   59       -5.237539   1.000000
   60       -5.191868   1.000000
   61       -5.168079   1.000000
   62       -4.982185   1.000000
   63       -4.960572   1.000000
   64       -4.914324   1.000000
   65       -4.853171   1.000000
   66       -4.796206   1.000000
   67       -4.699118   1.000000
   68       -4.638858   1.000000
   69       -4.519800   1.000000
   70       -4.495356   1.000000
   71       -4.423404   1.000000
   72       -4.342229   1.000000
   73       -4.267931   1.000000
   74       -4.257659   1.000000
   75       -4.214774   1.000000
   76       -4.198866   1.000000
   77       -4.017282   1.000000
   78       -3.987586   1.000000
   79       -3.943514   1.000000
   80       -3.942424   1.000000
   81       -3.909055   1.000000
   82       -3.895445   1.000000
   83       -3.813504   1.000000
   84       -3.802385   1.000000
   85       -3.711714   1.000000
   86       -3.707572   1.000000
   87       -3.633816   1.000000
   88       -3.625375   1.000000
   89       -3.535877   1.000000
   90       -3.501973   1.000000
   91       -3.492819   1.000000
   92       -3.364771   1.000000
   93       -3.356423   1.000000
   94       -3.275790   1.000000
   95       -3.254933   1.000000
   96       -3.159770   1.000000
   97       -3.027596   1.000000
   98       -2.958579   1.000000
   99       -2.837965   1.000000
  100       -2.580653   1.000000
  101       -2.467389   1.000000
  102       -2.437795   1.000000
  103       -2.375843   1.000000
  104       -2.374251   1.000000
  105       -2.137625   1.000000
  106       -2.125594   1.000000
  107       -2.121723   1.000000
  108       -2.106349   1.000000
  109       -1.991658   1.000000
  110       -1.950652   1.000000
  111       -1.930166   1.000000
  112       -1.886680   1.000000
  113       -1.838794   1.000000
  114       -1.793820   1.000000
  115       -1.672258   1.000000
  116       -1.646732   1.000000
  117       -1.548332   1.000000
  118       -1.458875   1.000000
  119       -1.436875   1.000000
  120       -1.352080   1.000000
  121       -1.253180   1.000000
  122       -1.239823   1.000000
  123       -1.165722   1.000000
  124       -1.150324   1.000000
  125       -1.095726   1.000000
  126       -0.933112   1.000000
  127       -0.930578   1.000000
  128       -0.768330   1.000000
  129       -0.720880   1.000000
  130       -0.707223   1.000000
  131       -0.517887   1.000000
  132       -0.455375   1.000000
  133       -0.261328   1.000000
  134       -0.225590   1.000000
  135       -0.080363   1.000000
  136        0.165195   1.009420
  137        0.194083   1.020357
  138        0.205486   1.025600
  139        0.295674   0.938501
  140        0.337216   0.687412
  141        0.392961   0.237182
  142        0.444969  -0.001681
  143        0.498999  -0.032134
  144        0.599878  -0.001799
  145        0.602025  -0.001642
  146        0.636135  -0.000333
  147        0.718146  -0.000003
  148        0.871165  -0.000000
  149        0.887920  -0.000000
  150        0.906946  -0.000000
  151        1.027643  -0.000000
  152        1.140721  -0.000000
  153        1.149648  -0.000000
  154        1.225003  -0.000000
  155        1.254010  -0.000000
  156        1.323761  -0.000000
  157        1.324875  -0.000000
  158        1.420314  -0.000000
  159        1.452202  -0.000000
  160        1.479473  -0.000000
  161        1.503232  -0.000000
  162        1.530702  -0.000000
  163        1.546468  -0.000000
  164        1.560089  -0.000000
  165        1.568255  -0.000000
  166        1.592401  -0.000000
  167        1.638062  -0.000000
  168        1.707177  -0.000000
  169        1.708992  -0.000000
  170        1.715680  -0.000000
  171        1.748792  -0.000000
  172        1.756451  -0.000000
  173        1.835707  -0.000000
  174        1.861356  -0.000000
  175        1.904154  -0.000000
  176        1.951708  -0.000000
  177        2.009426  -0.000000
  178        2.039982  -0.000000
  179        2.121804  -0.000000
  180        2.314558  -0.000000
  181        2.710123  -0.000000
  182        2.717048  -0.000000
  183        2.944298  -0.000000
  184        3.160637   0.000000

  0.3742002E-15  0.1111111E+00  0.1262379E-14  0.4444444E-01
    1      -14.023387   1.000000
    2      -12.896864   1.000000
    3      -12.845336   1.000000
    4      -12.773651   1.000000
    5      -12.018282   1.000000
    6      -11.731579   1.000000
    7      -11.695188   1.000000
    8      -11.693540   1.000000
    9      -11.556764   1.000000
   10      -11.401115   1.000000
   11      -11.192911   1.000000
   12      -11.161409   1.000000
   13      -11.144325   1.000000
   14      -10.788621   1.000000
   15      -10.574922   1.000000
   16      -10.231011   1.000000
   17      -10.213787   1.000000
   18      -10.190872   1.000000
   19       -9.814427   1.000000
   20       -9.797787   1.000000
   21       -9.706262   1.000000
   22       -9.645894   1.000000
   23       -9.525163   1.000000
   24       -9.309021   1.000000
   25       -8.998172   1.000000
   26       -8.918831   1.000000
   27       -8.582779   1.000000
   28       -8.536718   1.000000
   29       -8.428261   1.000000
   30       -8.329847   1.000000
   31       -8.074392   1.000000
   32       -7.938743   1.000000
   33       -7.864997   1.000000
   34       -7.454903   1.000000
   35       -7.425503   1.000000
   36       -7.136226   1.000000
   37       -7.107469   1.000000
   38       -7.012884   1.000000
   39       -6.999460   1.000000
   40       -6.787785   1.000000
   41       -6.739935   1.000000
   42       -6.705076   1.000000
   43       -6.691057   1.000000
   44       -6.607384   1.000000
   45       -6.521594   1.000000
   46       -6.498293   1.000000
   47       -6.470379   1.000000
   48       -6.250988   1.000000
   49       -6.232277   1.000000
   50       -6.093638   1.000000
   51       -5.898083   1.000000
   52       -5.871701   1.000000
   53       -5.740303   1.000000
   54       -5.725491   1.000000
   55       -5.650672   1.000000
   56       -5.614440   1.000000
   57       -5.432698   1.000000
   58       -5.375595   1.000000
   59       -5.351671   1.000000
   60       -5.284805   1.000000
   61       -5.064594   1.000000
   62       -4.993661   1.000000
   63       -4.859099   1.000000
   64       -4.799425   1.000000
   65       -4.740644   1.000000
   66       -4.730544   1.000000
   67       -4.709393   1.000000
   68       -4.659972   1.000000
   69       -4.481778   1.000000
   70       -4.434888   1.000000
   71       -4.365968   1.000000
   72       -4.348079   1.000000
   73       -4.263442   1.000000
   74       -4.241175   1.000000
   75       -4.236019   1.000000
   76       -4.150352   1.000000
   77       -4.128739   1.000000
   78       -4.125537   1.000000
   79       -4.109178   1.000000
   80       -4.044701   1.000000
   81       -4.033098   1.000000
   82       -3.875443   1.000000
   83       -3.849127   1.000000
   84       -3.820676   1.000000
   85       -3.795014   1.000000
   86       -3.739064   1.000000
   87       -3.726439   1.000000
   88       -3.594542   1.000000
   89       -3.576386   1.000000
   90       -3.542156   1.000000
   91       -3.539453   1.000000
   92       -3.346384   1.000000
   93       -3.094133   1.000000
   94       -3.002248   1.000000
   95       -2.994724   1.000000
   96       -2.870009   1.000000
   97       -2.862473   1.000000
   98       -2.859490   1.000000
   99       -2.730531   1.000000
  100       -2.656302   1.000000
  101       -2.605777   1.000000
  102       -2.579286   1.000000
  103       -2.497300   1.000000
  104       -2.397288   1.000000
  105       -2.326444   1.000000
  106       -2.304387   1.000000
  107       -2.297135   1.000000
  108       -2.184995   1.000000
  109       -2.112279   1.000000
  110       -2.111731   1.000000
  111       -2.079842   1.000000
  112       -1.971103   1.000000
  113       -1.929577   1.000000
  114       -1.811276   1.000000
  115       -1.795550   1.000000
  116       -1.770281   1.000000
  117       -1.696247   1.000000
  118       -1.671276   1.000000
  119       -1.615803   1.000000
  120       -1.493676   1.000000
  121       -1.188994   1.000000
  122       -1.090813   1.000000
  123       -0.952850   1.000000
  124       -0.929201   1.000000
  125       -0.856382   1.000000
  126       -0.775744   1.000000
  127       -0.677511   1.000000
  128       -0.641732   1.000000
  129       -0.588871   1.000000
  130       -0.357193   1.000000
  131       -0.325403   1.000000
  132       -0.242976   1.000000
  133       -0.071373   1.000000
  134       -0.028081   1.000000
  135        0.067307   1.000140
  136        0.147190   1.005171
  137        0.172680   1.011779
  138        0.218546   1.031226
  139        0.243628   1.034836
  140        0.244066   1.034739
  141        0.306116   0.890705
  142        0.312431   0.856481
  143        0.487003  -0.035161
  144        0.504540  -0.030004
  145        0.513834  -0.025917
  146        0.618728  -0.000777
  147        0.690181  -0.000016
  148        0.741112  -0.000000
  149        0.906924  -0.000000
  150        0.913463  -0.000000
  151        1.018132  -0.000000
  152        1.025295  -0.000000
  153        1.025395  -0.000000
  154        1.192902  -0.000000
  155        1.193911  -0.000000
  156        1.234626  -0.000000
  157        1.255164  -0.000000
  158        1.305495  -0.000000
  159        1.362640  -0.000000
  160        1.373591  -0.000000
  161        1.378594  -0.000000
  162        1.403841  -0.000000
  163        1.421310  -0.000000
  164        1.436810  -0.000000
  165        1.531427  -0.000000
  166        1.581582  -0.000000
  167        1.637011  -0.000000
  168        1.656546  -0.000000
  169        1.711042  -0.000000
  170        1.714109  -0.000000
  171        1.731252  -0.000000
  172        1.759221  -0.000000
  173        1.771579  -0.000000
  174        1.848110  -0.000000
  175        1.877025  -0.000000
  176        1.920668  -0.000000
  177        1.970910  -0.000000
  178        2.099086  -0.000000
  179        2.342150  -0.000000
  180        2.334035  -0.000000
  181        2.416241  -0.000000
  182        2.610767  -0.000000
  183        2.865755  -0.000000
  184        3.572728   0.000000

  0.2000000E+00  0.1111111E+00  0.1262379E-14  0.8888889E-01
    1      -13.975225   1.000000
    2      -13.274367   1.000000
    3      -12.729052   1.000000
    4      -12.396205   1.000000
    5      -12.074189   1.000000
    6      -12.003957   1.000000
    7      -11.800287   1.000000
    8      -11.468061   1.000000
    9      -11.397949   1.000000
   10      -11.241852   1.000000
   11      -11.230002   1.000000
   12      -11.145732   1.000000
   13      -11.046321   1.000000
   14      -10.863047   1.000000
   15      -10.661539   1.000000
   16      -10.632043   1.000000
   17      -10.560349   1.000000
   18       -9.820558   1.000000
   19       -9.793825   1.000000
   20       -9.717942   1.000000
   21       -9.621334   1.000000
   22       -9.559448   1.000000
   23       -9.496400   1.000000
   24       -9.468754   1.000000
   25       -9.121081   1.000000
   26       -8.859493   1.000000
   27       -8.446090   1.000000
   28       -8.426252   1.000000
   29       -8.247850   1.000000
   30       -8.228271   1.000000
   31       -8.190170   1.000000
   32       -8.009405   1.000000
   33       -7.728607   1.000000
   34       -7.669697   1.000000
   35       -7.474366   1.000000
   36       -7.244701   1.000000
   37       -7.204002   1.000000
   38       -7.177847   1.000000
   39       -6.993891   1.000000
   40       -6.863079   1.000000
   41       -6.734654   1.000000
   42       -6.722727   1.000000
   43       -6.703981   1.000000
   44       -6.661638   1.000000
   45       -6.578583   1.000000
   46       -6.549587   1.000000
   47       -6.279202   1.000000
   48       -6.211560   1.000000
   49       -6.066145   1.000000
   50       -6.023184   1.000000
   51       -5.857104   1.000000
   52       -5.821111   1.000000
   53       -5.743239   1.000000
   54       -5.633107   1.000000
   55       -5.592759   1.000000
   56       -5.573933   1.000000
   57       -5.440936   1.000000
   58       -5.381367   1.000000
   59       -5.354732   1.000000
   60       -5.253738   1.000000
   61       -5.218820   1.000000
   62       -4.976754   1.000000
   63       -4.930736   1.000000
   64       -4.799446   1.000000
   65       -4.764802   1.000000
   66       -4.755665   1.000000
   67       -4.678337   1.000000
   68       -4.642822   1.000000
   69       -4.458713   1.000000
   70       -4.430992   1.000000
   71       -4.332887   1.000000
   72       -4.298301   1.000000
   73       -4.276048   1.000000
   74       -4.249386   1.000000
   75       -4.211026   1.000000
   76       -4.198166   1.000000
   77       -4.177324   1.000000
   78       -4.105252   1.000000
   79       -4.100354   1.000000
   80       -4.065793   1.000000
   81       -3.994460   1.000000
   82       -3.897566   1.000000
   83       -3.859926   1.000000
   84       -3.787989   1.000000
   85       -3.772597   1.000000
   86       -3.762102   1.000000
   87       -3.712360   1.000000
   88       -3.607144   1.000000
   89       -3.564654   1.000000
   90       -3.528195   1.000000
   91       -3.518704   1.000000
   92       -3.314023   1.000000
   93       -3.190686   1.000000
   94       -3.095825   1.000000
   95       -3.068085   1.000000
   96       -2.999521   1.000000
   97       -2.908097   1.000000
   98       -2.853377   1.000000
   99       -2.837201   1.000000
  100       -2.770328   1.000000
  101       -2.498435   1.000000
  102       -2.455457   1.000000
  103       -2.422770   1.000000
  104       -2.360242   1.000000
  105       -2.298147   1.000000
  106       -2.281659   1.000000
  107       -2.194964   1.000000
  108       -2.145276   1.000000
  109       -2.116181   1.000000
  110       -2.061740   1.000000
  111       -1.989426   1.000000
  112       -1.987650   1.000000
  113       -1.881314   1.000000
  114       -1.880203   1.000000
  115       -1.802606   1.000000
  116       -1.786721   1.000000
  117       -1.663861   1.000000
  118       -1.614998   1.000000
  119       -1.517355   1.000000
  120       -1.426878   1.000000
  121       -1.247570   1.000000
  122       -1.095875   1.000000
  123       -1.023634   1.000000
  124       -0.979983   1.000000
  125       -0.957861   1.000000
  126       -0.856056   1.000000
  127       -0.835453   1.000000
  128       -0.671449   1.000000
  129       -0.498545   1.000000
  130       -0.465138   1.000000
  131       -0.284064   1.000000
  132       -0.248192   1.000000
  133       -0.113459   1.000000
  134       -0.087138   1.000000
  135       -0.049721   1.000000
  136        0.001529   1.000002
  137        0.109117   1.001113
  138        0.191691   1.019288
  139        0.243827   1.034793
  140        0.338200   0.679748
  141        0.389228   0.264013
  142        0.432583   0.031446
  143        0.450955  -0.013009
  144        0.533370  -0.017105
  145        0.544342  -0.012821
  146        0.627885  -0.000502
  147        0.780982  -0.000000
  148        0.792961  -0.000000
  149        0.830994  -0.000000
  150        0.919905  -0.000000
  151        0.973116  -0.000000
  152        1.059005  -0.000000
  153        1.134331  -0.000000
  154        1.239741  -0.000000
  155        1.268858  -0.000000
  156        1.293390  -0.000000
  157        1.297596  -0.000000