 running on   72 total cores
 distrk:  each k-point on   72 cores,    1 groups
 distr:  one band on    9 cores,    8 groups
 using from now: INCAR     
 vasp.5.4.4.18Apr17-6-g9f103f2a35 (build Dec  7 2020 12:43:57) complex           
 POSCAR found type information on POSCAR  Mo V  B 
 POSCAR found :  3 types and      72 ions
 scaLAPACK will be used

 ----------------------------------------------------------------------------- 
|                                                                             |
|  ADVICE TO THIS USER RUNNING 'VASP/VAMP'   (HEAR YOUR MASTER'S VOICE ...):  |
|                                                                             |
|      You enforced a specific xc-type in the INCAR file,                     |
|      a different type was found on the POTCAR file                          |
|          I HOPE YOU KNOW, WHAT YOU ARE  DOING                               |
|                                                                             |
 ----------------------------------------------------------------------------- 

 LDA part: xc-table for Pade appr. of Perdew
 POSCAR, INCAR and KPOINTS ok, starting setup
 resort distribution
 resort distribution
 resort distribution
 resort distribution
 resort distribution
 resort distribution
 resort distribution
 resort distribution
 resort distribution
 resort distribution
 resort distribution
 resort distribution
 resort distribution
 resort distribution
 resort distribution
 resort distribution
 resort distribution
 resort distribution
 resort distribution
 resort distribution
 resort distribution
 resort distribution
 resort distribution
 resort distribution
 resort distribution
 resort distribution
 resort distribution
 resort distribution
 resort distribution
 resort distribution
 resort distribution
 resort distribution
 resort distribution
 resort distribution
 resort distribution
 resort distribution
 resort distribution
 resort distribution
 resort distribution
 resort distribution
 resort distribution
 resort distribution
 resort distribution
 resort distribution
 resort distribution
 resort distribution
 resort distribution
 resort distribution
 resort distribution
 resort distribution
 resort distribution
 resort distribution
 resort distribution
 resort distribution
 resort distribution
 resort distribution
 resort distribution
 resort distribution
 resort distribution
 resort distribution
 resort distribution
 resort distribution
 resort distribution
 resort distribution
 resort distribution
 resort distribution
 resort distribution
 resort distribution
 resort distribution
 resort distribution
 resort distribution
 resort distribution
 FFT: planning ...
 WAVECAR not read
 augmentation electrons   282.06511845744490     
 soft         electrons   0.0000000000000000     
 augmentation electrons   282.06511845744490     
 soft         electrons   0.0000000000000000     
 augmentation electrons   282.06511845744490     
 soft         electrons   0.0000000000000000     
 augmentation electrons   282.06511845744490     
 soft         electrons   0.0000000000000000     
 augmentation electrons   282.06511845744490     
 soft         electrons   0.0000000000000000     
 augmentation electrons   282.06511845744490     
 soft         electrons   0.0000000000000000     
 augmentation electrons   282.06511845744490     
 soft         electrons   0.0000000000000000     
 augmentation electrons   282.06511845744490     
 soft         electrons   0.0000000000000000     
 augmentation electrons   282.06511845744490     
 soft         electrons   0.0000000000000000     
 augmentation electrons   282.06511845744490     
 soft         electrons   0.0000000000000000     
 augmentation electrons   282.06511845744490     
 soft         electrons   0.0000000000000000     
 augmentation electrons   282.06511845744490     
 soft         electrons   0.0000000000000000     
 augmentation electrons   282.06511845744490     
 soft         electrons   0.0000000000000000     
 augmentation electrons   282.06511845744490     
 soft         electrons   0.0000000000000000     
 augmentation electrons   282.06511845744490     
 soft         electrons   0.0000000000000000     
 augmentation electrons   282.06511845744490     
 soft         electrons   0.0000000000000000     
 augmentation electrons   282.06511845744490     
 soft         electrons   0.0000000000000000     
 augmentation electrons   282.06511845744490     
 soft         electrons   0.0000000000000000     
 augmentation electrons   282.06511845744490     
 soft         electrons   0.0000000000000000     
 augmentation electrons   282.06511845744490     
 soft         electrons   0.0000000000000000     
 augmentation electrons   282.06511845744490     
 soft         electrons   0.0000000000000000     
 augmentation electrons   282.06511845744490     
 soft         electrons   0.0000000000000000     
 augmentation electrons   282.06511845744490     
 soft         electrons   0.0000000000000000     
 augmentation electrons   282.06511845744490     
 soft         electrons   0.0000000000000000     
 augmentation electrons   282.06511845744490     
 soft         electrons   0.0000000000000000     
 augmentation electrons   282.06511845744490     
 soft         electrons   0.0000000000000000     
 augmentation electrons   282.06511845744490     
 soft         electrons   0.0000000000000000     
 augmentation electrons   282.06511845744490     
 soft         electrons   0.0000000000000000     
 augmentation electrons   282.06511845744490     
 soft         electrons   0.0000000000000000     
 augmentation electrons   282.06511845744490     
 soft         electrons   0.0000000000000000     
 augmentation electrons   282.06511845744490     
 soft         electrons   0.0000000000000000     
 augmentation electrons   282.06511845744490     
 soft         electrons   0.0000000000000000     
 augmentation electrons   282.06511845744490     
 soft         electrons   0.0000000000000000     
 augmentation electrons   282.06511845744490     
 soft         electrons   0.0000000000000000     
 augmentation electrons   282.06511845744490     
 soft         electrons   0.0000000000000000     
 augmentation electrons   282.06511845744490     
 soft         electrons   0.0000000000000000     
 augmentation electrons   282.06511845744490     
 soft         electrons   0.0000000000000000     
 augmentation electrons   282.06511845744490     
 soft         electrons   0.0000000000000000     
 augmentation electrons   282.06511845744490     
 soft         electrons   0.0000000000000000     
 augmentation electrons   282.06511845744490     
 soft         electrons   0.0000000000000000     
 augmentation electrons   282.06511845744490     
 soft         electrons   0.0000000000000000     
 augmentation electrons   282.06511845744490     
 soft         electrons   0.0000000000000000     
 augmentation electrons   282.06511845744490     
 soft         electrons   0.0000000000000000     
 augmentation electrons   282.06511845744490     
 soft         electrons   0.0000000000000000     
 augmentation electrons   282.06511845744490     
 soft         electrons   0.0000000000000000     
 augmentation electrons   282.06511845744490     
 soft         electrons   0.0000000000000000     
 augmentation electrons   282.06511845744490     
 soft         electrons   0.0000000000000000     
 augmentation electrons   282.06511845744490     
 soft         electrons   0.0000000000000000     
 augmentation electrons   282.06511845744490     
 soft         electrons   0.0000000000000000     
 augmentation electrons   282.06511845744490     
 soft         electrons   0.0000000000000000     
 augmentation electrons   282.06511845744490     
 soft         electrons   0.0000000000000000     
 augmentation electrons   282.06511845744490     
 soft         electrons   0.0000000000000000     
 augmentation electrons   282.06511845744490     
 soft         electrons   0.0000000000000000     
 augmentation electrons   282.06511845744490     
 soft         electrons   0.0000000000000000     
 augmentation electrons   282.06511845744490     
 soft         electrons   0.0000000000000000     
 augmentation electrons   282.06511845744490     
 soft         electrons   0.0000000000000000     
 augmentation electrons   282.06511845744490     
 soft         electrons   0.0000000000000000     
 augmentation electrons   282.06511845744490     
 soft         electrons   0.0000000000000000     
 augmentation electrons   282.06511845744490     
 soft         electrons   0.0000000000000000     
 augmentation electrons   282.06511845744490     
 soft         electrons   0.0000000000000000     
 augmentation electrons   282.06511845744490     
 soft         electrons   0.0000000000000000     
 augmentation electrons   282.06511845744490     
 soft         electrons   0.0000000000000000     
 augmentation electrons   282.06511845744490     
 soft         electrons   0.0000000000000000     
 augmentation electrons   282.06511845744490     
 soft         electrons   0.0000000000000000     
 augmentation electrons   282.06511845744490     
 soft         electrons   0.0000000000000000     
 augmentation electrons   282.06511845744490     
 soft         electrons   0.0000000000000000     
 augmentation electrons   282.06511845744490     
 soft         electrons   0.0000000000000000     
 augmentation electrons   282.06511845744490     
 soft         electrons   0.0000000000000000     
 augmentation electrons   282.06511845744490     
 soft         electrons   0.0000000000000000     
 augmentation electrons   282.06511845744490     
 soft         electrons   0.0000000000000000     
 augmentation electrons   282.06511845744490     
 augmentation electrons   282.06511845744490     
 soft         electrons   0.0000000000000000     
 soft         electrons   0.0000000000000000     
 total        electrons   282.06511845744490     
 total        electrons   282.06511845744490     
 total        electrons   282.06511845744490     
 total        electrons   282.06511845744490     
 total        electrons   282.06511845744490     
 total        electrons   282.06511845744490     
 total        electrons   282.06511845744490     
 total        electrons   282.06511845744490     
 total        electrons   282.06511845744490     
 total        electrons   282.06511845744490     
 total        electrons   282.06511845744490     
 total        electrons   282.06511845744490     
 total        electrons   282.06511845744490     
 total        electrons   282.06511845744490     
 total        electrons   282.06511845744490     
 total        electrons   282.06511845744490     
 total        electrons   282.06511845744490     
 total        electrons   282.06511845744490     
 total        electrons   282.06511845744490     
 total        electrons   282.06511845744490     
 total        electrons   282.06511845744490     
 total        electrons   282.06511845744490     
 total        electrons   282.06511845744490     
 total        electrons   282.06511845744490     
 total        electrons   282.06511845744490     
 total        electrons   282.06511845744490     
 total        electrons   282.06511845744490     
 total        electrons   282.06511845744490     
 total        electrons   282.06511845744490     
 total        electrons   282.06511845744490     
 total        electrons   282.06511845744490     
 total        electrons   282.06511845744490     
 total        electrons   282.06511845744490     
 total        electrons   282.06511845744490     
 total        electrons   282.06511845744490     
 total        electrons   282.06511845744490     
 total        electrons   282.06511845744490     
 total        electrons   282.06511845744490     
 total        electrons   282.06511845744490     
 total        electrons   282.06511845744490     
 total        electrons   282.06511845744490     
 total        electrons   282.06511845744490     
 total        electrons   282.06511845744490     
 total        electrons   282.06511845744490     
 total        electrons   282.06511845744490     
 total        electrons   282.06511845744490     
 total        electrons   282.06511845744490     
 total        electrons   282.06511845744490     
 total        electrons   282.06511845744490     
 total        electrons   282.06511845744490     
 total        electrons   282.06511845744490     
 total        electrons   282.06511845744490     
 total        electrons   282.06511845744490     
 total        electrons   282.06511845744490     
 total        electrons   282.06511845744490     
 total        electrons   282.06511845744490     
 total        electrons   282.06511845744490     
 total        electrons   282.06511845744490     
 total        electrons   282.06511845744490     
 total        electrons   282.06511845744490     
 total        electrons   282.06511845744490     
 total        electrons   282.06511845744490     
 total        electrons   282.06511845744490     
 total        electrons   282.06511845744490     
 total        electrons   282.06511845744490     
 total        electrons   282.06511845744490     
 total        electrons   282.06511845744490     
 total        electrons   282.06511845744490     
 total        electrons   282.06511845744490     
 total        electrons   282.06511845744490     
 total        electrons   282.06511845744490     
 total        electrons   282.06511845744490     
 augmentation electrons   1284.9986058644067     
 soft         electrons   0.0000000000000000     
 augmentation electrons   1284.9986058644067     
 soft         electrons   0.0000000000000000     
 augmentation electrons   1284.9986058644067     
 soft         electrons   0.0000000000000000     
 augmentation electrons   1284.9986058644067     
 soft         electrons   0.0000000000000000     
 augmentation electrons   1284.9986058644067     
 soft         electrons   0.0000000000000000     
 augmentation electrons   1284.9986058644067     
 soft         electrons   0.0000000000000000     
 augmentation electrons   1284.9986058644067     
 soft         electrons   0.0000000000000000     
 augmentation electrons   1284.9986058644067     
 soft         electrons   0.0000000000000000     
 augmentation electrons   1284.9986058644067     
 soft         electrons   0.0000000000000000     
 augmentation electrons   1284.9986058644067     
 soft         electrons   0.0000000000000000     
 augmentation electrons   1284.9986058644067     
 soft         electrons   0.0000000000000000     
 augmentation electrons   1284.9986058644067     
 soft         electrons   0.0000000000000000     
 augmentation electrons   1284.9986058644067     
 soft         electrons   0.0000000000000000     
 augmentation electrons   1284.9986058644067     
 soft         electrons   0.0000000000000000     
 augmentation electrons   1284.9986058644067     
 soft         electrons   0.0000000000000000     
 augmentation electrons   1284.9986058644067     
 soft         electrons   0.0000000000000000     
 augmentation electrons   1284.9986058644067     
 soft         electrons   0.0000000000000000     
 augmentation electrons   1284.9986058644067     
 soft         electrons   0.0000000000000000     
 augmentation electrons   1284.9986058644067     
 soft         electrons   0.0000000000000000     
 augmentation electrons   1284.9986058644067     
 soft         electrons   0.0000000000000000     
 augmentation electrons   1284.9986058644067     
 soft         electrons   0.0000000000000000     
 augmentation electrons   1284.9986058644067     
 soft         electrons   0.0000000000000000     
 augmentation electrons   1284.9986058644067     
 augmentation electrons   1284.9986058644067     
 soft         electrons   0.0000000000000000     
 augmentation electrons   1284.9986058644067     
 soft         electrons   0.0000000000000000     
 augmentation electrons   1284.9986058644067     
 soft         electrons   0.0000000000000000     
 augmentation electrons   1284.9986058644067     
 soft         electrons   0.0000000000000000     
 augmentation electrons   1284.9986058644067     
 soft         electrons   0.0000000000000000     
 augmentation electrons   1284.9986058644067     
 soft         electrons   0.0000000000000000     
 augmentation electrons   1284.9986058644067     
 soft         electrons   0.0000000000000000     
 augmentation electrons   1284.9986058644067     
 soft         electrons   0.0000000000000000     
 augmentation electrons   1284.9986058644067     
 soft         electrons   0.0000000000000000     
 augmentation electrons   1284.9986058644067     
 soft         electrons   0.0000000000000000     
 augmentation electrons   1284.9986058644067     
 soft         electrons   0.0000000000000000     
 augmentation electrons   1284.9986058644067     
 soft         electrons   0.0000000000000000     
 augmentation electrons   1284.9986058644067     
 soft         electrons   0.0000000000000000     
 augmentation electrons   1284.9986058644067     
 soft         electrons   0.0000000000000000     
 augmentation electrons   1284.9986058644067     
 soft         electrons   0.0000000000000000     
 augmentation electrons   1284.9986058644067     
 soft         electrons   0.0000000000000000     
 augmentation electrons   1284.9986058644067     
 soft         electrons   0.0000000000000000     
 augmentation electrons   1284.9986058644067     
 soft         electrons   0.0000000000000000     
 augmentation electrons   1284.9986058644067     
 soft         electrons   0.0000000000000000     
 augmentation electrons   1284.9986058644067     
 soft         electrons   0.0000000000000000     
 augmentation electrons   1284.9986058644067     
 soft         electrons   0.0000000000000000     
 augmentation electrons   1284.9986058644067     
 soft         electrons   0.0000000000000000     
 augmentation electrons   1284.9986058644067     
 soft         electrons   0.0000000000000000     
 augmentation electrons   1284.9986058644067     
 soft         electrons   0.0000000000000000     
 augmentation electrons   1284.9986058644067     
 soft         electrons   0.0000000000000000     
 augmentation electrons   1284.9986058644067     
 soft         electrons   0.0000000000000000     
 augmentation electrons   1284.9986058644067     
 soft         electrons   0.0000000000000000     
 augmentation electrons   1284.9986058644067     
 soft         electrons   0.0000000000000000     
 augmentation electrons   1284.9986058644067     
 soft         electrons   0.0000000000000000     
 augmentation electrons   1284.9986058644067     
 soft         electrons   0.0000000000000000     
 augmentation electrons   1284.9986058644067     
 soft         electrons   0.0000000000000000     
 augmentation electrons   1284.9986058644067     
 soft         electrons   0.0000000000000000     
 augmentation electrons   1284.9986058644067     
 soft         electrons   0.0000000000000000     
 augmentation electrons   1284.9986058644067     
 soft         electrons   0.0000000000000000     
 augmentation electrons   1284.9986058644067     
 soft         electrons   0.0000000000000000     
 augmentation electrons   1284.9986058644067     
 soft         electrons   0.0000000000000000     
 augmentation electrons   1284.9986058644067     
 soft         electrons   0.0000000000000000     
 augmentation electrons   1284.9986058644067     
 soft         electrons   0.0000000000000000     
 augmentation electrons   1284.9986058644067     
 soft         electrons   0.0000000000000000     
 augmentation electrons   1284.9986058644067     
 soft         electrons   0.0000000000000000     
 augmentation electrons   1284.9986058644067     
 soft         electrons   0.0000000000000000     
 augmentation electrons   1284.9986058644067     
 soft         electrons   0.0000000000000000     
 augmentation electrons   1284.9986058644067     
 soft         electrons   0.0000000000000000     
 augmentation electrons   1284.9986058644067     
 soft         electrons   0.0000000000000000     
 augmentation electrons   1284.9986058644067     
 soft         electrons   0.0000000000000000     
 augmentation electrons   1284.9986058644067     
 soft         electrons   0.0000000000000000     
 augmentation electrons   1284.9986058644067     
 soft         electrons   0.0000000000000000     
 augmentation electrons   1284.9986058644067     
 soft         electrons   0.0000000000000000     
 augmentation electrons   1284.9986058644067     
 soft         electrons   0.0000000000000000     
 soft         electrons   0.0000000000000000     
 total        electrons   1284.9986058644067     
 total        electrons   1284.9986058644067     
 total        electrons   1284.9986058644067     
 total        electrons   1284.9986058644067     
 total        electrons   1284.9986058644067     
 total        electrons   1284.9986058644067     
 total        electrons   1284.9986058644067     
 total        electrons   1284.9986058644067     
 total        electrons   1284.9986058644067     
 total        electrons   1284.9986058644067     
 total        electrons   1284.9986058644067     
 total        electrons   1284.9986058644067     
 total        electrons   1284.9986058644067     
 total        electrons   1284.9986058644067     
 total        electrons   1284.9986058644067     
 total        electrons   1284.9986058644067     
 total        electrons   1284.9986058644067     
 total        electrons   1284.9986058644067     
 total        electrons   1284.9986058644067     
 total        electrons   1284.9986058644067     
 total        electrons   1284.9986058644067     
 total        electrons   1284.9986058644067     
 total        electrons   1284.9986058644067     
 total        electrons   1284.9986058644067     
 total        electrons   1284.9986058644067     
 total        electrons   1284.9986058644067     
 total        electrons   1284.9986058644067     
 total        electrons   1284.9986058644067     
 total        electrons   1284.9986058644067     
 total        electrons   1284.9986058644067     
 total        electrons   1284.9986058644067     
 total        electrons   1284.9986058644067     
 total        electrons   1284.9986058644067     
 total        electrons   1284.9986058644067     
 total        electrons   1284.9986058644067     
 total        electrons   1284.9986058644067     
 total        electrons   1284.9986058644067     
 total        electrons   1284.9986058644067     
 total        electrons   1284.9986058644067     
 total        electrons   1284.9986058644067     
 total        electrons   1284.9986058644067     
 total        electrons   1284.9986058644067     
 total        electrons   1284.9986058644067     
 total        electrons   1284.9986058644067     
 total        electrons   1284.9986058644067     
 total        electrons   1284.9986058644067     
 total        electrons   1284.9986058644067     
 total        electrons   1284.9986058644067     
 total        electrons   1284.9986058644067     
 total        electrons   1284.9986058644067     
 total        electrons   1284.9986058644067     
 total        electrons   1284.9986058644067     
 total        electrons   1284.9986058644067     
 total        electrons   1284.9986058644067     
 total        electrons   1284.9986058644067     
 total        electrons   1284.9986058644067     
 total        electrons   1284.9986058644067     
 total        electrons   1284.9986058644067     
 total        electrons   1284.9986058644067     
 total        electrons   1284.9986058644067     
 total        electrons   1284.9986058644067     
 total        electrons   1284.9986058644067     
 total        electrons   1284.9986058644067     
 total        electrons   1284.9986058644067     
 total        electrons   1284.9986058644067     
 total        electrons   1284.9986058644067     
 total        electrons   1284.9986058644067     
 total        electrons   1284.9986058644067     
 total        electrons   1284.9986058644067     
 total        electrons   1284.9986058644067     
 total        electrons   1284.9986058644067     
 total        electrons   1284.9986058644067     
 entering main loop
       N       E                     dE             d eps       ncg     rms          rms(c)
DAV:   1     0.245915885419E+04    0.24592E+04   -0.10250E+05  5520   0.126E+03
DAV:   2    -0.188667474660E+03   -0.26478E+04   -0.24560E+04  6336   0.311E+02
DAV:   3    -0.618193655079E+03   -0.42953E+03   -0.40773E+03  7736   0.145E+02
DAV:   4    -0.654785287577E+03   -0.36592E+02   -0.34966E+02  8912   0.461E+01
DAV:   5    -0.657164742792E+03   -0.23795E+01   -0.23021E+01  9416   0.111E+01    0.146E+02
RMM:   6    -0.604791311705E+03    0.52373E+02   -0.10996E+03  8594   0.866E+01    0.698E+01
RMM:   7    -0.684908116633E+03   -0.80117E+02   -0.35319E+02  7328   0.473E+01    0.548E+01
RMM:   8    -0.605345247317E+03    0.79563E+02   -0.14057E+02  7341   0.275E+01    0.391E+01
RMM:   9    -0.569272844197E+03    0.36072E+02   -0.35385E+01  7945   0.146E+01    0.270E+01
RMM:  10    -0.556657476881E+03    0.12615E+02   -0.23931E+01  6453   0.158E+01    0.189E+01
RMM:  11    -0.556161819891E+03    0.49566E+00   -0.83332E+00  7772   0.627E+00    0.154E+01
RMM:  12    -0.556221915511E+03   -0.60096E-01   -0.14724E+00  8733   0.159E+00    0.144E+01
RMM:  13    -0.556002426412E+03    0.21949E+00   -0.98071E-01  7546   0.263E+00    0.122E+01
RMM:  14    -0.556436390239E+03   -0.43396E+00   -0.43552E+00  7086   0.588E+00    0.911E+00
RMM:  15    -0.555482026155E+03    0.95436E+00   -0.12929E+00  6229   0.392E+00    0.512E+00
RMM:  16    -0.555068849554E+03    0.41318E+00   -0.20706E+00  8434   0.242E+00    0.251E+00
RMM:  17    -0.555063462908E+03    0.53866E-02   -0.45815E-01  8615   0.101E+00    0.145E+00
RMM:  18    -0.555064923431E+03   -0.14605E-02   -0.26228E-01  6829   0.139E+00    0.145E+00
RMM:  19    -0.555040649866E+03    0.24274E-01   -0.50951E-02  7771   0.506E-01    0.579E-01
RMM:  20    -0.555037537261E+03    0.31126E-02   -0.18157E-02  8178   0.221E-01    0.364E-01
RMM:  21    -0.555035600007E+03    0.19373E-02   -0.88176E-03  6740   0.277E-01    0.185E-01
RMM:  22    -0.555034600143E+03    0.99986E-03   -0.38568E-03  8310   0.116E-01    0.753E-02
RMM:  23    -0.555035115755E+03   -0.51561E-03   -0.25444E-03  6771   0.131E-01    0.238E-01
RMM:  24    -0.555035129331E+03   -0.13576E-04   -0.16941E-03  7066   0.121E-01    0.815E-02
RMM:  25    -0.555035506765E+03   -0.37743E-03   -0.92538E-04  7461   0.579E-02    0.537E-02
RMM:  26    -0.555035990174E+03   -0.48341E-03   -0.97621E-04  6458   0.959E-02    0.120E-01
RMM:  27    -0.555036027633E+03   -0.37459E-04   -0.29589E-04  6883   0.560E-02    0.206E-02
RMM:  28    -0.555036162146E+03   -0.13451E-03   -0.20661E-04  8042   0.221E-02    0.204E-02
RMM:  29    -0.555036180262E+03   -0.18116E-04   -0.82289E-05  7804   0.143E-02    0.320E-02
RMM:  30    -0.555036255620E+03   -0.75358E-04   -0.23265E-05  5910   0.118E-02    0.145E-02
RMM:  31    -0.555036417844E+03   -0.16222E-03   -0.22363E-05  6743   0.762E-03    0.150E-02
RMM:  32    -0.555036570364E+03   -0.15252E-03   -0.16829E-05  5718   0.733E-03    0.672E-03
RMM:  33    -0.555036667378E+03   -0.97014E-04   -0.12144E-05  5514   0.528E-03    0.449E-03
RMM:  34    -0.555036695843E+03   -0.28465E-04   -0.38703E-06  4853   0.419E-03    0.255E-03
RMM:  35    -0.555036715094E+03   -0.19251E-04   -0.25552E-06  4704   0.414E-03    0.521E-03
RMM:  36    -0.555036723164E+03   -0.80697E-05   -0.15240E-06  4437   0.354E-03    0.105E-03
RMM:  37    -0.555036725150E+03   -0.19868E-05   -0.57251E-07  4015   0.226E-03    0.176E-03
RMM:  38    -0.555036726150E+03   -0.99978E-06   -0.29357E-07  3563   0.142E-03
   1 F= -.55503673E+03 E0= -.55503692E+03  d E =0.574625E-03
 augmentation electrons   31.362433189769629     
 soft         electrons   250.76538650773040     
 augmentation electrons   31.362433189769629     
 soft         electrons   250.76538650773040     
 augmentation electrons   31.362433189769629     
 soft         electrons   250.76538650773040     
 augmentation electrons   31.362433189769629     
 soft         electrons   250.76538650773040     
 augmentation electrons   31.362433189769629     
 soft         electrons   250.76538650773040     
 augmentation electrons   31.362433189769629     
 soft         electrons   250.76538650773040     
 augmentation electrons   31.362433189769629     
 soft         electrons   250.76538650773040     
 augmentation electrons   31.362433189769629     
 soft         electrons   250.76538650773040     
 augmentation electrons   31.362433189769629     
 augmentation electrons   31.362433189769629     
 soft         electrons   250.76538650773040     
 augmentation electrons   31.362433189769629     
 soft         electrons   250.76538650773040     
 augmentation electrons   31.362433189769629     
 soft         electrons   250.76538650773040     
 augmentation electrons   31.362433189769629     
 soft         electrons   250.76538650773040     
 augmentation electrons   31.362433189769629     
 soft         electrons   250.76538650773040     
 augmentation electrons   31.362433189769629     
 soft         electrons   250.76538650773040     
 augmentation electrons   31.362433189769629     
 soft         electrons   250.76538650773040     
 augmentation electrons   31.362433189769629     
 soft         electrons   250.76538650773040     
 augmentation electrons   31.362433189769629     
 soft         electrons   250.76538650773040     
 augmentation electrons   31.362433189769629     
 soft         electrons   250.76538650773040     
 augmentation electrons   31.362433189769629     
 soft         electrons   250.76538650773040     
 augmentation electrons   31.362433189769629     
 soft         electrons   250.76538650773040     
 augmentation electrons   31.362433189769629     
 soft         electrons   250.76538650773040     
 augmentation electrons   31.362433189769629     
 soft         electrons   250.76538650773040     
 augmentation electrons   31.362433189769629     
 soft         electrons   250.76538650773040     
 augmentation electrons   31.362433189769629     
 soft         electrons   250.76538650773040     
 augmentation electrons   31.362433189769629     
 soft         electrons   250.76538650773040     
 augmentation electrons   31.362433189769629     
 soft         electrons   250.76538650773040     
 augmentation electrons   31.362433189769629     
 soft         electrons   250.76538650773040     
 augmentation electrons   31.362433189769629     
 soft         electrons   250.76538650773040     
 augmentation electrons   31.362433189769629     
 soft         electrons   250.76538650773040     
 augmentation electrons   31.362433189769629     
 soft         electrons   250.76538650773040     
 augmentation electrons   31.362433189769629     
 soft         electrons   250.76538650773040     
 augmentation electrons   31.362433189769629     
 soft         electrons   250.76538650773040     
 augmentation electrons   31.362433189769629     
 soft         electrons   250.76538650773040     
 augmentation electrons   31.362433189769629     
 soft         electrons   250.76538650773040     
 augmentation electrons   31.362433189769629     
 soft         electrons   250.76538650773040     
 augmentation electrons   31.362433189769629     
 soft         electrons   250.76538650773040     
 augmentation electrons   31.362433189769629     
 soft         electrons   250.76538650773040     
 augmentation electrons   31.362433189769629     
 soft         electrons   250.76538650773040     
 augmentation electrons   31.362433189769629     
 soft         electrons   250.76538650773040     
 augmentation electrons   31.362433189769629     
 soft         electrons   250.76538650773040     
 augmentation electrons   31.362433189769629     
 soft         electrons   250.76538650773040     
 augmentation electrons   31.362433189769629     
 soft         electrons   250.76538650773040     
 augmentation electrons   31.362433189769629     
 soft         electrons   250.76538650773040     
 augmentation electrons   31.362433189769629     
 soft         electrons   250.76538650773040     
 augmentation electrons   31.362433189769629     
 soft         electrons   250.76538650773040     
 augmentation electrons   31.362433189769629     
 soft         electrons   250.76538650773040     
 augmentation electrons   31.362433189769629     
 soft         electrons   250.76538650773040     
 augmentation electrons   31.362433189769629     
 soft         electrons   250.76538650773040     
 augmentation electrons   31.362433189769629     
 soft         electrons   250.76538650773040     
 augmentation electrons   31.362433189769629     
 soft         electrons   250.76538650773040     
 augmentation electrons   31.362433189769629     
 soft         electrons   250.76538650773040     
 augmentation electrons   31.362433189769629     
 soft         electrons   250.76538650773040     
 augmentation electrons   31.362433189769629     
 soft         electrons   250.76538650773040     
 augmentation electrons   31.362433189769629     
 soft         electrons   250.76538650773040     
 augmentation electrons   31.362433189769629     
 soft         electrons   250.76538650773040     
 augmentation electrons   31.362433189769629     
 soft         electrons   250.76538650773040     
 augmentation electrons   31.362433189769629     
 soft         electrons   250.76538650773040     
 augmentation electrons   31.362433189769629     
 soft         electrons   250.76538650773040     
 augmentation electrons   31.362433189769629     
 soft         electrons   250.76538650773040     
 augmentation electrons   31.362433189769629     
 soft         electrons   250.76538650773040     
 augmentation electrons   31.362433189769629     
 soft         electrons   250.76538650773040     
 augmentation electrons   31.362433189769629     
 soft         electrons   250.76538650773040     
 augmentation electrons   31.362433189769629     
 soft         electrons   250.76538650773040     
 augmentation electrons   31.362433189769629     
 soft         electrons   250.76538650773040     
 augmentation electrons   31.362433189769629     
 soft         electrons   250.76538650773040     
 augmentation electrons   31.362433189769629     
 soft         electrons   250.76538650773040     
 augmentation electrons   31.362433189769629     
 soft         electrons   250.76538650773040     
 augmentation electrons   31.362433189769629     
 soft         electrons   250.76538650773040     
 augmentation electrons   31.362433189769629     
 soft         electrons   250.76538650773040     
 augmentation electrons   31.362433189769629     
 soft         electrons   250.76538650773040     
 augmentation electrons   31.362433189769629     
 soft         electrons   250.76538650773040     
 soft         electrons   250.76538650773040     
 total        electrons   282.12781969750000     
 total        electrons   282.12781969750000     
 total        electrons   282.12781969750000     
 total        electrons   282.12781969750000     
 total        electrons   282.12781969750000     
 total        electrons   282.12781969750000     
 total        electrons   282.12781969750000     
 total        electrons   282.12781969750000     
 total        electrons   282.12781969750000     
 total        electrons   282.12781969750000     
 total        electrons   282.12781969750000     
 total        electrons   282.12781969750000     
 total        electrons   282.12781969750000     
 total        electrons   282.12781969750000     
 total        electrons   282.12781969750000     
 total        electrons   282.12781969750000     
 total        electrons   282.12781969750000     
 total        electrons   282.12781969750000     
 total        electrons   282.12781969750000     
 total        electrons   282.12781969750000     
 total        electrons   282.12781969750000     
 total        electrons   282.12781969750000     
 total        electrons   282.12781969750000     
 total        electrons   282.12781969750000     
 total        electrons   282.12781969750000     
 total        electrons   282.12781969750000     
 total        electrons   282.12781969750000     
 total        electrons   282.12781969750000     
 total        electrons   282.12781969750000     
 total        electrons   282.12781969750000     
 total        electrons   282.12781969750000     
 total        electrons   282.12781969750000     
 total        electrons   282.12781969750000     
 total        electrons   282.12781969750000     
 total        electrons   282.12781969750000     
 total        electrons   282.12781969750000     
 total        electrons   282.12781969750000     
 total        electrons   282.12781969750000     
 total        electrons   282.12781969750000     
 total        electrons   282.12781969750000     
 total        electrons   282.12781969750000     
 total        electrons   282.12781969750000     
 total        electrons   282.12781969750000     
 total        electrons   282.12781969750000     
 total        electrons   282.12781969750000     
 total        electrons   282.12781969750000     
 total        electrons   282.12781969750000     
 total        electrons   282.12781969750000     
 total        electrons   282.12781969750000     
 total        electrons   282.12781969750000     
 total        electrons   282.12781969750000     
 total        electrons   282.12781969750000     
 total        electrons   282.12781969750000     
 total        electrons   282.12781969750000     
 total        electrons   282.12781969750000     
 total        electrons   282.12781969750000     
 total        electrons   282.12781969750000     
 total        electrons   282.12781969750000     
 total        electrons   282.12781969750000     
 total        electrons   282.12781969750000     
 total        electrons   282.12781969750000     
 total        electrons   282.12781969750000     
 total        electrons   282.12781969750000     
 total        electrons   282.12781969750000     
 total        electrons   282.12781969750000     
 total        electrons   282.12781969750000     
 total        electrons   282.12781969750000     
 total        electrons   282.12781969750000     
 total        electrons   282.12781969750000     
 total        electrons   282.12781969750000     
 total        electrons   282.12781969750000     
 total        electrons   282.12781969750000     
Note: The following floating-point exceptions are signalling: IEEE_OVERFLOW_FLAG
Note: The following floating-point exceptions are signalling: IEEE_OVERFLOW_FLAG
Note: The following floating-point exceptions are signalling: IEEE_OVERFLOW_FLAG
Note: The following floating-point exceptions are signalling: IEEE_OVERFLOW_FLAG
Note: The following floating-point exceptions are signalling: IEEE_OVERFLOW_FLAG
Note: The following floating-point exceptions are signalling: IEEE_OVERFLOW_FLAG
Note: The following floating-point exceptions are signalling: IEEE_OVERFLOW_FLAG
Note: The following floating-point exceptions are signalling: IEEE_OVERFLOW_FLAG
Note: The following floating-point exceptions are signalling: IEEE_OVERFLOW_FLAG
Note: The following floating-point exceptions are signalling: IEEE_OVERFLOW_FLAG
Note: The following floating-point exceptions are signalling: IEEE_OVERFLOW_FLAG
Note: The following floating-point exceptions are signalling: IEEE_OVERFLOW_FLAG
Note: The following floating-point exceptions are signalling: IEEE_OVERFLOW_FLAG
Note: The following floating-point exceptions are signalling: IEEE_OVERFLOW_FLAG
Note: The following floating-point exceptions are signalling: IEEE_OVERFLOW_FLAG
Note: The following floating-point exceptions are signalling: IEEE_OVERFLOW_FLAG
Note: The following floating-point exceptions are signalling: IEEE_OVERFLOW_FLAG
Note: The following floating-point exceptions are signalling: IEEE_OVERFLOW_FLAG
Note: The following floating-point exceptions are signalling: IEEE_OVERFLOW_FLAG
Note: The following floating-point exceptions are signalling: IEEE_OVERFLOW_FLAG
Note: The following floating-point exceptions are signalling: IEEE_OVERFLOW_FLAG
Note: The following floating-point exceptions are signalling: IEEE_OVERFLOW_FLAG
Note: The following floating-point exceptions are signalling: IEEE_OVERFLOW_FLAG
Note: The following floating-point exceptions are signalling: IEEE_OVERFLOW_FLAG
Note: The following floating-point exceptions are signalling: IEEE_OVERFLOW_FLAG
Note: The following floating-point exceptions are signalling: IEEE_OVERFLOW_FLAG
Note: The following floating-point exceptions are signalling: IEEE_OVERFLOW_FLAG
Note: The following floating-point exceptions are signalling: IEEE_OVERFLOW_FLAG
Note: The following floating-point exceptions are signalling: IEEE_OVERFLOW_FLAG
Note: The following floating-point exceptions are signalling: IEEE_OVERFLOW_FLAG
Note: The following floating-point exceptions are signalling: IEEE_OVERFLOW_FLAG
Note: The following floating-point exceptions are signalling: IEEE_OVERFLOW_FLAG
Note: The following floating-point exceptions are signalling: IEEE_OVERFLOW_FLAG
Note: The following floating-point exceptions are signalling: IEEE_OVERFLOW_FLAG
Note: The following floating-point exceptions are signalling: IEEE_OVERFLOW_FLAG
Note: The following floating-point exceptions are signalling: IEEE_OVERFLOW_FLAG
Note: The following floating-point exceptions are signalling: IEEE_OVERFLOW_FLAG
Note: The following floating-point exceptions are signalling: IEEE_OVERFLOW_FLAG
Note: The following floating-point exceptions are signalling: IEEE_OVERFLOW_FLAG
Note: The following floating-point exceptions are signalling: IEEE_OVERFLOW_FLAG
Note: The following floating-point exceptions are signalling: IEEE_OVERFLOW_FLAG
Note: The following floating-point exceptions are signalling: IEEE_OVERFLOW_FLAG
Note: The following floating-point exceptions are signalling: IEEE_OVERFLOW_FLAG
Note: The following floating-point exceptions are signalling: IEEE_OVERFLOW_FLAG
Note: The following floating-point exceptions are signalling: IEEE_OVERFLOW_FLAG
Note: The following floating-point exceptions are signalling: IEEE_OVERFLOW_FLAG
Note: The following floating-point exceptions are signalling: IEEE_OVERFLOW_FLAG
Note: The following floating-point exceptions are signalling: IEEE_OVERFLOW_FLAG
Note: The following floating-point exceptions are signalling: IEEE_OVERFLOW_FLAG
Note: The following floating-point exceptions are signalling: IEEE_OVERFLOW_FLAG
Note: The following floating-point exceptions are signalling: IEEE_OVERFLOW_FLAG
Note: The following floating-point exceptions are signalling: IEEE_OVERFLOW_FLAG
Note: The following floating-point exceptions are signalling: IEEE_OVERFLOW_FLAG
Note: The following floating-point exceptions are signalling: IEEE_OVERFLOW_FLAG
Note: The following floating-point exceptions are signalling: IEEE_OVERFLOW_FLAG
Note: The following floating-point exceptions are signalling: IEEE_OVERFLOW_FLAG
Note: The following floating-point exceptions are signalling: IEEE_OVERFLOW_FLAG
Note: The following floating-point exceptions are signalling: IEEE_OVERFLOW_FLAG
Note: The following floating-point exceptions are signalling: IEEE_OVERFLOW_FLAG
Note: The following floating-point exceptions are signalling: IEEE_OVERFLOW_FLAG
Note: The following floating-point exceptions are signalling: IEEE_OVERFLOW_FLAG
Note: The following floating-point exceptions are signalling: IEEE_OVERFLOW_FLAG
Note: The following floating-point exceptions are signalling: IEEE_OVERFLOW_FLAG
Note: The following floating-point exceptions are signalling: IEEE_OVERFLOW_FLAG
Note: The following floating-point exceptions are signalling: IEEE_OVERFLOW_FLAG
Note: The following floating-point exceptions are signalling: IEEE_OVERFLOW_FLAG
Note: The following floating-point exceptions are signalling: IEEE_OVERFLOW_FLAG
Note: The following floating-point exceptions are signalling: IEEE_OVERFLOW_FLAG
Note: The following floating-point exceptions are signalling: IEEE_OVERFLOW_FLAG
Note: The following floating-point exceptions are signalling: IEEE_OVERFLOW_FLAG
Note: The following floating-point exceptions are signalling: IEEE_OVERFLOW_FLAG
Note: The following floating-point exceptions are signalling: IEEE_OVERFLOW_FLAG
