   36   36   60    1
  0.8205287E+01  0.6085000E-09  0.6085000E-09  0.9211800E-09  0.5000000E-15
  1.000000000000000E-004
  CAR 
 Name                                    
    138    160     90
 
  0.0000000E+00  0.0000000E+00  0.0000000E+00  0.1074114E-02
    1       -5.701506   1.000000
    2       -4.281664   1.000000
    3       -4.281655   1.000000
    4       -2.168670   1.000000
    5       -2.168652   1.000000
    6       -1.993926   1.000000
    7       -1.993907   1.000000
    8       -1.795023   1.000000
    9       -1.795002   1.000000
   10       -1.742440   1.000000
   11       -1.733777   1.000000
   12       -1.719663   1.000000
   13       -1.398101   1.000000
   14       -1.343713   1.000000
   15       -1.235230   1.000000
   16       -0.417316   1.000000
   17       -0.417307   1.000000
   18       -0.248453   1.000000
   19       -0.248446   1.000000
   20       -0.125681   1.000000
   21       -0.125672   1.000000
   22        1.236723   1.000000
   23        1.236732   1.000000
   24        2.839361   1.000000
   25        2.839373   1.000000
   26        3.046094   1.000000
   27        3.046107   1.000000
   28        3.335084   1.000000
   29        3.335098   1.000000
   30        3.810353   1.000000
   31        3.810367   1.000000
   32        3.871011   1.000000
   33        3.907739   1.000000
   34        3.994473   1.000000
   35        3.994487   1.000000
   36        4.219132   1.000000
   37        4.444119   1.000000
   38        4.444136   1.000000
   39        4.557020   1.000000
   40        4.582321   1.000000
   41        4.619974   1.000000
   42        4.637348   1.000000
   43        4.656841   1.000000
   44        4.656850   1.000000
   45        4.667760   1.000000
   46        4.709079   1.000000
   47        4.744494   1.000000
   48        4.744501   1.000000
   49        4.762942   1.000000
   50        4.829411   1.000000
   51        4.829419   1.000000
   52        4.876357   1.000000
   53        5.683064   1.000000
   54        5.897785   1.000000
   55        5.897792   1.000000
   56        6.086273   1.000000
   57        6.086281   1.000000
   58        6.106601   1.000000
   59        7.288362   1.000000
   60        7.288380   1.000000
   61        7.298709   1.000000
   62        7.298728   1.000000
   63        8.574602   1.000000
   64        8.581153   1.000000
   65        8.675684   1.000000
   66        8.675693   1.000000
   67        8.761742   1.000008
   68        9.238426  -0.033269
   69        9.273523  -0.018269
   70        9.301519  -0.008353
   71        9.301522  -0.008352
   72        9.328537  -0.003204
   73        9.328540  -0.003203
   74        9.568169  -0.000000
   75        9.568179  -0.000000
   76        9.590958  -0.000000
   77        9.590964  -0.000000
   78        9.596536  -0.000000
   79        9.596545  -0.000000
   80        9.975965  -0.000000
   81       10.036876  -0.000000
   82       10.119972  -0.000000
   83       10.135955  -0.000000
   84       10.135974  -0.000000
   85       10.240638  -0.000000
   86       10.240656  -0.000000
   87       10.335273  -0.000000
   88       10.335290  -0.000000
   89       10.627183  -0.000000
   90       10.647755  -0.000000
 
  0.1428571E+00  0.1387779E-16  0.0000000E+00  0.4296455E-02
    1       -5.602853   1.000000
    2       -4.213344   1.000000
    3       -4.213334   1.000000
    4       -2.539717   1.000000
    5       -2.319957   1.000000
    6       -2.319941   1.000000
    7       -2.022886   1.000000
    8       -2.022867   1.000000
    9       -2.007322   1.000000
   10       -2.000246   1.000000
   11       -1.968668   1.000000
   12       -1.968650   1.000000
   13       -0.931183   1.000000
   14       -0.920368   1.000000
   15       -0.445736   1.000000
   16       -0.155120   1.000000
   17       -0.155113   1.000000
   18       -0.136361   1.000000
   19       -0.136353   1.000000
   20        0.113937   1.000000
   21        0.113945   1.000000
   22        1.329107   1.000000
   23        1.329116   1.000000
   24        2.782865   1.000000
   25        2.782877   1.000000
   26        2.903131   1.000000
   27        2.903143   1.000000
   28        3.332249   1.000000
   29        3.332262   1.000000
   30        3.483981   1.000000
   31        3.690207   1.000000
   32        3.783887   1.000000
   33        3.783899   1.000000
   34        3.956354   1.000000
   35        4.010042   1.000000
   36        4.010055   1.000000
   37        4.263725   1.000000
   38        4.263737   1.000000
   39        4.287897   1.000000
   40        4.321156   1.000000
   41        4.594439   1.000000
   42        4.594447   1.000000
   43        4.635875   1.000000
   44        4.648104   1.000000
   45        4.682033   1.000000
   46        4.779441   1.000000
   47        4.779449   1.000000
   48        4.807321   1.000000
   49        4.894153   1.000000
   50        4.921617   1.000000
   51        4.921627   1.000000
   52        5.468530   1.000000
   53        5.468534   1.000000
   54        5.667393   1.000000
   55        5.792976   1.000000
   56        5.792980   1.000000
   57        5.923096   1.000000
   58        6.057423   1.000000
   59        7.201125   1.000000
   60        7.201132   1.000000
   61        7.417226   1.000000
   62        7.417233   1.000000
   63        8.244598   1.000000
   64        8.289134   1.000000
   65        8.719413   1.000000
   66        8.807002   1.000117
   67        8.807011   1.000117
   68        9.215511  -0.033756
   69        9.468359  -0.000002
   70        9.468361  -0.000002
   71        9.518591  -0.000000
   72        9.522834  -0.000000
   73        9.522842  -0.000000
   74        9.620602  -0.000000
   75        9.620603  -0.000000
   76        9.636348  -0.000000
   77        9.636357  -0.000000
   78        9.651231  -0.000000
   79        9.651240  -0.000000
   80        9.888427  -0.000000
   81        9.898020  -0.000000
   82        9.973370  -0.000000
   83        9.973387  -0.000000
   84       10.048925  -0.000000
   85       10.224311  -0.000000
   86       10.224328  -0.000000
   87       10.235409  -0.000000
   88       10.235426  -0.000000
   89       10.490789  -0.000000
   90       10.537977  -0.000000
 
  0.2857143E+00 -0.2775558E-16  0.0000000E+00  0.4296455E-02
    1       -5.311076   1.000000
    2       -4.013203   1.000000
    3       -4.013193   1.000000
    4       -3.425823   1.000000
    5       -2.781329   1.000000
    6       -2.781316   1.000000
    7       -2.281798   1.000000
    8       -2.277298   1.000000
    9       -2.080374   1.000000
   10       -2.080358   1.000000
   11       -2.080351   1.000000
   12       -2.080334   1.000000
   13       -0.275401   1.000000
   14       -0.260152   1.000000
   15        0.136339   1.000000
   16        0.136349   1.000000
   17        0.137809   1.000000
   18        0.137820   1.000000
   19        0.621654   1.000000
   20        0.880556   1.000000
   21        0.880564   1.000000
   22        1.598683   1.000000
   23        1.598692   1.000000
   24        2.536059   1.000000
   25        2.536069   1.000000
   26        2.547549   1.000000
   27        2.547559   1.000000
   28        2.672988   1.000000
   29        2.730917   1.000000
   30        3.473001   1.000000
   31        3.473012   1.000000
   32        3.494669   1.000000
   33        3.494678   1.000000
   34        3.650239   1.000000
   35        3.955781   1.000000
   36        3.955790   1.000000
   37        4.098049   1.000000
   38        4.098056   1.000000
   39        4.201877   1.000000
   40        4.400130   1.000000
   41        4.400134   1.000000
   42        4.469062   1.000000
   43        4.662555   1.000000
   44        4.662557   1.000000
   45        4.685170   1.000000
   46        4.717559   1.000000
   47        4.719694   1.000000
   48        4.808226   1.000000
   49        4.808235   1.000000
   50        4.992459   1.000000
   51        5.063367   1.000000
   52        5.219620   1.000000
   53        5.219632   1.000000
   54        5.280347   1.000000
   55        5.280353   1.000000
   56        5.507191   1.000000
   57        6.572523   1.000000
   58        6.746717   1.000000
   59        6.814124   1.000000
   60        6.814128   1.000000
   61        7.623000   1.000000
   62        7.665476   1.000000
   63        7.746366   1.000000
   64        7.746371   1.000000
   65        8.781486   1.000027
   66        8.888379   1.004867
   67        8.888387   1.004868
   68        9.132101   0.264046
   69        9.362442  -0.000747
   70        9.362450  -0.000747
   71        9.417239  -0.000041
   72        9.422629  -0.000030
   73        9.427988  -0.000021
   74        9.428003  -0.000021
   75        9.638071  -0.000000
   76        9.638083  -0.000000
   77        9.642021  -0.000000
   78        9.642032  -0.000000
   79        9.958550  -0.000000
   80       10.024312  -0.000000
   81       10.024317  -0.000000
   82       10.061154  -0.000000
   83       10.155364  -0.000000
   84       10.271804  -0.000000
   85       10.271810  -0.000000
   86       10.274859  -0.000000
   87       10.274874  -0.000000
   88       10.341283  -0.000000
   89       10.341294  -0.000000
   90       10.353840  -0.000000
 
  0.4285714E+00 -0.2775558E-16  0.0000000E+00  0.4296455E-02
    1       -4.838072   1.000000
    2       -4.201981   1.000000
    3       -3.693976   1.000000
    4       -3.693965   1.000000
    5       -3.273670   1.000000
    6       -3.273658   1.000000
    7       -2.422729   1.000000
    8       -2.421053   1.000000
    9       -2.122520   1.000000
   10       -2.122504   1.000000
   11       -2.121010   1.000000
   12       -2.120995   1.000000
   13        0.383840   1.000000
   14        0.392827   1.000000
   15        0.392841   1.000000
   16        0.395589   1.000000
   17        0.395635   1.000000
   18        0.395649   1.000000
   19        1.667645   1.000000
   20        1.725411   1.000000
   21        1.725417   1.000000
   22        1.904825   1.000000
   23        1.949046   1.000000
   24        1.977949   1.000000
   25        1.977956   1.000000
   26        2.186784   1.000000
   27        2.186793   1.000000
   28        2.261791   1.000000
   29        2.261799   1.000000
   30        2.740144   1.000000
   31        3.035169   1.000000
   32        3.035175   1.000000
   33        3.344143   1.000000
   34        3.344147   1.000000
   35        3.762438   1.000000
   36        3.762442   1.000000
   37        4.011728   1.000000
   38        4.011735   1.000000
   39        4.164758   1.000000
   40        4.164761   1.000000
   41        4.408631   1.000000
   42        4.408637   1.000000
   43        4.573856   1.000000
   44        4.671751   1.000000
   45        4.736061   1.000000
   46        4.747444   1.000000
   47        4.764697   1.000000
   48        4.854348   1.000000
   49        4.854358   1.000000
   50        4.927525   1.000000
   51        4.927531   1.000000
   52        5.032121   1.000000
   53        5.169779   1.000000
   54        5.195893   1.000000
   55        5.672951   1.000000
   56        5.672963   1.000000
   57        6.242369   1.000000
   58        6.242378   1.000000
   59        7.194089   1.000000
   60        7.211748   1.000000
   61        7.341694   1.000000
   62        7.385767   1.000000
   63        8.225677   1.000000
   64        8.225688   1.000000
   65        8.769481   1.000013
   66        8.793143   1.000054
   67        8.803265   1.000095
   68        8.803278   1.000095
   69        8.889736   1.005110
   70        8.984691   1.035158
   71        8.984698   1.035157
   72        9.015232   1.007114
   73        9.158021   0.102993
   74        9.158029   0.102957
   75        9.557972  -0.000000
   76        9.557984  -0.000000
   77        9.558624  -0.000000
   78        9.558636  -0.000000
   79        9.768346  -0.000000
   80        9.874026  -0.000000
   81        9.978949  -0.000000
   82       10.183565  -0.000000
   83       10.349996  -0.000000
   84       10.350009  -0.000000
   85       10.370368  -0.000000
   86       10.370382  -0.000000
   87       10.413128  -0.000000
   88       10.431012  -0.000000
   89       10.772623  -0.000000
   90       10.772631  -0.000000
 
  0.1428571E+00  0.1428571E+00  0.0000000E+00  0.2148228E-02
    1       -5.407213   1.000000
    2       -4.077670   1.000000
    3       -4.077660   1.000000
    4       -2.935191   1.000000
    5       -2.920656   1.000000
    6       -2.491020   1.000000
    7       -2.491003   1.000000
    8       -2.452516   1.000000
    9       -2.452502   1.000000
   10       -1.792798   1.000000
   11       -1.792779   1.000000
   12       -1.398866   1.000000
   13       -1.201069   1.000000
   14       -0.244546   1.000000
   15       -0.244537   1.000000
   16        0.061157   1.000000
   17        0.196115   1.000000
   18        0.435792   1.000000
   19        0.435802   1.000000
   20        0.557842   1.000000
   21        0.557850   1.000000
   22        1.509666   1.000000
   23        1.509675   1.000000
   24        2.506397   1.000000
   25        2.506407   1.000000
   26        2.588096   1.000000
   27        2.731958   1.000000
   28        2.731968   1.000000
   29        3.440137   1.000000
   30        3.440151   1.000000
   31        3.602816   1.000000
   32        3.694129   1.000000
   33        3.694139   1.000000
   34        3.897541   1.000000
   35        3.903213   1.000000
   36        3.903223   1.000000
   37        4.049807   1.000000
   38        4.153859   1.000000
   39        4.188196   1.000000
   40        4.188208   1.000000
   41        4.295553   1.000000
   42        4.295558   1.000000
   43        4.472509   1.000000
   44        4.557609   1.000000
   45        4.622003   1.000000
   46        4.969513   1.000000
   47        4.969521   1.000000
   48        5.012041   1.000000
   49        5.012054   1.000000
   50        5.052583   1.000000
   51        5.052585   1.000000
   52        5.104627   1.000000
   53        5.237696   1.000000
   54        5.237704   1.000000
   55        5.597229   1.000000
   56        5.682424   1.000000
   57        5.723655   1.000000
   58        6.746134   1.000000
   59        7.083557   1.000000
   60        7.083557   1.000000
   61        7.464170   1.000000
   62        7.464176   1.000000
   63        7.521172   1.000000
   64        8.346610   1.000000
   65        8.494416   1.000000
   66        9.006816   1.020549
   67        9.006825   1.020537
   68        9.134249   0.248479
   69        9.357510  -0.000939
   70        9.357518  -0.000939
   71        9.456274  -0.000003
   72        9.456286  -0.000003
   73        9.654667  -0.000000
   74        9.672783  -0.000000
   75        9.672790  -0.000000
   76        9.689653  -0.000000
   77        9.726748  -0.000000
   78        9.796451  -0.000000
   79        9.796463  -0.000000
   80        9.889585  -0.000000
   81        9.889601  -0.000000
   82        9.896590  -0.000000
   83        9.896602  -0.000000
   84        9.980969  -0.000000
   85       10.213134  -0.000000
   86       10.213139  -0.000000
   87       10.336315  -0.000000
   88       10.387075  -0.000000
   89       10.423411  -0.000000
   90       10.431165  -0.000000
 
  0.2857143E+00  0.1428571E+00  0.0000000E+00  0.4296455E-02
    1       -5.024626   1.000000
    2       -3.817474   1.000000
    3       -3.817463   1.000000
    4       -3.763687   1.000000
    5       -3.161675   1.000000
    6       -2.992270   1.000000
    7       -2.992257   1.000000
    8       -2.592145   1.000000
    9       -2.592130   1.000000
   10       -1.639799   1.000000
   11       -1.639781   1.000000
   12       -1.503233   1.000000
   13       -0.536278   1.000000
   14       -0.223923   1.000000
   15       -0.223910   1.000000
   16        0.750640   1.000000
   17        0.877764   1.000000
   18        0.877775   1.000000
   19        1.198178   1.000000
   20        1.423320   1.000000
   21        1.423329   1.000000
   22        1.627022   1.000000
   23        1.841995   1.000000
   24        1.842003   1.000000
   25        2.123989   1.000000
   26        2.123998   1.000000
   27        2.521065   1.000000
   28        2.521073   1.000000
   29        2.933477   1.000000
   30        3.155064   1.000000
   31        3.235494   1.000000
   32        3.235498   1.000000
   33        3.589358   1.000000
   34        3.589362   1.000000
   35        3.619099   1.000000
   36        3.619103   1.000000
   37        3.742842   1.000000
   38        3.742846   1.000000
   39        4.104465   1.000000
   40        4.340598   1.000000
   41        4.340608   1.000000
   42        4.468675   1.000000
   43        4.480894   1.000000
   44        4.510247   1.000000
   45        4.510253   1.000000
   46        4.618873   1.000000
   47        4.766561   1.000000
   48        4.795377   1.000000
   49        4.795379   1.000000
   50        5.110391   1.000000
   51        5.110402   1.000000
   52        5.152756   1.000000
   53        5.357055   1.000000
   54        5.403144   1.000000
   55        5.403154   1.000000
   56        5.706790   1.000000
   57        6.494281   1.000000
   58        6.585391   1.000000
   59        6.585398   1.000000
   60        6.856943   1.000000
   61        7.520884   1.000000
   62        7.838526   1.000000
   63        7.838536   1.000000
   64        7.953579   1.000000
   65        8.596301   1.000000
   66        8.898211   1.006854
   67        8.898222   1.006857
   68        8.984436   1.035194
   69        9.079336   0.693272
   70        9.173253   0.038840
   71        9.173262   0.038809
   72        9.191176  -0.008329
   73        9.219546  -0.034895
   74        9.219559  -0.034898
   75        9.533208  -0.000000
   76        9.584347  -0.000000
   77        9.584358  -0.000000
   78        9.814633  -0.000000
   79        9.814647  -0.000000
   80        9.986953  -0.000000
   81       10.052463  -0.000000
   82       10.052476  -0.000000
   83       10.081702  -0.000000
   84       10.184603  -0.000000
   85       10.184612  -0.000000
   86       10.222506  -0.000000
   87       10.351736  -0.000000
   88       10.473330  -0.000000
   89       10.593497  -0.000000
   90       10.593507  -0.000000
 
  0.4285714E+00  0.1428571E+00  0.0000000E+00  0.4296455E-02
    1       -4.471391   1.000000
    2       -4.469894   1.000000
    3       -3.455470   1.000000
    4       -3.455459   1.000000
    5       -3.448649   1.000000
    6       -3.448638   1.000000
    7       -3.239464   1.000000
    8       -2.632019   1.000000
    9       -2.632005   1.000000
   10       -1.589144   1.000000
   11       -1.589128   1.000000
   12       -1.572510   1.000000
   13       -0.187507   1.000000
   14       -0.187491   1.000000
   15        0.029796   1.000000
   16        0.983490   1.000000
   17        1.118938   1.000000
   18        1.136030   1.000000
   19        1.136043   1.000000
   20        1.889012   1.000000
   21        1.889022   1.000000
   22        2.107864   1.000000
   23        2.107867   1.000000
   24        2.134872   1.000000
   25        2.134874   1.000000
   26        2.219494   1.000000
   27        2.234488   1.000000
   28        2.359128   1.000000
   29        2.359134   1.000000
   30        2.516445   1.000000
   31        2.886848   1.000000
   32        2.886850   1.000000
   33        2.955072   1.000000
   34        2.955074   1.000000
   35        3.680564   1.000000
   36        3.680571   1.000000
   37        3.907651   1.000000
   38        3.907657   1.000000
   39        4.021882   1.000000
   40        4.021891   1.000000
   41        4.300741   1.000000
   42        4.307776   1.000000
   43        4.431306   1.000000
   44        4.431311   1.000000
   45        4.580863   1.000000
   46        4.664745   1.000000
   47        4.664755   1.000000
   48        4.704071   1.000000
   49        4.889180   1.000000
   50        5.019515   1.000000
   51        5.169374   1.000000
   52        5.169383   1.000000
   53        5.560712   1.000000
   54        5.575128   1.000000
   55        5.974773   1.000000
   56        5.974782   1.000000
   57        6.011683   1.000000
   58        6.011694   1.000000
   59        6.549859   1.000000
   60        6.921177   1.000000
   61        7.726418   1.000000
   62        8.151885   1.000000
   63        8.360165   1.000000
   64        8.360177   1.000000
   65        8.372418   1.000000
   66        8.372430   1.000000
   67        8.621039   1.000000
   68        8.789732   1.000044
   69        8.792975   1.000053
   70        8.801442   1.000086
   71        9.077869   0.704520
   72        9.077879   0.704440
   73        9.336561  -0.002327
   74        9.336569  -0.002326
   75        9.367567  -0.000586
   76        9.367577  -0.000586
   77        9.558154  -0.000000
   78        9.591450  -0.000000
   79        9.787347  -0.000000
   80        9.787360  -0.000000
   81        9.985509  -0.000000
   82       10.144028  -0.000000
   83       10.144042  -0.000000
   84       10.154573  -0.000000
   85       10.177527  -0.000000
   86       10.514988  -0.000000
   87       10.659881  -0.000000
   88       10.659891  -0.000000
   89       10.782271  -0.000000
   90       10.791602  -0.000000
 
 -0.4285714E+00  0.1428571E+00  0.0000000E+00  0.4296455E-02
    1       -5.026545   1.000000
    2       -3.824981   1.000000
    3       -3.824970   1.000000
    4       -3.763251   1.000000
    5       -3.160171   1.000000
    6       -2.994253   1.000000
    7       -2.994240   1.000000
    8       -2.589232   1.000000
    9       -2.589217   1.000000
   10       -1.630585   1.000000
   11       -1.630568   1.000000
   12       -1.510887   1.000000
   13       -0.517741   1.000000
   14       -0.226930   1.000000
   15       -0.226917   1.000000
   16        0.732181   1.000000
   17        0.913432   1.000000
   18        0.913443   1.000000
   19        1.131012   1.000000
   20        1.304814   1.000000
   21        1.304822   1.000000
   22        1.701849   1.000000
   23        1.856727   1.000000
   24        1.856735   1.000000
   25        2.186822   1.000000
   26        2.186832   1.000000
   27        2.618926   1.000000
   28        2.618934   1.000000
   29        2.923147   1.000000
   30        3.103383   1.000000
   31        3.103386   1.000000
   32        3.161470   1.000000
   33        3.536755   1.000000
   34        3.536759   1.000000
   35        3.604429   1.000000
   36        3.604435   1.000000
   37        3.892227   1.000000
   38        3.892232   1.000000
   39        4.072012   1.000000
   40        4.319113   1.000000
   41        4.320464   1.000000
   42        4.320471   1.000000
   43        4.404975   1.000000
   44        4.404980   1.000000
   45        4.469141   1.000000
   46        4.481874   1.000000
   47        4.667685   1.000000
   48        4.667694   1.000000
   49        5.000452   1.000000
   50        5.206271   1.000000
   51        5.206275   1.000000
   52        5.278026   1.000000
   53        5.315456   1.000000
   54        5.523745   1.000000
   55        5.523758   1.000000
   56        5.669364   1.000000
   57        6.616622   1.000000
   58        6.616629   1.000000
   59        6.694947   1.000000
   60        6.842334   1.000000
   61        7.473276   1.000000
   62        7.832142   1.000000
   63        7.832153   1.000000
   64        7.894000   1.000000
   65        8.587268   1.000000
   66        8.951525   1.027042
   67        8.951537   1.027047
   68        9.000979   1.026992
   69        9.093459   0.579354
   70        9.093467   0.579291
   71        9.125662   0.312657
   72        9.184629   0.005619
   73        9.278839  -0.016033
   74        9.278852  -0.016027
   75        9.494391  -0.000000
   76        9.577218  -0.000000
   77        9.577228  -0.000000
   78        9.817123  -0.000000
   79        9.817136  -0.000000
   80       10.005773  -0.000000
   81       10.034822  -0.000000
   82       10.034833  -0.000000
   83       10.077588  -0.000000
   84       10.255856  -0.000000
   85       10.280949  -0.000000
   86       10.280955  -0.000000
   87       10.322967  -0.000000
   88       10.528304  -0.000000
   89       10.577035  -0.000000
   90       10.577047  -0.000000
 
 -0.2857143E+00  0.1428571E+00  0.0000000E+00  0.4296455E-02
    1       -5.408813   1.000000
    2       -4.082964   1.000000
    3       -4.082954   1.000000
    4       -2.930532   1.000000
    5       -2.924622   1.000000
    6       -2.507360   1.000000
    7       -2.507346   1.000000
    8       -2.463401   1.000000
    9       -2.463385   1.000000
   10       -1.743300   1.000000
   11       -1.743281   1.000000
   12       -1.422838   1.000000
   13       -1.167438   1.000000
   14       -0.256060   1.000000
   15       -0.256051   1.000000
   16        0.108318   1.000000
   17        0.113830   1.000000
   18        0.453523   1.000000
   19        0.453531   1.000000
   20        0.495945   1.000000
   21        0.495954   1.000000
   22        1.510025   1.000000
   23        1.510033   1.000000
   24        2.536102   1.000000
   25        2.536113   1.000000
   26        2.667434   1.000000
   27        3.022746   1.000000
   28        3.022758   1.000000
   29        3.096336   1.000000
   30        3.096347   1.000000
   31        3.561844   1.000000
   32        3.736474   1.000000
   33        3.736484   1.000000
   34        3.748031   1.000000
   35        3.748042   1.000000
   36        3.858253   1.000000
   37        3.962353   1.000000
   38        4.044691   1.000000
   39        4.193152   1.000000
   40        4.193162   1.000000
   41        4.326767   1.000000
   42        4.518611   1.000000
   43        4.518613   1.000000
   44        4.585417   1.000000
   45        4.706520   1.000000
   46        4.706528   1.000000
   47        4.848078   1.000000
   48        4.916901   1.000000
   49        4.916905   1.000000
   50        4.985290   1.000000
   51        5.170915   1.000000
   52        5.170928   1.000000
   53        5.425172   1.000000
   54        5.425175   1.000000
   55        5.645275   1.000000
   56        5.708644   1.000000
   57        6.128767   1.000000
   58        6.584654   1.000000
   59        7.165850   1.000000
   60        7.165851   1.000000
   61        7.419834   1.000000
   62        7.419839   1.000000
   63        7.525626   1.000000
   64        8.334507   1.000000
   65        8.423373   1.000000
   66        8.987072   1.034710
   67        8.987080   1.034708
   68        9.160594   0.090519
   69        9.419303  -0.000036
   70        9.419313  -0.000036
   71        9.437288  -0.000012
   72        9.437299  -0.000012
   73        9.654125  -0.000000
   74        9.699567  -0.000000
   75        9.700503  -0.000000
   76        9.707877  -0.000000
   77        9.707884  -0.000000
   78        9.792971  -0.000000
   79        9.792983  -0.000000
   80        9.897863  -0.000000
   81        9.897876  -0.000000
   82        9.911457  -0.000000
   83        9.911470  -0.000000
   84        9.979138  -0.000000
   85       10.193183  -0.000000
   86       10.193187  -0.000000
   87       10.314116  -0.000000
   88       10.335879  -0.000000
   89       10.426678  -0.000000
   90       10.426696  -0.000000
 
 -0.1428571E+00  0.1428571E+00  0.0000000E+00  0.2148228E-02
    1       -5.603475   1.000000
    2       -4.215227   1.000000
    3       -4.215217   1.000000
    4       -2.535400   1.000000
    5       -2.264921   1.000000
    6       -2.264904   1.000000
    7       -2.217125   1.000000
    8       -2.217108   1.000000
    9       -2.076723   1.000000
   10       -1.932300   1.000000
   11       -1.804997   1.000000
   12       -1.804976   1.000000
   13       -0.928632   1.000000
   14       -0.913160   1.000000
   15       -0.466530   1.000000
   16       -0.257270   1.000000
   17       -0.257262   1.000000
   18       -0.075198   1.000000
   19       -0.075189   1.000000
   20        0.120220   1.000000
   21        0.120228   1.000000
   22        1.328922   1.000000
   23        1.328931   1.000000
   24        2.779455   1.000000
   25        2.779466   1.000000
   26        3.112414   1.000000
   27        3.112427   1.000000
   28        3.127766   1.000000
   29        3.127779   1.000000
   30        3.651206   1.000000
   31        3.791644   1.000000
   32        3.865253   1.000000
   33        3.865265   1.000000
   34        3.876350   1.000000
   35        3.876363   1.000000
   36        3.901556   1.000000
   37        3.918182   1.000000
   38        4.241151   1.000000
   39        4.241162   1.000000
   40        4.245712   1.000000
   41        4.507074   1.000000
   42        4.581241   1.000000
   43        4.608763   1.000000
   44        4.608770   1.000000
   45        4.721282   1.000000
   46        4.779820   1.000000
   47        4.779828   1.000000
   48        4.784074   1.000000
   49        4.948520   1.000000
   50        4.948531   1.000000
   51        5.497435   1.000000
   52        5.626257   1.000000
   53        5.626262   1.000000
   54        5.675496   1.000000
   55        5.675500   1.000000
   56        5.742869   1.000000
   57        5.790302   1.000000
   58        5.963413   1.000000
   59        7.233751   1.000000
   60        7.233757   1.000000
   61        7.405934   1.000000
   62        7.405943   1.000000
   63        8.190290   1.000000
   64        8.418213   1.000000
   65        8.602757   1.000000
   66        8.800743   1.000083
   67        8.800751   1.000083
   68        9.248145  -0.029703
   69        9.482128  -0.000001
   70        9.482130  -0.000001
   71        9.505761  -0.000000
   72        9.543081  -0.000000
   73        9.543090  -0.000000
   74        9.605285  -0.000000