   76   76   85    1
  0.2054817E+02  0.1053953E-08  0.6141200E-09  0.2412750E-08  0.5000000E-15
   1.0000000000000000E-004
  CAR 
 Name                                    
    286     15    184

  0.3742002E-15  0.3742002E-15  0.1262379E-14  0.2222222E-01
    1      -13.775548   1.000000
    2      -12.676181   1.000000
    3      -12.623080   1.000000
    4      -12.565581   1.000000
    5      -11.686158   1.000000
    6      -11.591791   1.000000
    7      -11.432452   1.000000
    8      -11.368354   1.000000
    9      -11.212084   1.000000
   10      -11.207943   1.000000
   11      -11.070145   1.000000
   12      -10.894223   1.000000
   13      -10.820937   1.000000
   14      -10.610453   1.000000
   15      -10.517790   1.000000
   16      -10.482813   1.000000
   17      -10.441013   1.000000
   18      -10.111785   1.000000
   19       -9.993004   1.000000
   20       -9.880298   1.000000
   21       -9.727345   1.000000
   22       -9.586099   1.000000
   23       -9.448744   1.000000
   24       -9.355001   1.000000
   25       -9.319251   1.000000
   26       -8.792175   1.000000
   27       -8.724728   1.000000
   28       -8.691216   1.000000
   29       -8.313256   1.000000
   30       -8.180089   1.000000
   31       -7.986295   1.000000
   32       -7.690137   1.000000
   33       -7.664599   1.000000
   34       -7.655656   1.000000
   35       -7.537135   1.000000
   36       -7.476379   1.000000
   37       -7.028289   1.000000
   38       -6.920578   1.000000
   39       -6.757054   1.000000
   40       -6.655004   1.000000
   41       -6.587325   1.000000
   42       -6.582262   1.000000
   43       -6.457251   1.000000
   44       -6.450939   1.000000
   45       -6.365302   1.000000
   46       -6.294430   1.000000
   47       -6.245307   1.000000
   48       -6.119403   1.000000
   49       -6.004945   1.000000
   50       -6.000897   1.000000
   51       -5.989078   1.000000
   52       -5.933364   1.000000
   53       -5.824420   1.000000
   54       -5.615220   1.000000
   55       -5.575617   1.000000
   56       -5.473132   1.000000
   57       -5.466894   1.000000
   58       -5.296815   1.000000
   59       -5.295438   1.000000
   60       -5.181048   1.000000
   61       -5.151905   1.000000
   62       -5.130071   1.000000
   63       -5.117760   1.000000
   64       -5.046736   1.000000
   65       -4.786741   1.000000
   66       -4.699787   1.000000
   67       -4.561212   1.000000
   68       -4.450349   1.000000
   69       -4.439346   1.000000
   70       -4.314527   1.000000
   71       -4.301324   1.000000
   72       -4.205348   1.000000
   73       -4.034960   1.000000
   74       -4.027580   1.000000
   75       -4.025177   1.000000
   76       -4.020749   1.000000
   77       -4.020565   1.000000
   78       -3.967018   1.000000
   79       -3.901667   1.000000
   80       -3.851763   1.000000
   81       -3.800738   1.000000
   82       -3.783412   1.000000
   83       -3.687479   1.000000
   84       -3.679135   1.000000
   85       -3.633682   1.000000
   86       -3.555001   1.000000
   87       -3.514990   1.000000
   88       -3.488247   1.000000
   89       -3.450264   1.000000
   90       -3.367928   1.000000
   91       -3.350140   1.000000
   92       -3.308018   1.000000
   93       -3.160558   1.000000
   94       -3.090669   1.000000
   95       -3.045247   1.000000
   96       -2.959498   1.000000
   97       -2.951686   1.000000
   98       -2.797777   1.000000
   99       -2.652231   1.000000
  100       -2.606957   1.000000
  101       -2.479764   1.000000
  102       -2.457329   1.000000
  103       -2.432857   1.000000
  104       -2.374210   1.000000
  105       -2.220328   1.000000
  106       -2.210384   1.000000
  107       -2.182159   1.000000
  108       -2.142859   1.000000
  109       -2.073355   1.000000
  110       -1.985353   1.000000
  111       -1.885804   1.000000
  112       -1.777567   1.000000
  113       -1.750916   1.000000
  114       -1.748632   1.000000
  115       -1.699712   1.000000
  116       -1.623329   1.000000
  117       -1.585571   1.000000
  118       -1.528717   1.000000
  119       -1.518642   1.000000
  120       -1.493545   1.000000
  121       -1.367901   1.000000
  122       -1.270501   1.000000
  123       -0.943863   1.000000
  124       -0.887988   1.000000
  125       -0.828602   1.000000
  126       -0.813163   1.000000
  127       -0.584392   1.000000
  128       -0.446604   1.000000
  129       -0.338388   1.000000
  130       -0.338315   1.000000
  131       -0.228896   1.000000
  132       -0.036153   1.000000
  133       -0.031683   1.000000
  134        0.011294   1.000000
  135        0.175380   1.000000
  136        0.393276   1.000342
  137        0.402818   1.000548
  138        0.488288   1.014201
  139        0.505300   1.021415
  140        0.508974   1.023104
  141        0.536803   1.034213
  142        0.613028   0.900579
  143        0.641548   0.722078
  144        0.732686   0.063679
  145        0.761440  -0.015568
  146        0.768861  -0.025097
  147        0.845488  -0.015773
  148        0.850727  -0.013735
  149        0.985073  -0.000037
  150        1.015172  -0.000006
  151        1.105688  -0.000000
  152        1.199978  -0.000000
  153        1.223403  -0.000000
  154        1.346967  -0.000000
  155        1.381948  -0.000000
  156        1.430078  -0.000000
  157        1.457453  -0.000000
  158        1.492367  -0.000000
  159        1.517384  -0.000000
  160        1.521202  -0.000000
  161        1.557120  -0.000000
  162        1.591914  -0.000000
  163        1.613501  -0.000000
  164        1.667301  -0.000000
  165        1.765566  -0.000000
  166        1.771685  -0.000000
  167        1.873753  -0.000000
  168        1.924519  -0.000000
  169        1.935161  -0.000000
  170        1.950664  -0.000000
  171        1.966205  -0.000000
  172        1.976164  -0.000000
  173        2.072839  -0.000000
  174        2.104965  -0.000000
  175        2.119815  -0.000000
  176        2.141882  -0.000000
  177        2.211134  -0.000000
  178        2.249967  -0.000000
  179        2.256567  -0.000000
  180        2.351472  -0.000000
  181        2.488227  -0.000000
  182        2.567219  -0.000000
  183        2.639784  -0.000000
  184        2.750178  -0.000000

  0.2000000E+00  0.3742002E-15  0.1262379E-14  0.4444444E-01
    1      -13.727231   1.000000
    2      -13.026320   1.000000
    3      -12.579202   1.000000
    4      -12.155082   1.000000
    5      -11.932633   1.000000
    6      -11.581335   1.000000
    7      -11.422856   1.000000
    8      -11.183031   1.000000
    9      -11.146036   1.000000
   10      -11.132820   1.000000
   11      -11.065893   1.000000
   12      -10.929370   1.000000
   13      -10.759680   1.000000
   14      -10.642905   1.000000
   15      -10.557236   1.000000
   16      -10.545744   1.000000
   17      -10.455506   1.000000
   18      -10.419790   1.000000
   19      -10.008381   1.000000
   20       -9.943491   1.000000
   21       -9.858826   1.000000
   22       -9.400737   1.000000
   23       -9.337268   1.000000
   24       -9.290505   1.000000
   25       -9.236413   1.000000
   26       -9.057336   1.000000
   27       -8.630057   1.000000
   28       -8.392320   1.000000
   29       -8.292059   1.000000
   30       -8.157685   1.000000
   31       -7.988416   1.000000
   32       -7.922083   1.000000
   33       -7.653508   1.000000
   34       -7.534708   1.000000
   35       -7.501212   1.000000
   36       -7.382740   1.000000
   37       -7.239094   1.000000
   38       -6.999913   1.000000
   39       -6.928514   1.000000
   40       -6.714439   1.000000
   41       -6.671289   1.000000
   42       -6.592284   1.000000
   43       -6.564189   1.000000
   44       -6.435351   1.000000
   45       -6.431614   1.000000
   46       -6.232479   1.000000
   47       -6.093598   1.000000
   48       -6.026202   1.000000
   49       -6.013511   1.000000
   50       -5.922788   1.000000
   51       -5.886805   1.000000
   52       -5.817809   1.000000
   53       -5.751581   1.000000
   54       -5.673936   1.000000
   55       -5.603705   1.000000
   56       -5.410486   1.000000
   57       -5.355292   1.000000
   58       -5.349003   1.000000
   59       -5.294095   1.000000
   60       -5.200164   1.000000
   61       -5.187404   1.000000
   62       -5.128496   1.000000
   63       -5.080999   1.000000
   64       -5.033325   1.000000
   65       -4.953835   1.000000
   66       -4.618768   1.000000
   67       -4.501418   1.000000
   68       -4.478215   1.000000
   69       -4.477936   1.000000
   70       -4.391539   1.000000
   71       -4.351613   1.000000
   72       -4.168254   1.000000
   73       -4.105303   1.000000
   74       -4.104408   1.000000
   75       -4.001020   1.000000
   76       -3.987532   1.000000
   77       -3.979539   1.000000
   78       -3.875983   1.000000
   79       -3.868760   1.000000
   80       -3.842465   1.000000
   81       -3.793453   1.000000
   82       -3.770280   1.000000
   83       -3.750394   1.000000
   84       -3.741373   1.000000
   85       -3.609443   1.000000
   86       -3.584955   1.000000
   87       -3.486604   1.000000
   88       -3.454168   1.000000
   89       -3.397657   1.000000
   90       -3.369757   1.000000
   91       -3.338761   1.000000
   92       -3.260574   1.000000
   93       -3.225063   1.000000
   94       -3.133962   1.000000
   95       -3.106783   1.000000
   96       -2.984363   1.000000
   97       -2.958297   1.000000
   98       -2.836315   1.000000
   99       -2.706084   1.000000
  100       -2.603738   1.000000
  101       -2.560093   1.000000
  102       -2.518226   1.000000
  103       -2.456071   1.000000
  104       -2.188020   1.000000
  105       -2.178509   1.000000
  106       -2.170337   1.000000
  107       -2.102997   1.000000
  108       -2.090910   1.000000
  109       -2.056377   1.000000
  110       -2.039117   1.000000
  111       -1.851509   1.000000
  112       -1.806571   1.000000
  113       -1.766224   1.000000
  114       -1.724784   1.000000
  115       -1.656021   1.000000
  116       -1.614768   1.000000
  117       -1.552281   1.000000
  118       -1.535416   1.000000
  119       -1.440452   1.000000
  120       -1.355179   1.000000
  121       -1.350726   1.000000
  122       -1.233249   1.000000
  123       -1.027603   1.000000
  124       -0.961689   1.000000
  125       -0.896317   1.000000
  126       -0.849929   1.000000
  127       -0.652942   1.000000
  128       -0.381966   1.000000
  129       -0.375745   1.000000
  130       -0.358643   1.000000
  131       -0.309688   1.000000
  132       -0.296345   1.000000
  133       -0.103047   1.000000
  134       -0.003179   1.000000
  135        0.106187   1.000000
  136        0.245211   1.000000
  137        0.332084   1.000010
  138        0.489532   1.014679
  139        0.492118   1.015702
  140        0.501054   1.019500
  141        0.560652   1.031699
  142        0.693983   0.294880
  143        0.763423  -0.018484
  144        0.794567  -0.035307
  145        0.837898  -0.018982
  146        0.874374  -0.006670
  147        0.883217  -0.004898
  148        0.884610  -0.004657
  149        0.895309  -0.003110
  150        0.942688  -0.000375
  151        1.068306  -0.000000
  152        1.284317  -0.000000
  153        1.289381  -0.000000
  154        1.385247  -0.000000
  155        1.395949  -0.000000
  156        1.456679  -0.000000
  157        1.477207  -0.000000
  158        1.512138  -0.000000
  159        1.540783  -0.000000
  160        1.542659  -0.000000
  161        1.596045  -0.000000
  162        1.655273  -0.000000
  163        1.666058  -0.000000
  164        1.706900  -0.000000
  165        1.729747  -0.000000
  166        1.784761  -0.000000
  167        1.882095  -0.000000
  168        1.902057  -0.000000
  169        1.923608  -0.000000
  170        1.982085  -0.000000
  171        2.008845  -0.000000
  172        2.036819  -0.000000
  173        2.084724  -0.000000
  174        2.100190  -0.000000
  175        2.134970  -0.000000
  176        2.178635  -0.000000
  177        2.240929  -0.000000
  178        2.310372  -0.000000
  179        2.336123  -0.000000
  180        2.376399  -0.000000
  181        2.416725  -0.000000
  182        2.462232  -0.000000
  183        2.602841  -0.000000
  184        2.773654  -0.000000

  0.4000000E+00  0.3742002E-15  0.1262379E-14  0.4444444E-01
    1      -13.583444   1.000000
    2      -13.347690   1.000000
    3      -12.448860   1.000000
    4      -12.237382   1.000000
    5      -11.610610   1.000000
    6      -11.549557   1.000000
    7      -11.495809   1.000000
    8      -11.151426   1.000000
    9      -11.054026   1.000000
   10      -11.050190   1.000000
   11      -10.960092   1.000000
   12      -10.944470   1.000000
   13      -10.904939   1.000000
   14      -10.763929   1.000000
   15      -10.675584   1.000000
   16      -10.612452   1.000000
   17      -10.475753   1.000000
   18      -10.360433   1.000000
   19      -10.183762   1.000000
   20      -10.142441   1.000000
   21       -9.731480   1.000000
   22       -9.613431   1.000000
   23       -9.297361   1.000000
   24       -9.287730   1.000000
   25       -9.106095   1.000000
   26       -8.855753   1.000000
   27       -8.373780   1.000000
   28       -8.276788   1.000000
   29       -8.272049   1.000000
   30       -8.021069   1.000000
   31       -8.014281   1.000000
   32       -7.979768   1.000000
   33       -7.731920   1.000000
   34       -7.631175   1.000000
   35       -7.540956   1.000000
   36       -7.419358   1.000000
   37       -7.250483   1.000000
   38       -7.238623   1.000000
   39       -7.029052   1.000000
   40       -6.939449   1.000000
   41       -6.826043   1.000000
   42       -6.535687   1.000000
   43       -6.381303   1.000000
   44       -6.374842   1.000000
   45       -6.289933   1.000000
   46       -6.281605   1.000000
   47       -6.168139   1.000000
   48       -6.024368   1.000000
   49       -5.947921   1.000000
   50       -5.925680   1.000000
   51       -5.805072   1.000000
   52       -5.797999   1.000000
   53       -5.681531   1.000000
   54       -5.671082   1.000000
   55       -5.500001   1.000000
   56       -5.468679   1.000000
   57       -5.442911   1.000000
   58       -5.309852   1.000000
   59       -5.307774   1.000000
   60       -5.165466   1.000000
   61       -5.125971   1.000000
   62       -5.075023   1.000000
   63       -4.967679   1.000000
   64       -4.862301   1.000000
   65       -4.745041   1.000000
   66       -4.678783   1.000000
   67       -4.675900   1.000000
   68       -4.596753   1.000000
   69       -4.536867   1.000000
   70       -4.451694   1.000000
   71       -4.443937   1.000000
   72       -4.259655   1.000000
   73       -4.225748   1.000000
   74       -4.103043   1.000000
   75       -4.069597   1.000000
   76       -3.969898   1.000000
   77       -3.940050   1.000000
   78       -3.923684   1.000000
   79       -3.775971   1.000000
   80       -3.762389   1.000000
   81       -3.756556   1.000000
   82       -3.705008   1.000000
   83       -3.694237   1.000000
   84       -3.639286   1.000000
   85       -3.635421   1.000000
   86       -3.567476   1.000000
   87       -3.505913   1.000000
   88       -3.461708   1.000000
   89       -3.458893   1.000000
   90       -3.323725   1.000000
   91       -3.294811   1.000000
   92       -3.251004   1.000000
   93       -3.243843   1.000000
   94       -3.182775   1.000000
   95       -3.176999   1.000000
   96       -3.032440   1.000000
   97       -3.025882   1.000000
   98       -2.860561   1.000000
   99       -2.857047   1.000000
  100       -2.735985   1.000000
  101       -2.612788   1.000000
  102       -2.444804   1.000000
  103       -2.275351   1.000000
  104       -2.236453   1.000000
  105       -2.193017   1.000000
  106       -2.128579   1.000000
  107       -2.097286   1.000000
  108       -2.083524   1.000000
  109       -1.924678   1.000000
  110       -1.860618   1.000000
  111       -1.848505   1.000000
  112       -1.831496   1.000000
  113       -1.702455   1.000000
  114       -1.651021   1.000000
  115       -1.622799   1.000000
  116       -1.611771   1.000000
  117       -1.525786   1.000000
  118       -1.427640   1.000000
  119       -1.310373   1.000000
  120       -1.292877   1.000000
  121       -1.226287   1.000000
  122       -1.155939   1.000000
  123       -1.120774   1.000000
  124       -1.032523   1.000000
  125       -0.959391   1.000000
  126       -0.937446   1.000000
  127       -0.715901   1.000000
  128       -0.704265   1.000000
  129       -0.704229   1.000000
  130       -0.454241   1.000000
  131       -0.380698   1.000000
  132       -0.352981   1.000000
  133       -0.080101   1.000000
  134        0.022362   1.000000
  135        0.035694   1.000000
  136        0.172400   1.000000
  137        0.236581   1.000000
  138        0.423154   1.001398
  139        0.449172   1.004018
  140        0.473659   1.009298
  141        0.534309   1.033553
  142        0.658547   0.587017
  143        0.771908  -0.027983
  144        0.860130  -0.010500
  145        0.865450  -0.008920
  146        0.879499  -0.005590
  147        0.916152  -0.001308
  148        0.945961  -0.000318
  149        0.985356  -0.000036
  150        1.110862  -0.000000
  151        1.141027  -0.000000
  152        1.245989  -0.000000
  153        1.283306  -0.000000
  154        1.410193  -0.000000
  155        1.489954  -0.000000
  156        1.529948  -0.000000
  157        1.554618  -0.000000
  158        1.585442  -0.000000
  159        1.639210  -0.000000
  160        1.664549  -0.000000
  161        1.696994  -0.000000
  162        1.725545  -0.000000
  163        1.739028  -0.000000
  164        1.765809  -0.000000
  165        1.798356  -0.000000
  166        1.815350  -0.000000
  167        1.832178  -0.000000
  168        1.843233  -0.000000
  169        1.848264  -0.000000
  170        1.920874  -0.000000
  171        1.978575  -0.000000
  172        2.037704  -0.000000
  173        2.066156  -0.000000
  174        2.143083  -0.000000
  175        2.174570  -0.000000
  176        2.223524  -0.000000
  177        2.229492  -0.000000
  178        2.278033  -0.000000
  179        2.318257  -0.000000
  180        2.374094  -0.000000
  181        2.487976  -0.000000
  182        2.642414  -0.000000
  183        2.694228  -0.000000
  184        2.887546  -0.000000

  0.3742002E-15  0.1111111E+00  0.1262379E-14  0.4444444E-01
    1      -13.728511   1.000000
    2      -12.635895   1.000000
    3      -12.583309   1.000000
    4      -12.532470   1.000000
    5      -11.697533   1.000000
    6      -11.652506   1.000000
    7      -11.408550   1.000000
    8      -11.407109   1.000000
    9      -11.246677   1.000000
   10      -11.187494   1.000000
   11      -11.122650   1.000000
   12      -10.898471   1.000000
   13      -10.831813   1.000000
   14      -10.628993   1.000000
   15      -10.507080   1.000000
   16      -10.499909   1.000000
   17      -10.430644   1.000000
   18      -10.082483   1.000000
   19       -9.972080   1.000000
   20       -9.856501   1.000000
   21       -9.731497   1.000000
   22       -9.559221   1.000000
   23       -9.482985   1.000000
   24       -9.376264   1.000000
   25       -9.280073   1.000000
   26       -8.770401   1.000000
   27       -8.764660   1.000000
   28       -8.714829   1.000000
   29       -8.303059   1.000000
   30       -8.162806   1.000000
   31       -7.854679   1.000000
   32       -7.721904   1.000000
   33       -7.703427   1.000000
   34       -7.608470   1.000000
   35       -7.570989   1.000000
   36       -7.534775   1.000000
   37       -7.155818   1.000000
   38       -6.893401   1.000000
   39       -6.735516   1.000000
   40       -6.719440   1.000000
   41       -6.524821   1.000000
   42       -6.517082   1.000000
   43       -6.459546   1.000000
   44       -6.454266   1.000000
   45       -6.368875   1.000000
   46       -6.283151   1.000000
   47       -6.232634   1.000000
   48       -6.140765   1.000000
   49       -6.010124   1.000000
   50       -5.987427   1.000000
   51       -5.971055   1.000000
   52       -5.903601   1.000000
   53       -5.849212   1.000000
   54       -5.659344   1.000000
   55       -5.521351   1.000000
   56       -5.463794   1.000000
   57       -5.370917   1.000000
   58       -5.331125   1.000000
   59       -5.308098   1.000000
   60       -5.125491   1.000000
   61       -5.117373   1.000000
   62       -5.090584   1.000000
   63       -5.083030   1.000000
   64       -5.030365   1.000000
   65       -4.792658   1.000000
   66       -4.626147   1.000000
   67       -4.612764   1.000000
   68       -4.495746   1.000000
   69       -4.375682   1.000000
   70       -4.323559   1.000000
   71       -4.315572   1.000000
   72       -4.204066   1.000000
   73       -4.073524   1.000000
   74       -4.070327   1.000000
   75       -4.038654   1.000000
   76       -4.018743   1.000000
   77       -4.011220   1.000000
   78       -3.966272   1.000000
   79       -3.945907   1.000000
   80       -3.901826   1.000000
   81       -3.846080   1.000000
   82       -3.757340   1.000000
   83       -3.751467   1.000000
   84       -3.738036   1.000000
   85       -3.735200   1.000000
   86       -3.644526   1.000000
   87       -3.507866   1.000000
   88       -3.492475   1.000000
   89       -3.379469   1.000000
   90       -3.350395   1.000000
   91       -3.349360   1.000000
   92       -3.318708   1.000000
   93       -3.232948   1.000000
   94       -3.106245   1.000000
   95       -3.026750   1.000000
   96       -2.943481   1.000000
   97       -2.758732   1.000000
   98       -2.748707   1.000000
   99       -2.706076   1.000000
  100       -2.657040   1.000000
  101       -2.484801   1.000000
  102       -2.424577   1.000000
  103       -2.379740   1.000000
  104       -2.367849   1.000000
  105       -2.314766   1.000000
  106       -2.256245   1.000000
  107       -2.203104   1.000000
  108       -2.051592   1.000000
  109       -2.045412   1.000000
  110       -1.985911   1.000000
  111       -1.943840   1.000000
  112       -1.913536   1.000000
  113       -1.771571   1.000000
  114       -1.761860   1.000000
  115       -1.712861   1.000000
  116       -1.686872   1.000000
  117       -1.541103   1.000000
  118       -1.513682   1.000000
  119       -1.448027   1.000000
  120       -1.433266   1.000000
  121       -1.347841   1.000000
  122       -1.331696   1.000000
  123       -1.002199   1.000000
  124       -0.912636   1.000000
  125       -0.899465   1.000000
  126       -0.665191   1.000000
  127       -0.629603   1.000000
  128       -0.530020   1.000000
  129       -0.448525   1.000000
  130       -0.356671   1.000000
  131       -0.152840   1.000000
  132       -0.121227   1.000000
  133       -0.052493   1.000000
  134        0.073200   1.000000
  135        0.174155   1.000000
  136        0.390969   1.000304
  137        0.406982   1.000669
  138        0.436692   1.002471
  139        0.471127   1.008588
  140        0.497953   1.018141
  141        0.507788   1.022557
  142        0.510333   1.023734
  143        0.580061   1.009316
  144        0.735936   0.050867
  145        0.761992  -0.016408
  146        0.781633  -0.033798
  147        0.901980  -0.002383
  148        0.944729  -0.000338
  149        0.971114  -0.000082
  150        1.127038  -0.000000
  151        1.167222  -0.000000
  152        1.228961  -0.000000
  153        1.263374  -0.000000
  154        1.315491  -0.000000
  155        1.405600  -0.000000
  156        1.423545  -0.000000
  157        1.454253  -0.000000
  158        1.475032  -0.000000
  159        1.522448  -0.000000
  160        1.610833  -0.000000
  161        1.624225  -0.000000
  162        1.636653  -0.000000
  163        1.667180  -0.000000
  164        1.679693  -0.000000
  165        1.765309  -0.000000
  166        1.766932  -0.000000
  167        1.794961  -0.000000
  168        1.888706  -0.000000
  169        1.908419  -0.000000
  170        1.918880  -0.000000
  171        1.988496  -0.000000
  172        2.005298  -0.000000
  173        2.011262  -0.000000
  174        2.044904  -0.000000
  175        2.103946  -0.000000
  176        2.125890  -0.000000
  177        2.148918  -0.000000
  178        2.197085  -0.000000
  179        2.204527  -0.000000
  180        2.319901  -0.000000
  181        2.347183  -0.000000
  182        2.432484  -0.000000
  183        2.541764  -0.000000
  184        2.657437  -0.000000

  0.2000000E+00  0.1111111E+00  0.1262379E-14  0.8888889E-01
    1      -13.680585   1.000000
    2      -12.985509   1.000000
    3      -12.539820   1.000000
    4      -12.122917   1.000000
    5      -11.899025   1.000000
    6      -11.683306   1.000000
    7      -11.478527   1.000000
    8      -11.161508   1.000000
    9      -11.151720   1.000000
   10      -11.135916   1.000000
   11      -11.100870   1.000000
   12      -10.949685   1.000000
   13      -10.760400   1.000000
   14      -10.649351   1.000000
   15      -10.566172   1.000000
   16      -10.521123   1.000000
   17      -10.477995   1.000000
   18      -10.394756   1.000000
   19       -9.999331   1.000000
   20       -9.936200   1.000000
   21       -9.844258   1.000000
   22       -9.395879   1.000000
   23       -9.357569   1.000000
   24       -9.249590   1.000000
   25       -9.231656   1.000000
   26       -9.064967   1.000000
   27       -8.658116   1.000000
   28       -8.383814   1.000000
   29       -8.284496   1.000000
   30       -8.161594   1.000000
   31       -7.996735   1.000000
   32       -7.786220   1.000000
   33       -7.716699   1.000000
   34       -7.586551   1.000000
   35       -7.498289   1.000000
   36       -7.356183   1.000000
   37       -7.315261   1.000000
   38       -6.957413   1.000000
   39       -6.917931   1.000000
   40       -6.753946   1.000000
   41       -6.652420   1.000000
   42       -6.584193   1.000000
   43       -6.518930   1.000000
   44       -6.444935   1.000000
   45       -6.412916   1.000000
   46       -6.309053   1.000000
   47       -6.138869   1.000000
   48       -6.118296   1.000000
   49       -6.010499   1.000000
   50       -5.890080   1.000000
   51       -5.872241   1.000000
   52       -5.755733   1.000000
   53       -5.700174   1.000000
   54       -5.670441   1.000000
   55       -5.594993   1.000000
   56       -5.384082   1.000000
   57       -5.345587   1.000000
   58       -5.338547   1.000000
   59       -5.299344   1.000000
   60       -5.154813   1.000000
   61       -5.134606   1.000000
   62       -5.087308   1.000000
   63       -5.073350   1.000000
   64       -4.986926   1.000000
   65       -4.935545   1.000000
   66       -4.578410   1.000000
   67       -4.563191   1.000000
   68       -4.462750   1.000000
   69       -4.403086   1.000000
   70       -4.391686   1.000000
   71       -4.352918   1.000000
   72       -4.181845   1.000000
   73       -4.120844   1.000000
   74       -4.092033   1.000000
   75       -4.025704   1.000000
   76       -4.009845   1.000000
   77       -3.988397   1.000000
   78       -3.983726   1.000000
   79       -3.907489   1.000000
   80       -3.883091   1.000000
   81       -3.857949   1.000000
   82       -3.783545   1.000000
   83       -3.769059   1.000000
   84       -3.754883   1.000000
   85       -3.650936   1.000000
   86       -3.597494   1.000000
   87       -3.541902   1.000000
   88       -3.522402   1.000000
   89       -3.389624   1.000000
   90       -3.349191   1.000000
   91       -3.325649   1.000000
   92       -3.270893   1.000000
   93       -3.168229   1.000000
   94       -3.150919   1.000000
   95       -3.090564   1.000000
   96       -2.947706   1.000000
   97       -2.873927   1.000000
   98       -2.834074   1.000000
   99       -2.697006   1.000000
  100       -2.636232   1.000000
  101       -2.596048   1.000000
  102       -2.512945   1.000000
  103       -2.377708   1.000000
  104       -2.301595   1.000000
  105       -2.228817   1.000000
  106       -2.172845   1.000000
  107       -2.094484   1.000000
  108       -2.093762   1.000000
  109       -2.055266   1.000000
  110       -2.017371   1.000000
  111       -1.892747   1.000000
  112       -1.797700   1.000000
  113       -1.731945   1.000000
  114       -1.725549   1.000000
  115       -1.713076   1.000000
  116       -1.662723   1.000000
  117       -1.572897   1.000000
  118       -1.546140   1.000000
  119       -1.485202   1.000000
  120       -1.362252   1.000000
  121       -1.321367   1.000000
  122       -1.274925   1.000000
  123       -1.086383   1.000000
  124       -1.012567   1.000000
  125       -0.889740   1.000000
  126       -0.784855   1.000000
  127       -0.679927   1.000000
  128       -0.635170   1.000000
  129       -0.359152   1.000000
  130       -0.274975   1.000000
  131       -0.214509   1.000000
  132       -0.165540   1.000000
  133       -0.081510   1.000000
  134        0.096814   1.000000
  135        0.172032   1.000000
  136        0.217309   1.000000
  137        0.265141   1.000000
  138        0.348412   1.000028
  139        0.432780   1.002106
  140        0.551812   1.034975
  141        0.575157   1.017341
  142        0.643703   0.705839
  143        0.673383   0.462018
  144        0.677036   0.431318
  145        0.736984   0.046960
  146        0.802200  -0.033903
  147        0.826730  -0.024066
  148        1.018851  -0.000004
  149        1.059272  -0.000000
  150        1.105305  -0.000000
  151        1.158532  -0.000000
  152        1.233245  -0.000000
  153        1.272066  -0.000000
  154        1.401452  -0.000000
  155        1.425085  -0.000000
  156        1.494339  -0.000000
  157        1.519399  -0.000000