 running on   72 total cores
 distrk:  each k-point on   72 cores,    1 groups
 distr:  one band on    9 cores,    8 groups
 using from now: INCAR     
 vasp.5.4.4.18Apr17-6-g9f103f2a35 (build Dec  7 2020 12:43:57) complex           
 POSCAR found type information on POSCAR  Mo V  B  H 
 POSCAR found :  4 types and      76 ions
 scaLAPACK will be used
 LDA part: xc-table for Pade appr. of Perdew
 POSCAR, INCAR and KPOINTS ok, starting setup
 resort distribution
 resort distribution
 resort distribution
 resort distribution
 resort distribution
 resort distribution
 resort distribution
 resort distribution
 resort distribution
 resort distribution
 resort distribution
 resort distribution
 resort distribution
 resort distribution
 resort distribution
 resort distribution
 resort distribution
 resort distribution
 resort distribution
 resort distribution
 resort distribution
 resort distribution
 resort distribution
 resort distribution
 resort distribution
 resort distribution
 resort distribution
 resort distribution
 resort distribution
 resort distribution
 resort distribution
 resort distribution
 resort distribution
 resort distribution
 resort distribution
 resort distribution
 resort distribution
 resort distribution
 resort distribution
 resort distribution
 resort distribution
 resort distribution
 resort distribution
 resort distribution
 resort distribution
 resort distribution
 resort distribution
 resort distribution
 resort distribution
 resort distribution
 resort distribution
 resort distribution
 resort distribution
 resort distribution
 resort distribution
 resort distribution
 resort distribution
 resort distribution
 resort distribution
 resort distribution
 resort distribution
 resort distribution
 resort distribution
 resort distribution
 resort distribution
 resort distribution
 resort distribution
 resort distribution
 resort distribution
 resort distribution
 resort distribution
 resort distribution
 FFT: planning ...
 WAVECAR not read
 augmentation electrons   286.06518441056153     
 soft         electrons   0.0000000000000000     
 augmentation electrons   286.06518441056153     
 soft         electrons   0.0000000000000000     
 augmentation electrons   286.06518441056153     
 soft         electrons   0.0000000000000000     
 augmentation electrons   286.06518441056153     
 soft         electrons   0.0000000000000000     
 augmentation electrons   286.06518441056153     
 soft         electrons   0.0000000000000000     
 augmentation electrons   286.06518441056153     
 soft         electrons   0.0000000000000000     
 augmentation electrons   286.06518441056153     
 soft         electrons   0.0000000000000000     
 augmentation electrons   286.06518441056153     
 soft         electrons   0.0000000000000000     
 augmentation electrons   286.06518441056153     
 soft         electrons   0.0000000000000000     
 augmentation electrons   286.06518441056153     
 soft         electrons   0.0000000000000000     
 augmentation electrons   286.06518441056153     
 soft         electrons   0.0000000000000000     
 augmentation electrons   286.06518441056153     
 soft         electrons   0.0000000000000000     
 augmentation electrons   286.06518441056153     
 soft         electrons   0.0000000000000000     
 augmentation electrons   286.06518441056153     
 soft         electrons   0.0000000000000000     
 augmentation electrons   286.06518441056153     
 soft         electrons   0.0000000000000000     
 augmentation electrons   286.06518441056153     
 soft         electrons   0.0000000000000000     
 augmentation electrons   286.06518441056153     
 soft         electrons   0.0000000000000000     
 augmentation electrons   286.06518441056153     
 soft         electrons   0.0000000000000000     
 augmentation electrons   286.06518441056153     
 soft         electrons   0.0000000000000000     
 augmentation electrons   286.06518441056153     
 soft         electrons   0.0000000000000000     
 augmentation electrons   286.06518441056153     
 soft         electrons   0.0000000000000000     
 augmentation electrons   286.06518441056153     
 soft         electrons   0.0000000000000000     
 augmentation electrons   286.06518441056153     
 soft         electrons   0.0000000000000000     
 augmentation electrons   286.06518441056153     
 soft         electrons   0.0000000000000000     
 augmentation electrons   286.06518441056153     
 soft         electrons   0.0000000000000000     
 augmentation electrons   286.06518441056153     
 soft         electrons   0.0000000000000000     
 augmentation electrons   286.06518441056153     
 soft         electrons   0.0000000000000000     
 augmentation electrons   286.06518441056153     
 soft         electrons   0.0000000000000000     
 augmentation electrons   286.06518441056153     
 soft         electrons   0.0000000000000000     
 augmentation electrons   286.06518441056153     
 soft         electrons   0.0000000000000000     
 augmentation electrons   286.06518441056153     
 soft         electrons   0.0000000000000000     
 augmentation electrons   286.06518441056153     
 soft         electrons   0.0000000000000000     
 augmentation electrons   286.06518441056153     
 soft         electrons   0.0000000000000000     
 augmentation electrons   286.06518441056153     
 soft         electrons   0.0000000000000000     
 augmentation electrons   286.06518441056153     
 soft         electrons   0.0000000000000000     
 augmentation electrons   286.06518441056153     
 soft         electrons   0.0000000000000000     
 augmentation electrons   286.06518441056153     
 soft         electrons   0.0000000000000000     
 augmentation electrons   286.06518441056153     
 soft         electrons   0.0000000000000000     
 augmentation electrons   286.06518441056153     
 soft         electrons   0.0000000000000000     
 augmentation electrons   286.06518441056153     
 soft         electrons   0.0000000000000000     
 augmentation electrons   286.06518441056153     
 soft         electrons   0.0000000000000000     
 augmentation electrons   286.06518441056153     
 soft         electrons   0.0000000000000000     
 augmentation electrons   286.06518441056153     
 soft         electrons   0.0000000000000000     
 augmentation electrons   286.06518441056153     
 soft         electrons   0.0000000000000000     
 augmentation electrons   286.06518441056153     
 soft         electrons   0.0000000000000000     
 augmentation electrons   286.06518441056153     
 soft         electrons   0.0000000000000000     
 augmentation electrons   286.06518441056153     
 soft         electrons   0.0000000000000000     
 augmentation electrons   286.06518441056153     
 soft         electrons   0.0000000000000000     
 augmentation electrons   286.06518441056153     
 soft         electrons   0.0000000000000000     
 augmentation electrons   286.06518441056153     
 soft         electrons   0.0000000000000000     
 augmentation electrons   286.06518441056153     
 soft         electrons   0.0000000000000000     
 augmentation electrons   286.06518441056153     
 soft         electrons   0.0000000000000000     
 augmentation electrons   286.06518441056153     
 soft         electrons   0.0000000000000000     
 augmentation electrons   286.06518441056153     
 soft         electrons   0.0000000000000000     
 augmentation electrons   286.06518441056153     
 soft         electrons   0.0000000000000000     
 augmentation electrons   286.06518441056153     
 soft         electrons   0.0000000000000000     
 augmentation electrons   286.06518441056153     
 soft         electrons   0.0000000000000000     
 augmentation electrons   286.06518441056153     
 soft         electrons   0.0000000000000000     
 augmentation electrons   286.06518441056153     
 soft         electrons   0.0000000000000000     
 augmentation electrons   286.06518441056153     
 soft         electrons   0.0000000000000000     
 augmentation electrons   286.06518441056153     
 soft         electrons   0.0000000000000000     
 augmentation electrons   286.06518441056153     
 soft         electrons   0.0000000000000000     
 augmentation electrons   286.06518441056153     
 soft         electrons   0.0000000000000000     
 augmentation electrons   286.06518441056153     
 soft         electrons   0.0000000000000000     
 augmentation electrons   286.06518441056153     
 soft         electrons   0.0000000000000000     
 augmentation electrons   286.06518441056153     
 soft         electrons   0.0000000000000000     
 augmentation electrons   286.06518441056153     
 soft         electrons   0.0000000000000000     
 augmentation electrons   286.06518441056153     
 soft         electrons   0.0000000000000000     
 augmentation electrons   286.06518441056153     
 soft         electrons   0.0000000000000000     
 augmentation electrons   286.06518441056153     
 soft         electrons   0.0000000000000000     
 augmentation electrons   286.06518441056153     
 soft         electrons   0.0000000000000000     
 total        electrons   286.06518441056153     
 total        electrons   286.06518441056153     
 total        electrons   286.06518441056153     
 total        electrons   286.06518441056153     
 total        electrons   286.06518441056153     
 total        electrons   286.06518441056153     
 total        electrons   286.06518441056153     
 total        electrons   286.06518441056153     
 total        electrons   286.06518441056153     
 total        electrons   286.06518441056153     
 total        electrons   286.06518441056153     
 total        electrons   286.06518441056153     
 total        electrons   286.06518441056153     
 total        electrons   286.06518441056153     
 total        electrons   286.06518441056153     
 total        electrons   286.06518441056153     
 total        electrons   286.06518441056153     
 total        electrons   286.06518441056153     
 total        electrons   286.06518441056153     
 total        electrons   286.06518441056153     
 total        electrons   286.06518441056153     
 total        electrons   286.06518441056153     
 total        electrons   286.06518441056153     
 total        electrons   286.06518441056153     
 total        electrons   286.06518441056153     
 total        electrons   286.06518441056153     
 total        electrons   286.06518441056153     
 total        electrons   286.06518441056153     
 total        electrons   286.06518441056153     
 total        electrons   286.06518441056153     
 total        electrons   286.06518441056153     
 total        electrons   286.06518441056153     
 total        electrons   286.06518441056153     
 total        electrons   286.06518441056153     
 total        electrons   286.06518441056153     
 total        electrons   286.06518441056153     
 total        electrons   286.06518441056153     
 augmentation electrons   286.06518441056153     
 soft         electrons   0.0000000000000000     
 total        electrons   286.06518441056153     
 total        electrons   286.06518441056153     
 total        electrons   286.06518441056153     
 total        electrons   286.06518441056153     
 total        electrons   286.06518441056153     
 total        electrons   286.06518441056153     
 total        electrons   286.06518441056153     
 total        electrons   286.06518441056153     
 total        electrons   286.06518441056153     
 total        electrons   286.06518441056153     
 total        electrons   286.06518441056153     
 total        electrons   286.06518441056153     
 total        electrons   286.06518441056153     
 total        electrons   286.06518441056153     
 total        electrons   286.06518441056153     
 total        electrons   286.06518441056153     
 total        electrons   286.06518441056153     
 total        electrons   286.06518441056153     
 total        electrons   286.06518441056153     
 total        electrons   286.06518441056153     
 total        electrons   286.06518441056153     
 total        electrons   286.06518441056153     
 total        electrons   286.06518441056153     
 total        electrons   286.06518441056153     
 total        electrons   286.06518441056153     
 total        electrons   286.06518441056153     
 total        electrons   286.06518441056153     
 total        electrons   286.06518441056153     
 total        electrons   286.06518441056153     
 total        electrons   286.06518441056153     
 total        electrons   286.06518441056153     
 total        electrons   286.06518441056153     
 total        electrons   286.06518441056153     
 total        electrons   286.06518441056153     
 total        electrons   286.06518441056153     
 augmentation electrons   1284.9953543078657     
 soft         electrons   0.0000000000000000     
 augmentation electrons   1284.9953543078657     
 soft         electrons   0.0000000000000000     
 augmentation electrons   1284.9953543078657     
 soft         electrons   0.0000000000000000     
 augmentation electrons   1284.9953543078657     
 soft         electrons   0.0000000000000000     
 augmentation electrons   1284.9953543078657     
 soft         electrons   0.0000000000000000     
 augmentation electrons   1284.9953543078657     
 soft         electrons   0.0000000000000000     
 augmentation electrons   1284.9953543078657     
 soft         electrons   0.0000000000000000     
 augmentation electrons   1284.9953543078657     
 soft         electrons   0.0000000000000000     
 augmentation electrons   1284.9953543078657     
 soft         electrons   0.0000000000000000     
 augmentation electrons   1284.9953543078657     
 soft         electrons   0.0000000000000000     
 augmentation electrons   1284.9953543078657     
 soft         electrons   0.0000000000000000     
 augmentation electrons   1284.9953543078657     
 soft         electrons   0.0000000000000000     
 augmentation electrons   1284.9953543078657     
 soft         electrons   0.0000000000000000     
 augmentation electrons   1284.9953543078657     
 soft         electrons   0.0000000000000000     
 augmentation electrons   1284.9953543078657     
 soft         electrons   0.0000000000000000     
 augmentation electrons   1284.9953543078657     
 soft         electrons   0.0000000000000000     
 augmentation electrons   1284.9953543078657     
 soft         electrons   0.0000000000000000     
 augmentation electrons   1284.9953543078657     
 soft         electrons   0.0000000000000000     
 augmentation electrons   1284.9953543078657     
 soft         electrons   0.0000000000000000     
 augmentation electrons   1284.9953543078657     
 soft         electrons   0.0000000000000000     
 augmentation electrons   1284.9953543078657     
 soft         electrons   0.0000000000000000     
 augmentation electrons   1284.9953543078657     
 soft         electrons   0.0000000000000000     
 augmentation electrons   1284.9953543078657     
 soft         electrons   0.0000000000000000     
 augmentation electrons   1284.9953543078657     
 soft         electrons   0.0000000000000000     
 augmentation electrons   1284.9953543078657     
 soft         electrons   0.0000000000000000     
 augmentation electrons   1284.9953543078657     
 soft         electrons   0.0000000000000000     
 augmentation electrons   1284.9953543078657     
 soft         electrons   0.0000000000000000     
 augmentation electrons   1284.9953543078657     
 soft         electrons   0.0000000000000000     
 augmentation electrons   1284.9953543078657     
 soft         electrons   0.0000000000000000     
 augmentation electrons   1284.9953543078657     
 soft         electrons   0.0000000000000000     
 augmentation electrons   1284.9953543078657     
 soft         electrons   0.0000000000000000     
 augmentation electrons   1284.9953543078657     
 soft         electrons   0.0000000000000000     
 augmentation electrons   1284.9953543078657     
 soft         electrons   0.0000000000000000     
 augmentation electrons   1284.9953543078657     
 soft         electrons   0.0000000000000000     
 augmentation electrons   1284.9953543078657     
 soft         electrons   0.0000000000000000     
 augmentation electrons   1284.9953543078657     
 soft         electrons   0.0000000000000000     
 augmentation electrons   1284.9953543078657     
 soft         electrons   0.0000000000000000     
 augmentation electrons   1284.9953543078657     
 soft         electrons   0.0000000000000000     
 augmentation electrons   1284.9953543078657     
 soft         electrons   0.0000000000000000     
 augmentation electrons   1284.9953543078657     
 soft         electrons   0.0000000000000000     
 augmentation electrons   1284.9953543078657     
 soft         electrons   0.0000000000000000     
 augmentation electrons   1284.9953543078657     
 soft         electrons   0.0000000000000000     
 augmentation electrons   1284.9953543078657     
 soft         electrons   0.0000000000000000     
 augmentation electrons   1284.9953543078657     
 soft         electrons   0.0000000000000000     
 augmentation electrons   1284.9953543078657     
 soft         electrons   0.0000000000000000     
 augmentation electrons   1284.9953543078657     
 soft         electrons   0.0000000000000000     
 augmentation electrons   1284.9953543078657     
 soft         electrons   0.0000000000000000     
 augmentation electrons   1284.9953543078657     
 soft         electrons   0.0000000000000000     
 augmentation electrons   1284.9953543078657     
 soft         electrons   0.0000000000000000     
 augmentation electrons   1284.9953543078657     
 soft         electrons   0.0000000000000000     
 augmentation electrons   1284.9953543078657     
 soft         electrons   0.0000000000000000     
 augmentation electrons   1284.9953543078657     
 soft         electrons   0.0000000000000000     
 augmentation electrons   1284.9953543078657     
 soft         electrons   0.0000000000000000     
 augmentation electrons   1284.9953543078657     
 soft         electrons   0.0000000000000000     
 augmentation electrons   1284.9953543078657     
 soft         electrons   0.0000000000000000     
 augmentation electrons   1284.9953543078657     
 augmentation electrons   1284.9953543078657     
 soft         electrons   0.0000000000000000     
 augmentation electrons   1284.9953543078657     
 soft         electrons   0.0000000000000000     
 augmentation electrons   1284.9953543078657     
 soft         electrons   0.0000000000000000     
 augmentation electrons   1284.9953543078657     
 soft         electrons   0.0000000000000000     
 augmentation electrons   1284.9953543078657     
 soft         electrons   0.0000000000000000     
 augmentation electrons   1284.9953543078657     
 soft         electrons   0.0000000000000000     
 augmentation electrons   1284.9953543078657     
 soft         electrons   0.0000000000000000     
 augmentation electrons   1284.9953543078657     
 soft         electrons   0.0000000000000000     
 augmentation electrons   1284.9953543078657     
 soft         electrons   0.0000000000000000     
 augmentation electrons   1284.9953543078657     
 soft         electrons   0.0000000000000000     
 augmentation electrons   1284.9953543078657     
 soft         electrons   0.0000000000000000     
 augmentation electrons   1284.9953543078657     
 soft         electrons   0.0000000000000000     
 augmentation electrons   1284.9953543078657     
 soft         electrons   0.0000000000000000     
 augmentation electrons   1284.9953543078657     
 soft         electrons   0.0000000000000000     
 augmentation electrons   1284.9953543078657     
 soft         electrons   0.0000000000000000     
 augmentation electrons   1284.9953543078657     
 soft         electrons   0.0000000000000000     
 soft         electrons   0.0000000000000000     
 total        electrons   1284.9953543078657     
 total        electrons   1284.9953543078657     
 total        electrons   1284.9953543078657     
 total        electrons   1284.9953543078657     
 total        electrons   1284.9953543078657     
 total        electrons   1284.9953543078657     
 total        electrons   1284.9953543078657     
 total        electrons   1284.9953543078657     
 total        electrons   1284.9953543078657     
 total        electrons   1284.9953543078657     
 total        electrons   1284.9953543078657     
 total        electrons   1284.9953543078657     
 total        electrons   1284.9953543078657     
 total        electrons   1284.9953543078657     
 total        electrons   1284.9953543078657     
 total        electrons   1284.9953543078657     
 total        electrons   1284.9953543078657     
 total        electrons   1284.9953543078657     
 total        electrons   1284.9953543078657     
 total        electrons   1284.9953543078657     
 total        electrons   1284.9953543078657     
 total        electrons   1284.9953543078657     
 total        electrons   1284.9953543078657     
 total        electrons   1284.9953543078657     
 total        electrons   1284.9953543078657     
 total        electrons   1284.9953543078657     
 total        electrons   1284.9953543078657     
 total        electrons   1284.9953543078657     
 total        electrons   1284.9953543078657     
 total        electrons   1284.9953543078657     
 total        electrons   1284.9953543078657     
 total        electrons   1284.9953543078657     
 total        electrons   1284.9953543078657     
 total        electrons   1284.9953543078657     
 total        electrons   1284.9953543078657     
 total        electrons   1284.9953543078657     
 total        electrons   1284.9953543078657     
 total        electrons   1284.9953543078657     
 total        electrons   1284.9953543078657     
 total        electrons   1284.9953543078657     
 total        electrons   1284.9953543078657     
 total        electrons   1284.9953543078657     
 total        electrons   1284.9953543078657     
 total        electrons   1284.9953543078657     
 total        electrons   1284.9953543078657     
 total        electrons   1284.9953543078657     
 total        electrons   1284.9953543078657     
 total        electrons   1284.9953543078657     
 total        electrons   1284.9953543078657     
 total        electrons   1284.9953543078657     
 total        electrons   1284.9953543078657     
 total        electrons   1284.9953543078657     
 total        electrons   1284.9953543078657     
 total        electrons   1284.9953543078657     
 total        electrons   1284.9953543078657     
 total        electrons   1284.9953543078657     
 total        electrons   1284.9953543078657     
 total        electrons   1284.9953543078657     
 total        electrons   1284.9953543078657     
 total        electrons   1284.9953543078657     
 total        electrons   1284.9953543078657     
 total        electrons   1284.9953543078657     
 total        electrons   1284.9953543078657     
 total        electrons   1284.9953543078657     
 total        electrons   1284.9953543078657     
 total        electrons   1284.9953543078657     
 total        electrons   1284.9953543078657     
 total        electrons   1284.9953543078657     
 total        electrons   1284.9953543078657     
 total        electrons   1284.9953543078657     
 total        electrons   1284.9953543078657     
 total        electrons   1284.9953543078657     
 entering main loop
       N       E                     dE             d eps       ncg     rms          rms(c)
DAV:   1     0.248835057096E+04    0.24884E+04   -0.10449E+05  5520   0.128E+03
DAV:   2    -0.216161327987E+03   -0.27045E+04   -0.25149E+04  6328   0.317E+02
DAV:   3    -0.660580745778E+03   -0.44442E+03   -0.42156E+03  7768   0.148E+02
DAV:   4    -0.698786063547E+03   -0.38205E+02   -0.36452E+02  8968   0.472E+01
DAV:   5    -0.701301369966E+03   -0.25153E+01   -0.24190E+01  9392   0.114E+01    0.147E+02
RMM:   6    -0.650579013791E+03    0.50722E+02   -0.11514E+03  7564   0.881E+01    0.711E+01
RMM:   7    -0.752211922650E+03   -0.10163E+03   -0.39044E+02  7667   0.426E+01    0.554E+01
RMM:   8    -0.646620824344E+03    0.10559E+03   -0.17068E+02  7352   0.255E+01    0.394E+01
RMM:   9    -0.611852156537E+03    0.34769E+02   -0.42986E+01  6973   0.169E+01    0.275E+01
RMM:  10    -0.599808534651E+03    0.12044E+02   -0.33274E+01  6416   0.153E+01    0.203E+01
RMM:  11    -0.597929710856E+03    0.18788E+01   -0.74952E+00  6324   0.783E+00    0.163E+01
RMM:  12    -0.597948692175E+03   -0.18981E-01   -0.29921E+00  7411   0.244E+00    0.146E+01
RMM:  13    -0.597710643184E+03    0.23805E+00   -0.72003E-01  6334   0.209E+00    0.131E+01
RMM:  14    -0.597682446853E+03    0.28196E-01   -0.31127E+00  6301   0.507E+00    0.953E+00
RMM:  15    -0.596854067585E+03    0.82838E+00   -0.20164E+00  5810   0.480E+00    0.417E+00
RMM:  16    -0.596750959945E+03    0.10311E+00   -0.12726E+00  7371   0.203E+00    0.294E+00
RMM:  17    -0.596696270648E+03    0.54689E-01   -0.60528E-01  7279   0.157E+00    0.219E+00
RMM:  18    -0.596687100988E+03    0.91697E-02   -0.33372E-01  7516   0.102E+00    0.143E+00
RMM:  19    -0.596675720414E+03    0.11381E-01   -0.12746E-01  6248   0.851E-01    0.113E+00
RMM:  20    -0.596664412204E+03    0.11308E-01   -0.42743E-02  6621   0.514E-01    0.664E-01
RMM:  21    -0.596659919760E+03    0.44924E-02   -0.22941E-02  5912   0.450E-01    0.442E-01
RMM:  22    -0.596659653418E+03    0.26634E-03   -0.18971E-02  7133   0.290E-01    0.288E-01
RMM:  23    -0.596660447257E+03   -0.79384E-03   -0.78021E-03  6327   0.199E-01    0.183E-01
RMM:  24    -0.596661240479E+03   -0.79322E-03   -0.32576E-03  6940   0.110E-01    0.180E-01
RMM:  25    -0.596661730227E+03   -0.48975E-03   -0.11136E-03  6267   0.836E-02    0.727E-02
RMM:  26    -0.596662794143E+03   -0.10639E-02   -0.93246E-04  7089   0.373E-02    0.579E-02
RMM:  27    -0.596663973821E+03   -0.11797E-02   -0.80565E-04  6809   0.606E-02    0.834E-02
RMM:  28    -0.596664385647E+03   -0.41183E-03   -0.25064E-04  6389   0.347E-02    0.407E-02
RMM:  29    -0.596664617553E+03   -0.23191E-03   -0.21187E-04  7126   0.243E-02    0.353E-02
RMM:  30    -0.596664822677E+03   -0.20512E-03   -0.21384E-04  5588   0.460E-02    0.550E-02
RMM:  31    -0.596664900346E+03   -0.77669E-04   -0.13728E-04  5670   0.426E-02    0.324E-02
RMM:  32    -0.596665074746E+03   -0.17440E-03   -0.94969E-05  5570   0.291E-02    0.292E-02
RMM:  33    -0.596665242775E+03   -0.16803E-03   -0.36285E-05  5209   0.964E-03    0.163E-02
RMM:  34    -0.596665411042E+03   -0.16827E-03   -0.18201E-05  4772   0.586E-03    0.160E-02
RMM:  35    -0.596665472104E+03   -0.61062E-04   -0.10001E-05  4348   0.917E-03    0.426E-03
RMM:  36    -0.596665513010E+03   -0.40906E-04   -0.47096E-06  3995   0.602E-03    0.123E-02
RMM:  37    -0.596665568889E+03   -0.55879E-04   -0.11621E-05  4466   0.795E-03    0.262E-03
RMM:  38    -0.596665576173E+03   -0.72834E-05   -0.19361E-06  3675   0.311E-03    0.192E-03
RMM:  39    -0.596665581231E+03   -0.50587E-05   -0.83691E-07  3321   0.254E-03    0.164E-03
RMM:  40    -0.596665585174E+03   -0.39423E-05   -0.51135E-07  3251   0.230E-03    0.171E-03
RMM:  41    -0.596665586868E+03   -0.16942E-05   -0.32989E-07  2734   0.147E-03    0.578E-04
RMM:  42    -0.596665588021E+03   -0.11531E-05   -0.26009E-07  2766   0.147E-03    0.998E-04
RMM:  43    -0.596665589106E+03   -0.10848E-05   -0.24186E-07  2698   0.114E-03    0.404E-04
RMM:  44    -0.596665589386E+03   -0.28006E-06   -0.13845E-07  2427   0.109E-03
   1 F= -.59666559E+03 E0= -.59666617E+03  d E =-.596666E+03
 curvature:   0.00 expect dE= 0.000E+00 dE for cont linesearch  0.000E+00
 trial: gam= 0.00000 g(F)=  0.244E-04 g(S)=  0.000E+00 ort = 0.000E+00 (trialstep = 0.100E+01)
 search vector abs. value=  0.244E-04
 reached required accuracy - stopping structural energy minimisation
 augmentation electrons   31.608265249259432     
 soft         electrons   254.51932166456427     
 augmentation electrons   31.608265249259432     
 soft         electrons   254.51932166456427     
 augmentation electrons   31.608265249259432     
 soft         electrons   254.51932166456427     
 augmentation electrons   31.608265249259432     
 soft         electrons   254.51932166456427     
 augmentation electrons   31.608265249259432     
 soft         electrons   254.51932166456427     
 augmentation electrons   31.608265249259432     
 soft         electrons   254.51932166456427     
 augmentation electrons   31.608265249259432     
 soft         electrons   254.51932166456427     
 augmentation electrons   31.608265249259432     
 soft         electrons   254.51932166456427     
 augmentation electrons   31.608265249259432     
 soft         electrons   254.51932166456427     
 augmentation electrons   31.608265249259432     
 soft         electrons   254.51932166456427     
 augmentation electrons   31.608265249259432     
 soft         electrons   254.51932166456427     
 augmentation electrons   31.608265249259432     
 soft         electrons   254.51932166456427     
 augmentation electrons   31.608265249259432     
 soft         electrons   254.51932166456427     
 augmentation electrons   31.608265249259432     
 soft         electrons   254.51932166456427     
 augmentation electrons   31.608265249259432     
 soft         electrons   254.51932166456427     
 augmentation electrons   31.608265249259432     
 soft         electrons   254.51932166456427     
 augmentation electrons   31.608265249259432     
 soft         electrons   254.51932166456427     
 augmentation electrons   31.608265249259432     
 soft         electrons   254.51932166456427     
 augmentation electrons   31.608265249259432     
 soft         electrons   254.51932166456427     
 augmentation electrons   31.608265249259432     
 soft         electrons   254.51932166456427     
 augmentation electrons   31.608265249259432     
 soft         electrons   254.51932166456427     
 augmentation electrons   31.608265249259432     
 soft         electrons   254.51932166456427     
 augmentation electrons   31.608265249259432     
 soft         electrons   254.51932166456427     
 augmentation electrons   31.608265249259432     
 soft         electrons   254.51932166456427     
 augmentation electrons   31.608265249259432     
 soft         electrons   254.51932166456427     
 augmentation electrons   31.608265249259432     
 soft         electrons   254.51932166456427     
 augmentation electrons   31.608265249259432     
 soft         electrons   254.51932166456427     
 augmentation electrons   31.608265249259432     
 soft         electrons   254.51932166456427     
 augmentation electrons   31.608265249259432     
 soft         electrons   254.51932166456427     
 augmentation electrons   31.608265249259432     
 soft         electrons   254.51932166456427     
 augmentation electrons   31.608265249259432     
 soft         electrons   254.51932166456427     
 augmentation electrons   31.608265249259432     
 soft         electrons   254.51932166456427     
 augmentation electrons   31.608265249259432     
 soft         electrons   254.51932166456427     
 augmentation electrons   31.608265249259432     
 soft         electrons   254.51932166456427     
 augmentation electrons   31.608265249259432     
 soft         electrons   254.51932166456427     
 augmentation electrons   31.608265249259432     
 soft         electrons   254.51932166456427     
 augmentation electrons   31.608265249259432     
 soft         electrons   254.51932166456427     
 augmentation electrons   31.608265249259432     
 soft         electrons   254.51932166456427     
 augmentation electrons   31.608265249259432     
 soft         electrons   254.51932166456427     
 augmentation electrons   31.608265249259432     
 soft         electrons   254.51932166456427     
 augmentation electrons   31.608265249259432     
 soft         electrons   254.51932166456427     
 augmentation electrons   31.608265249259432     
 soft         electrons   254.51932166456427     
 augmentation electrons   31.608265249259432     
 soft         electrons   254.51932166456427     
 augmentation electrons   31.608265249259432     
 soft         electrons   254.51932166456427     
 augmentation electrons   31.608265249259432     
 soft         electrons   254.51932166456427     
 augmentation electrons   31.608265249259432     
 soft         electrons   254.51932166456427     
 augmentation electrons   31.608265249259432     
 soft         electrons   254.51932166456427     
 augmentation electrons   31.608265249259432     
 soft         electrons   254.51932166456427     
 augmentation electrons   31.608265249259432     
 soft         electrons   254.51932166456427     
 augmentation electrons   31.608265249259432     
 soft         electrons   254.51932166456427     
 augmentation electrons   31.608265249259432     
 soft         electrons   254.51932166456427     
 augmentation electrons   31.608265249259432     
 soft         electrons   254.51932166456427     
 augmentation electrons   31.608265249259432     
 soft         electrons   254.51932166456427     
 augmentation electrons   31.608265249259432     
 soft         electrons   254.51932166456427     
 augmentation electrons   31.608265249259432     
 soft         electrons   254.51932166456427     
 augmentation electrons   31.608265249259432     
 soft         electrons   254.51932166456427     
 augmentation electrons   31.608265249259432     
 soft         electrons   254.51932166456427     
 augmentation electrons   31.608265249259432     
 soft         electrons   254.51932166456427     
 augmentation electrons   31.608265249259432     
 soft         electrons   254.51932166456427     
 augmentation electrons   31.608265249259432     
 soft         electrons   254.51932166456427     
 augmentation electrons   31.608265249259432     
 soft         electrons   254.51932166456427     
 augmentation electrons   31.608265249259432     
 soft         electrons   254.51932166456427     
 augmentation electrons   31.608265249259432     
 soft         electrons   254.51932166456427     
 augmentation electrons   31.608265249259432     
 soft         electrons   254.51932166456427     
 augmentation electrons   31.608265249259432     
 soft         electrons   254.51932166456427     
 augmentation electrons   31.608265249259432     
 soft         electrons   254.51932166456427     
 augmentation electrons   31.608265249259432     
 soft         electrons   254.51932166456427     
 augmentation electrons   31.608265249259432     
 soft         electrons   254.51932166456427     
 augmentation electrons   31.608265249259432     
 soft         electrons   254.51932166456427     
 augmentation electrons   31.608265249259432     
 soft         electrons   254.51932166456427     
 augmentation electrons   31.608265249259432     
 soft         electrons   254.51932166456427     
 augmentation electrons   31.608265249259432     
 soft         electrons   254.51932166456427     
 total        electrons   286.12758691382373     
 total        electrons   286.12758691382373     
 total        electrons   286.12758691382373     
 total        electrons   286.12758691382373     
 total        electrons   286.12758691382373     
 total        electrons   286.12758691382373     
 total        electrons   286.12758691382373     
 total        electrons   286.12758691382373     
 total        electrons   286.12758691382373     
 total        electrons   286.12758691382373     
 total        electrons   286.12758691382373     
 total        electrons   286.12758691382373     
 total        electrons   286.12758691382373     
 total        electrons   286.12758691382373     
 total        electrons   286.12758691382373     
 total        electrons   286.12758691382373     
 total        electrons   286.12758691382373     
 total        electrons   286.12758691382373     
 total        electrons   286.12758691382373     
 total        electrons   286.12758691382373     
 total        electrons   286.12758691382373     
 total        electrons   286.12758691382373     
 total        electrons   286.12758691382373     
 total        electrons   286.12758691382373     
 total        electrons   286.12758691382373     
 total        electrons   286.12758691382373     
 total        electrons   286.12758691382373     
 total        electrons   286.12758691382373     
 total        electrons   286.12758691382373     
 total        electrons   286.12758691382373     
 total        electrons   286.12758691382373     
 total        electrons   286.12758691382373     
 total        electrons   286.12758691382373     
 total        electrons   286.12758691382373     
 total        electrons   286.12758691382373     
 total        electrons   286.12758691382373     
 total        electrons   286.12758691382373     
 total        electrons   286.12758691382373     
 total        electrons   286.12758691382373     
 total        electrons   286.12758691382373     
 total        electrons   286.12758691382373     
 total        electrons   286.12758691382373     
 total        electrons   286.12758691382373     
 total        electrons   286.12758691382373     
 total        electrons   286.12758691382373     
 total        electrons   286.12758691382373     
 total        electrons   286.12758691382373     
 total        electrons   286.12758691382373     
 total        electrons   286.12758691382373     
 total        electrons   286.12758691382373     
 total        electrons   286.12758691382373     
 total        electrons   286.12758691382373     
 total        electrons   286.12758691382373     
 total        electrons   286.12758691382373     
 total        electrons   286.12758691382373     
 total        electrons   286.12758691382373     
 total        electrons   286.12758691382373     
 total        electrons   286.12758691382373     
 total        electrons   286.12758691382373     
 total        electrons   286.12758691382373     
 total        electrons   286.12758691382373     
 total        electrons   286.12758691382373     
 total        electrons   286.12758691382373     
 total        electrons   286.12758691382373     
 total        electrons   286.12758691382373     
 total        electrons   286.12758691382373     
 total        electrons   286.12758691382373     
 total        electrons   286.12758691382373     
 total        electrons   286.12758691382373     
 total        electrons   286.12758691382373     
 total        electrons   286.12758691382373     
 total        electrons   286.12758691382373     
Note: The following floating-point exceptions are signalling: IEEE_OVERFLOW_FLAG
Note: The following floating-point exceptions are signalling: IEEE_OVERFLOW_FLAG
Note: The following floating-point exceptions are signalling: IEEE_OVERFLOW_FLAG
Note: The following floating-point exceptions are signalling: IEEE_OVERFLOW_FLAG
Note: The following floating-point exceptions are signalling: IEEE_OVERFLOW_FLAG
Note: The following floating-point exceptions are signalling: IEEE_OVERFLOW_FLAG
Note: The following floating-point exceptions are signalling: IEEE_OVERFLOW_FLAG
Note: The following floating-point exceptions are signalling: IEEE_OVERFLOW_FLAG
Note: The following floating-point exceptions are signalling: IEEE_OVERFLOW_FLAG
Note: The following floating-point exceptions are signalling: IEEE_OVERFLOW_FLAG
Note: The following floating-point exceptions are signalling: IEEE_OVERFLOW_FLAG
Note: The following floating-point exceptions are signalling: IEEE_OVERFLOW_FLAG
Note: The following floating-point exceptions are signalling: IEEE_OVERFLOW_FLAG
Note: The following floating-point exceptions are signalling: IEEE_OVERFLOW_FLAG
Note: The following floating-point exceptions are signalling: IEEE_OVERFLOW_FLAG
Note: The following floating-point exceptions are signalling: IEEE_OVERFLOW_FLAG
Note: The following floating-point exceptions are signalling: IEEE_OVERFLOW_FLAG
Note: The following floating-point exceptions are signalling: IEEE_OVERFLOW_FLAG
Note: The following floating-point exceptions are signalling: IEEE_OVERFLOW_FLAG
Note: The following floating-point exceptions are signalling: IEEE_OVERFLOW_FLAG
Note: The following floating-point exceptions are signalling: IEEE_OVERFLOW_FLAG
Note: The following floating-point exceptions are signalling: IEEE_OVERFLOW_FLAG
Note: The following floating-point exceptions are signalling: IEEE_OVERFLOW_FLAG
Note: The following floating-point exceptions are signalling: IEEE_OVERFLOW_FLAG
Note: The following floating-point exceptions are signalling: IEEE_OVERFLOW_FLAG
Note: The following floating-point exceptions are signalling: IEEE_OVERFLOW_FLAG
Note: The following floating-point exceptions are signalling: IEEE_OVERFLOW_FLAG
Note: The following floating-point exceptions are signalling: IEEE_OVERFLOW_FLAG
Note: The following floating-point exceptions are signalling: IEEE_OVERFLOW_FLAG
Note: The following floating-point exceptions are signalling: IEEE_OVERFLOW_FLAG
Note: The following floating-point exceptions are signalling: IEEE_OVERFLOW_FLAG
Note: The following floating-point exceptions are signalling: IEEE_OVERFLOW_FLAG
Note: The following floating-point exceptions are signalling: IEEE_OVERFLOW_FLAG
Note: The following floating-point exceptions are signalling: IEEE_OVERFLOW_FLAG
Note: The following floating-point exceptions are signalling: IEEE_OVERFLOW_FLAG
Note: The following floating-point exceptions are signalling: IEEE_OVERFLOW_FLAG
Note: The following floating-point exceptions are signalling: IEEE_OVERFLOW_FLAG
Note: The following floating-point exceptions are signalling: IEEE_OVERFLOW_FLAG
Note: The following floating-point exceptions are signalling: IEEE_OVERFLOW_FLAG
Note: The following floating-point exceptions are signalling: IEEE_OVERFLOW_FLAG
Note: The following floating-point exceptions are signalling: IEEE_OVERFLOW_FLAG
Note: The following floating-point exceptions are signalling: IEEE_OVERFLOW_FLAG
Note: The following floating-point exceptions are signalling: IEEE_OVERFLOW_FLAG
Note: The following floating-point exceptions are signalling: IEEE_OVERFLOW_FLAG
Note: The following floating-point exceptions are signalling: IEEE_OVERFLOW_FLAG
Note: The following floating-point exceptions are signalling: IEEE_OVERFLOW_FLAG
Note: The following floating-point exceptions are signalling: IEEE_OVERFLOW_FLAG
Note: The following floating-point exceptions are signalling: IEEE_OVERFLOW_FLAG
Note: The following floating-point exceptions are signalling: IEEE_OVERFLOW_FLAG
Note: The following floating-point exceptions are signalling: IEEE_OVERFLOW_FLAG
Note: The following floating-point exceptions are signalling: IEEE_OVERFLOW_FLAG
Note: The following floating-point exceptions are signalling: IEEE_OVERFLOW_FLAG
Note: The following floating-point exceptions are signalling: IEEE_OVERFLOW_FLAG
Note: The following floating-point exceptions are signalling: IEEE_OVERFLOW_FLAG
Note: The following floating-point exceptions are signalling: IEEE_OVERFLOW_FLAG
Note: The following floating-point exceptions are signalling: IEEE_OVERFLOW_FLAG
Note: The following floating-point exceptions are signalling: IEEE_OVERFLOW_FLAG
Note: The following floating-point exceptions are signalling: IEEE_OVERFLOW_FLAG
Note: The following floating-point exceptions are signalling: IEEE_OVERFLOW_FLAG
Note: The following floating-point exceptions are signalling: IEEE_OVERFLOW_FLAG
Note: The following floating-point exceptions are signalling: IEEE_OVERFLOW_FLAG
Note: The following floating-point exceptions are signalling: IEEE_OVERFLOW_FLAG
Note: The following floating-point exceptions are signalling: IEEE_OVERFLOW_FLAG
Note: The following floating-point exceptions are signalling: IEEE_OVERFLOW_FLAG
Note: The following floating-point exceptions are signalling: IEEE_OVERFLOW_FLAG
Note: The following floating-point exceptions are signalling: IEEE_OVERFLOW_FLAG
Note: The following floating-point exceptions are signalling: IEEE_INVALID_FLAG IEEE_OVERFLOW_FLAG
Note: The following floating-point exceptions are signalling: IEEE_OVERFLOW_FLAG
Note: The following floating-point exceptions are signalling: IEEE_OVERFLOW_FLAG
Note: The following floating-point exceptions are signalling: IEEE_OVERFLOW_FLAG
Note: The following floating-point exceptions are signalling: IEEE_OVERFLOW_FLAG
Note: The following floating-point exceptions are signalling: IEEE_OVERFLOW_FLAG
