   73   73   85    1
  0.2139262E+02  0.1053953E-08  0.6141200E-09  0.2412750E-08  0.5000000E-15
   1.0000000000000000E-004
  CAR 
 Name                                    
    283     23    184

  0.3742002E-15  0.3742002E-15  0.1262379E-14  0.2222222E-01
    1      -14.040826   1.000000
    2      -12.908265   1.000000
    3      -12.863184   1.000000
    4      -12.800235   1.000000
    5      -11.872539   1.000000
    6      -11.762571   1.000000
    7      -11.708975   1.000000
    8      -11.658226   1.000000
    9      -11.480888   1.000000
   10      -11.359076   1.000000
   11      -11.271303   1.000000
   12      -11.140126   1.000000
   13      -11.115771   1.000000
   14      -10.795407   1.000000
   15      -10.617984   1.000000
   16      -10.454775   1.000000
   17      -10.230511   1.000000
   18      -10.218131   1.000000
   19      -10.060914   1.000000
   20       -9.831372   1.000000
   21       -9.727944   1.000000
   22       -9.589988   1.000000
   23       -9.540722   1.000000
   24       -9.424208   1.000000
   25       -9.083017   1.000000
   26       -8.961753   1.000000
   27       -8.791167   1.000000
   28       -8.524301   1.000000
   29       -8.459861   1.000000
   30       -8.399977   1.000000
   31       -8.268335   1.000000
   32       -7.918201   1.000000
   33       -7.915708   1.000000
   34       -7.550895   1.000000
   35       -7.345126   1.000000
   36       -7.282973   1.000000
   37       -7.162947   1.000000
   38       -7.097538   1.000000
   39       -7.016585   1.000000
   40       -6.859811   1.000000
   41       -6.831230   1.000000
   42       -6.718025   1.000000
   43       -6.705621   1.000000
   44       -6.615551   1.000000
   45       -6.551233   1.000000
   46       -6.550170   1.000000
   47       -6.483587   1.000000
   48       -6.329655   1.000000
   49       -6.219561   1.000000
   50       -6.182434   1.000000
   51       -6.036369   1.000000
   52       -5.945872   1.000000
   53       -5.886992   1.000000
   54       -5.823091   1.000000
   55       -5.706115   1.000000
   56       -5.670010   1.000000
   57       -5.655549   1.000000
   58       -5.476312   1.000000
   59       -5.416307   1.000000
   60       -5.389840   1.000000
   61       -5.290487   1.000000
   62       -5.074588   1.000000
   63       -5.008290   1.000000
   64       -4.823484   1.000000
   65       -4.810045   1.000000
   66       -4.767749   1.000000
   67       -4.748191   1.000000
   68       -4.695229   1.000000
   69       -4.684888   1.000000
   70       -4.536821   1.000000
   71       -4.473903   1.000000
   72       -4.365555   1.000000
   73       -4.330242   1.000000
   74       -4.238683   1.000000
   75       -4.234213   1.000000
   76       -4.174837   1.000000
   77       -4.087664   1.000000
   78       -4.049294   1.000000
   79       -4.045513   1.000000
   80       -4.024152   1.000000
   81       -3.971047   1.000000
   82       -3.953951   1.000000
   83       -3.937985   1.000000
   84       -3.934049   1.000000
   85       -3.835643   1.000000
   86       -3.742109   1.000000
   87       -3.695979   1.000000
   88       -3.675008   1.000000
   89       -3.669143   1.000000
   90       -3.586300   1.000000
   91       -3.472486   1.000000
   92       -3.304340   1.000000
   93       -3.169493   1.000000
   94       -3.155488   1.000000
   95       -3.114570   1.000000
   96       -2.944749   1.000000
   97       -2.932799   1.000000
   98       -2.883853   1.000000
   99       -2.845954   1.000000
  100       -2.819504   1.000000
  101       -2.691630   1.000000
  102       -2.513309   1.000000
  103       -2.501838   1.000000
  104       -2.491180   1.000000
  105       -2.475358   1.000000
  106       -2.382849   1.000000
  107       -2.245207   1.000000
  108       -2.225050   1.000000
  109       -2.177989   1.000000
  110       -2.153679   1.000000
  111       -2.076616   1.000000
  112       -2.023639   1.000000
  113       -2.011503   1.000000
  114       -1.965485   1.000000
  115       -1.875951   1.000000
  116       -1.811054   1.000000
  117       -1.736292   1.000000
  118       -1.711334   1.000000
  119       -1.690721   1.000000
  120       -1.556491   1.000000
  121       -1.268945   1.000000
  122       -1.157477   1.000000
  123       -1.093392   1.000000
  124       -0.938074   1.000000
  125       -0.922250   1.000000
  126       -0.807086   1.000000
  127       -0.805741   1.000000
  128       -0.550370   1.000000
  129       -0.471259   1.000000
  130       -0.470427   1.000000
  131       -0.296988   1.000000
  132       -0.272141   1.000000
  133       -0.213159   1.000000
  134       -0.104402   1.000000
  135        0.088460   1.000403
  136        0.131004   1.002720
  137        0.218087   1.030731
  138        0.229798   1.034458
  139        0.244599   1.034802
  140        0.261028   1.024910
  141        0.308754   0.881231
  142        0.434751   0.027148
  143        0.459220  -0.023387
  144        0.463615  -0.027790
  145        0.491275  -0.034579
  146        0.522279  -0.022392
  147        0.560962  -0.007958
  148        0.572603  -0.005364
  149        0.675348  -0.000041
  150        0.718508  -0.000003
  151        0.916219  -0.000000
  152        1.016254  -0.000000
  153        1.079870  -0.000000
  154        1.086129  -0.000000
  155        1.124068  -0.000000
  156        1.163829  -0.000000
  157        1.230042  -0.000000
  158        1.233897  -0.000000
  159        1.252229  -0.000000
  160        1.291069  -0.000000
  161        1.335399  -0.000000
  162        1.360337  -0.000000
  163        1.400412  -0.000000
  164        1.471845  -0.000000
  165        1.529578  -0.000000
  166        1.593418  -0.000000
  167        1.613391  -0.000000
  168        1.616572  -0.000000
  169        1.624800  -0.000000
  170        1.668978  -0.000000
  171        1.687075  -0.000000
  172        1.700476  -0.000000
  173        1.744758  -0.000000
  174        1.751285  -0.000000
  175        1.808485  -0.000000
  176        1.862816  -0.000000
  177        1.909998  -0.000000
  178        1.947461  -0.000000
  179        1.959944  -0.000000
  180        2.076768  -0.000000
  181        2.153735  -0.000000
  182        2.167085  -0.000000
  183        2.186790  -0.000000
  184        2.212196  -0.000000

  0.2000000E+00  0.3742002E-15  0.1262379E-14  0.4444444E-01
    1      -13.992387   1.000000
    2      -13.287343   1.000000
    3      -12.765308   1.000000
    4      -12.403408   1.000000
    5      -12.108460   1.000000
    6      -11.861427   1.000000
    7      -11.709115   1.000000
    8      -11.419484   1.000000
    9      -11.382880   1.000000
   10      -11.301682   1.000000
   11      -11.205149   1.000000
   12      -11.182298   1.000000
   13      -11.027456   1.000000
   14      -10.861124   1.000000
   15      -10.718582   1.000000
   16      -10.647085   1.000000
   17      -10.587622   1.000000
   18      -10.258391   1.000000
   19       -9.816329   1.000000
   20       -9.783474   1.000000
   21       -9.608748   1.000000
   22       -9.562155   1.000000
   23       -9.513570   1.000000
   24       -9.459123   1.000000
   25       -9.242211   1.000000
   26       -8.967661   1.000000
   27       -8.616768   1.000000
   28       -8.448844   1.000000
   29       -8.358404   1.000000
   30       -8.222120   1.000000
   31       -8.209091   1.000000
   32       -8.184287   1.000000
   33       -7.803061   1.000000
   34       -7.589002   1.000000
   35       -7.506225   1.000000
   36       -7.358072   1.000000
   37       -7.299042   1.000000
   38       -7.219633   1.000000
   39       -7.080321   1.000000
   40       -6.922656   1.000000
   41       -6.783723   1.000000
   42       -6.775386   1.000000
   43       -6.695577   1.000000
   44       -6.643847   1.000000
   45       -6.586597   1.000000
   46       -6.501148   1.000000
   47       -6.291561   1.000000
   48       -6.269371   1.000000
   49       -6.201338   1.000000
   50       -6.143832   1.000000
   51       -6.086776   1.000000
   52       -5.878212   1.000000
   53       -5.790354   1.000000
   54       -5.728346   1.000000
   55       -5.690151   1.000000
   56       -5.594130   1.000000
   57       -5.562282   1.000000
   58       -5.478016   1.000000
   59       -5.465735   1.000000
   60       -5.427967   1.000000
   61       -5.296122   1.000000
   62       -5.198829   1.000000
   63       -4.977426   1.000000
   64       -4.927572   1.000000
   65       -4.800474   1.000000
   66       -4.779019   1.000000
   67       -4.765024   1.000000
   68       -4.743318   1.000000
   69       -4.685228   1.000000
   70       -4.443279   1.000000
   71       -4.431090   1.000000
   72       -4.336589   1.000000
   73       -4.301169   1.000000
   74       -4.286387   1.000000
   75       -4.234364   1.000000
   76       -4.211351   1.000000
   77       -4.110882   1.000000
   78       -4.062537   1.000000
   79       -4.045760   1.000000
   80       -4.030890   1.000000
   81       -4.003130   1.000000
   82       -3.981814   1.000000
   83       -3.914788   1.000000
   84       -3.909054   1.000000
   85       -3.728325   1.000000
   86       -3.715154   1.000000
   87       -3.702633   1.000000
   88       -3.662205   1.000000
   89       -3.647300   1.000000
   90       -3.605256   1.000000
   91       -3.535201   1.000000
   92       -3.283578   1.000000
   93       -3.248332   1.000000
   94       -3.212702   1.000000
   95       -3.138391   1.000000
   96       -3.111751   1.000000
   97       -2.975785   1.000000
   98       -2.926301   1.000000
   99       -2.846660   1.000000
  100       -2.835023   1.000000
  101       -2.711757   1.000000
  102       -2.520784   1.000000
  103       -2.439604   1.000000
  104       -2.372758   1.000000
  105       -2.354797   1.000000
  106       -2.305377   1.000000
  107       -2.299970   1.000000
  108       -2.237862   1.000000
  109       -2.160168   1.000000
  110       -2.095287   1.000000
  111       -2.041462   1.000000
  112       -2.020938   1.000000
  113       -1.965306   1.000000
  114       -1.858479   1.000000
  115       -1.827538   1.000000
  116       -1.809343   1.000000
  117       -1.761964   1.000000
  118       -1.690309   1.000000
  119       -1.569067   1.000000
  120       -1.474705   1.000000
  121       -1.280126   1.000000
  122       -1.201096   1.000000
  123       -1.164334   1.000000
  124       -1.004591   1.000000
  125       -0.976222   1.000000
  126       -0.877598   1.000000
  127       -0.811489   1.000000
  128       -0.640054   1.000000
  129       -0.557746   1.000000
  130       -0.556238   1.000000
  131       -0.480735   1.000000
  132       -0.348866   1.000000
  133       -0.282478   1.000000
  134       -0.182278   1.000000
  135       -0.043836   1.000000
  136        0.048652   1.000047
  137        0.214980   1.029460
  138        0.237659   1.035451
  139        0.280362   0.991209
  140        0.320877   0.809985
  141        0.409848   0.135288
  142        0.424127   0.065696
  143        0.510512  -0.027788
  144        0.578495  -0.004335
  145        0.580806  -0.003978
  146        0.594543  -0.002323
  147        0.601594  -0.001731
  148        0.604041  -0.001559
  149        0.642096  -0.000256
  150        0.672343  -0.000048
  151        1.003618  -0.000000
  152        1.051288  -0.000000
  153        1.102996  -0.000000
  154        1.116469  -0.000000
  155        1.181533  -0.000000
  156        1.188717  -0.000000
  157        1.208123  -0.000000
  158        1.210152  -0.000000
  159        1.321565  -0.000000
  160        1.335898  -0.000000
  161        1.389724  -0.000000
  162        1.409632  -0.000000
  163        1.461021  -0.000000
  164        1.486001  -0.000000
  165        1.539907  -0.000000
  166        1.563613  -0.000000
  167        1.576824  -0.000000
  168        1.624766  -0.000000
  169        1.650601  -0.000000
  170        1.656435  -0.000000
  171        1.709072  -0.000000
  172        1.765834  -0.000000
  173        1.784296  -0.000000
  174        1.818648  -0.000000
  175        1.822618  -0.000000
  176        1.881376  -0.000000
  177        1.902286  -0.000000
  178        1.956047  -0.000000
  179        1.960717  -0.000000
  180        1.972229  -0.000000
  181        2.100645  -0.000000
  182        2.112139  -0.000000
  183        2.149373  -0.000000
  184        2.174711  -0.000000

  0.4000000E+00  0.3742002E-15  0.1262379E-14  0.4444444E-01
    1      -13.848250   1.000000
    2      -13.611083   1.000000
    3      -12.634590   1.000000
    4      -12.407343   1.000000
    5      -11.865915   1.000000
    6      -11.830510   1.000000
    7      -11.778275   1.000000
    8      -11.368142   1.000000
    9      -11.323429   1.000000
   10      -11.282698   1.000000
   11      -11.189424   1.000000
   12      -11.150039   1.000000
   13      -11.010553   1.000000
   14      -10.921921   1.000000
   15      -10.891968   1.000000
   16      -10.743043   1.000000
   17      -10.716799   1.000000
   18      -10.317096   1.000000
   19      -10.092408   1.000000
   20       -9.722256   1.000000
   21       -9.631414   1.000000
   22       -9.493152   1.000000
   23       -9.391088   1.000000
   24       -9.356701   1.000000
   25       -9.181537   1.000000
   26       -8.915252   1.000000
   27       -8.559394   1.000000
   28       -8.378966   1.000000
   29       -8.270635   1.000000
   30       -8.015216   1.000000
   31       -7.974919   1.000000
   32       -7.968356   1.000000
   33       -7.914074   1.000000
   34       -7.819904   1.000000
   35       -7.710313   1.000000
   36       -7.699076   1.000000
   37       -7.480015   1.000000
   38       -7.383490   1.000000
   39       -7.237267   1.000000
   40       -7.022234   1.000000
   41       -6.780634   1.000000
   42       -6.645686   1.000000
   43       -6.643427   1.000000
   44       -6.598647   1.000000
   45       -6.528357   1.000000
   46       -6.424006   1.000000
   47       -6.292050   1.000000
   48       -6.172415   1.000000
   49       -6.131012   1.000000
   50       -6.072403   1.000000
   51       -5.962948   1.000000
   52       -5.939292   1.000000
   53       -5.838776   1.000000
   54       -5.796668   1.000000
   55       -5.724174   1.000000
   56       -5.597191   1.000000
   57       -5.448881   1.000000
   58       -5.439359   1.000000
   59       -5.437391   1.000000
   60       -5.257862   1.000000
   61       -5.185394   1.000000
   62       -5.150120   1.000000
   63       -5.007495   1.000000
   64       -4.977516   1.000000
   65       -4.913454   1.000000
   66       -4.858523   1.000000
   67       -4.794717   1.000000
   68       -4.714446   1.000000
   69       -4.589862   1.000000
   70       -4.521163   1.000000
   71       -4.486432   1.000000
   72       -4.401908   1.000000
   73       -4.339098   1.000000
   74       -4.264881   1.000000
   75       -4.239023   1.000000
   76       -4.204985   1.000000
   77       -4.171968   1.000000
   78       -4.069388   1.000000
   79       -4.051562   1.000000
   80       -4.030255   1.000000
   81       -3.975270   1.000000
   82       -3.942395   1.000000
   83       -3.896120   1.000000
   84       -3.813403   1.000000
   85       -3.739086   1.000000
   86       -3.731688   1.000000
   87       -3.688981   1.000000
   88       -3.674429   1.000000
   89       -3.532059   1.000000
   90       -3.527646   1.000000
   91       -3.432172   1.000000
   92       -3.383642   1.000000
   93       -3.378186   1.000000
   94       -3.356967   1.000000
   95       -3.282171   1.000000
   96       -3.195569   1.000000
   97       -3.073911   1.000000
   98       -3.012140   1.000000
   99       -2.936195   1.000000
  100       -2.846854   1.000000
  101       -2.622148   1.000000
  102       -2.512675   1.000000
  103       -2.476554   1.000000
  104       -2.373008   1.000000
  105       -2.357764   1.000000
  106       -2.192111   1.000000
  107       -2.147361   1.000000
  108       -2.124233   1.000000
  109       -2.052601   1.000000
  110       -1.967201   1.000000
  111       -1.939347   1.000000
  112       -1.935093   1.000000
  113       -1.884675   1.000000
  114       -1.874740   1.000000
  115       -1.844317   1.000000
  116       -1.750332   1.000000
  117       -1.630961   1.000000
  118       -1.481400   1.000000
  119       -1.448166   1.000000
  120       -1.368684   1.000000
  121       -1.351599   1.000000
  122       -1.303814   1.000000
  123       -1.212962   1.000000
  124       -1.180837   1.000000
  125       -1.094522   1.000000
  126       -0.954496   1.000000
  127       -0.931189   1.000000
  128       -0.887080   1.000000
  129       -0.835326   1.000000
  130       -0.736780   1.000000
  131       -0.553614   1.000000
  132       -0.510997   1.000000
  133       -0.289376   1.000000
  134       -0.252962   1.000000
  135       -0.082224   1.000000
  136        0.151651   1.005879
  137        0.173603   1.011815
  138        0.200973   1.023136
  139        0.207321   1.026068
  140        0.273905   1.005684
  141        0.361433   0.494808
  142        0.436674   0.021333
  143        0.488986  -0.034996
  144        0.596412  -0.002151
  145        0.597043  -0.002096
  146        0.627682  -0.000528
  147        0.688060  -0.000019
  148        0.743370  -0.000000
  149        0.845134  -0.000000
  150        0.864502  -0.000000
  151        0.983113  -0.000000
  152        1.015256  -0.000000
  153        1.120119  -0.000000
  154        1.150691  -0.000000
  155        1.231217  -0.000000
  156        1.281808  -0.000000
  157        1.292283  -0.000000
  158        1.386917  -0.000000
  159        1.402771  -0.000000
  160        1.427416  -0.000000
  161        1.445175  -0.000000
  162        1.469873  -0.000000
  163        1.509179  -0.000000
  164        1.520243  -0.000000
  165        1.550382  -0.000000
  166        1.569579  -0.000000
  167        1.599506  -0.000000
  168        1.634736  -0.000000
  169        1.679871  -0.000000
  170        1.698216  -0.000000
  171        1.711062  -0.000000
  172        1.715880  -0.000000
  173        1.800149  -0.000000
  174        1.819712  -0.000000
  175        1.847738  -0.000000
  176        1.874058  -0.000000
  177        1.892898  -0.000000
  178        1.925283  -0.000000
  179        1.949549  -0.000000
  180        1.959619  -0.000000
  181        2.008765  -0.000000
  182        2.010822  -0.000000
  183        2.143211  -0.000000
  184        2.182550  -0.000000

  0.3742002E-15  0.1111111E+00  0.1262379E-14  0.4444444E-01
    1      -13.994018   1.000000
    2      -12.868570   1.000000
    3      -12.829388   1.000000
    4      -12.761907   1.000000
    5      -11.977764   1.000000
    6      -11.739076   1.000000
    7      -11.692038   1.000000
    8      -11.677649   1.000000
    9      -11.519889   1.000000
   10      -11.396542   1.000000
   11      -11.255978   1.000000
   12      -11.149080   1.000000
   13      -11.120099   1.000000
   14      -10.767431   1.000000
   15      -10.631929   1.000000
   16      -10.460239   1.000000
   17      -10.207996   1.000000
   18      -10.179427   1.000000
   19      -10.051600   1.000000
   20       -9.805264   1.000000
   21       -9.762392   1.000000
   22       -9.619633   1.000000
   23       -9.555103   1.000000
   24       -9.422882   1.000000
   25       -9.066972   1.000000
   26       -8.983943   1.000000
   27       -8.776782   1.000000
   28       -8.527710   1.000000
   29       -8.440935   1.000000
   30       -8.421852   1.000000
   31       -8.117051   1.000000
   32       -7.969395   1.000000
   33       -7.929527   1.000000
   34       -7.603654   1.000000
   35       -7.454528   1.000000
   36       -7.377368   1.000000
   37       -7.137933   1.000000
   38       -7.077147   1.000000
   39       -7.004963   1.000000
   40       -6.801279   1.000000
   41       -6.753264   1.000000
   42       -6.727462   1.000000
   43       -6.709770   1.000000
   44       -6.619804   1.000000
   45       -6.532613   1.000000
   46       -6.531863   1.000000
   47       -6.495676   1.000000
   48       -6.330308   1.000000
   49       -6.261982   1.000000
   50       -6.144832   1.000000
   51       -6.033796   1.000000
   52       -5.906589   1.000000
   53       -5.895101   1.000000
   54       -5.764845   1.000000
   55       -5.732360   1.000000
   56       -5.650777   1.000000
   57       -5.648372   1.000000
   58       -5.400964   1.000000
   59       -5.369155   1.000000
   60       -5.357222   1.000000
   61       -5.266913   1.000000
   62       -5.083393   1.000000
   63       -4.973724   1.000000
   64       -4.898632   1.000000
   65       -4.759792   1.000000
   66       -4.751008   1.000000
   67       -4.711035   1.000000
   68       -4.694850   1.000000
   69       -4.671792   1.000000
   70       -4.505740   1.000000
   71       -4.474064   1.000000
   72       -4.403706   1.000000
   73       -4.352014   1.000000
   74       -4.267610   1.000000
   75       -4.245195   1.000000
   76       -4.184500   1.000000
   77       -4.174843   1.000000
   78       -4.159344   1.000000
   79       -4.115012   1.000000
   80       -4.081761   1.000000
   81       -4.065449   1.000000
   82       -3.949628   1.000000
   83       -3.880389   1.000000
   84       -3.867809   1.000000
   85       -3.853116   1.000000
   86       -3.793299   1.000000
   87       -3.727445   1.000000
   88       -3.699786   1.000000
   89       -3.631817   1.000000
   90       -3.613010   1.000000
   91       -3.566317   1.000000
   92       -3.357944   1.000000
   93       -3.134905   1.000000
   94       -3.105719   1.000000
   95       -3.040502   1.000000
   96       -2.947918   1.000000
   97       -2.868451   1.000000
   98       -2.853879   1.000000
   99       -2.813741   1.000000
  100       -2.809776   1.000000
  101       -2.707275   1.000000
  102       -2.612242   1.000000
  103       -2.609991   1.000000
  104       -2.491981   1.000000
  105       -2.426883   1.000000
  106       -2.371054   1.000000
  107       -2.317091   1.000000
  108       -2.249986   1.000000
  109       -2.210204   1.000000
  110       -2.141091   1.000000
  111       -2.128053   1.000000
  112       -2.067025   1.000000
  113       -2.050593   1.000000
  114       -1.931700   1.000000
  115       -1.886260   1.000000
  116       -1.832223   1.000000
  117       -1.682890   1.000000
  118       -1.671062   1.000000
  119       -1.638208   1.000000
  120       -1.484584   1.000000
  121       -1.302977   1.000000
  122       -1.102059   1.000000
  123       -1.098360   1.000000
  124       -0.969683   1.000000
  125       -0.900715   1.000000
  126       -0.831206   1.000000
  127       -0.777044   1.000000
  128       -0.719346   1.000000
  129       -0.602456   1.000000
  130       -0.404471   1.000000
  131       -0.330902   1.000000
  132       -0.306062   1.000000
  133       -0.136963   1.000000
  134       -0.084904   1.000000
  135        0.035256   1.000021
  136        0.108137   1.001026
  137        0.163904   1.008821
  138        0.174436   1.012101
  139        0.179470   1.013918
  140        0.215027   1.029480
  141        0.318957   0.822195
  142        0.329796   0.749064
  143        0.476164  -0.034596
  144        0.480533  -0.035336
  145        0.486762  -0.035281
  146        0.600675  -0.001800
  147        0.644764  -0.000223
  148        0.673151  -0.000046
  149        0.708916  -0.000005
  150        0.897230  -0.000000
  151        0.984188  -0.000000
  152        1.008648  -0.000000
  153        1.019093  -0.000000
  154        1.146941  -0.000000
  155        1.161319  -0.000000
  156        1.169993  -0.000000
  157        1.217070  -0.000000
  158        1.227019  -0.000000
  159        1.318666  -0.000000
  160        1.351602  -0.000000
  161        1.352238  -0.000000
  162        1.367204  -0.000000
  163        1.378082  -0.000000
  164        1.405458  -0.000000
  165        1.503672  -0.000000
  166        1.548048  -0.000000
  167        1.572885  -0.000000
  168        1.628040  -0.000000
  169        1.661913  -0.000000
  170        1.668500  -0.000000
  171        1.717846  -0.000000
  172        1.720990  -0.000000
  173        1.762157  -0.000000
  174        1.773102  -0.000000
  175        1.812211  -0.000000
  176        1.831242  -0.000000
  177        1.875493  -0.000000
  178        1.914043  -0.000000
  179        1.917848  -0.000000
  180        1.968821  -0.000000
  181        1.979274  -0.000000
  182        2.108548  -0.000000
  183        2.218623  -0.000000
  184        2.250275  -0.000000

  0.2000000E+00  0.1111111E+00  0.1262379E-14  0.4444444E-01
    1      -13.945979   1.000000
    2      -13.247019   1.000000
    3      -12.726570   1.000000
    4      -12.371915   1.000000
    5      -12.077453   1.000000
    6      -11.960825   1.000000
    7      -11.762972   1.000000
    8      -11.440385   1.000000
    9      -11.403069   1.000000
   10      -11.300334   1.000000
   11      -11.210400   1.000000
   12      -11.173635   1.000000
   13      -11.025795   1.000000
   14      -10.840294   1.000000
   15      -10.710012   1.000000
   16      -10.632356   1.000000
   17      -10.587913   1.000000
   18      -10.255551   1.000000
   19       -9.800619   1.000000
   20       -9.773243   1.000000
   21       -9.635749   1.000000
   22       -9.563829   1.000000
   23       -9.517574   1.000000
   24       -9.462133   1.000000
   25       -9.245608   1.000000
   26       -8.961633   1.000000
   27       -8.625261   1.000000
   28       -8.448555   1.000000
   29       -8.353462   1.000000
   30       -8.233238   1.000000
   31       -8.208831   1.000000
   32       -8.040171   1.000000
   33       -7.850706   1.000000
   34       -7.669423   1.000000
   35       -7.567729   1.000000
   36       -7.406948   1.000000
   37       -7.211947   1.000000
   38       -7.192085   1.000000
   39       -7.064954   1.000000
   40       -6.904478   1.000000
   41       -6.791380   1.000000
   42       -6.737252   1.000000
   43       -6.726581   1.000000
   44       -6.690767   1.000000
   45       -6.637102   1.000000
   46       -6.588024   1.000000
   47       -6.300864   1.000000
   48       -6.244702   1.000000
   49       -6.170063   1.000000
   50       -6.061538   1.000000
   51       -6.012321   1.000000
   52       -5.881919   1.000000
   53       -5.792229   1.000000
   54       -5.741313   1.000000
   55       -5.642964   1.000000
   56       -5.594457   1.000000
   57       -5.572306   1.000000
   58       -5.454050   1.000000
   59       -5.402791   1.000000
   60       -5.361585   1.000000
   61       -5.273467   1.000000
   62       -5.182795   1.000000
   63       -4.961250   1.000000
   64       -4.916652   1.000000
   65       -4.816662   1.000000
   66       -4.759412   1.000000
   67       -4.729101   1.000000
   68       -4.685535   1.000000
   69       -4.654905   1.000000
   70       -4.465053   1.000000
   71       -4.456700   1.000000
   72       -4.359541   1.000000
   73       -4.316445   1.000000
   74       -4.264682   1.000000
   75       -4.254295   1.000000
   76       -4.232923   1.000000
   77       -4.210146   1.000000
   78       -4.163735   1.000000
   79       -4.128936   1.000000
   80       -4.103141   1.000000
   81       -4.030526   1.000000
   82       -3.970865   1.000000
   83       -3.927717   1.000000
   84       -3.879653   1.000000
   85       -3.770433   1.000000
   86       -3.747683   1.000000
   87       -3.715575   1.000000
   88       -3.700181   1.000000
   89       -3.662332   1.000000
   90       -3.598307   1.000000
   91       -3.503735   1.000000
   92       -3.321439   1.000000
   93       -3.247904   1.000000
   94       -3.146309   1.000000
   95       -3.107512   1.000000
   96       -3.042655   1.000000
   97       -2.995429   1.000000
   98       -2.942508   1.000000
   99       -2.878082   1.000000
  100       -2.836492   1.000000
  101       -2.702152   1.000000
  102       -2.560803   1.000000
  103       -2.472145   1.000000
  104       -2.458954   1.000000
  105       -2.382261   1.000000
  106       -2.359107   1.000000
  107       -2.253515   1.000000
  108       -2.178437   1.000000
  109       -2.155963   1.000000
  110       -2.143973   1.000000
  111       -2.083726   1.000000
  112       -2.023611   1.000000
  113       -1.953312   1.000000
  114       -1.919441   1.000000
  115       -1.863732   1.000000
  116       -1.825252   1.000000
  117       -1.787529   1.000000
  118       -1.672905   1.000000
  119       -1.505402   1.000000
  120       -1.423778   1.000000
  121       -1.340233   1.000000
  122       -1.175800   1.000000
  123       -1.111495   1.000000
  124       -1.041105   1.000000
  125       -0.995915   1.000000
  126       -0.921760   1.000000
  127       -0.861930   1.000000
  128       -0.750769   1.000000
  129       -0.551039   1.000000
  130       -0.504523   1.000000
  131       -0.346677   1.000000
  132       -0.299511   1.000000
  133       -0.166939   1.000000
  134       -0.099364   1.000000
  135       -0.048804   1.000000
  136       -0.031388   1.000000
  137        0.076115   1.000214
  138        0.151255   1.005798
  139        0.184836   1.016022
  140        0.353961   0.557893
  141        0.360898   0.499339
  142        0.405690   0.159366
  143        0.428075   0.050077
  144        0.507305  -0.029187
  145        0.538239  -0.015443
  146        0.580778  -0.003982
  147        0.666356  -0.000068
  148        0.756830  -0.000000
  149        0.789928  -0.000000
  150        0.819582  -0.000000
  151        0.964026  -0.000000
  152        1.027845  -0.000000
  153        1.114196  -0.000000
  154        1.166970  -0.000000
  155        1.211169  -0.000000
  156        1.239063  -0.000000
  157        1.257623  -0.000000