 running on   72 total cores
 distrk:  each k-point on   72 cores,    1 groups
 distr:  one band on    9 cores,    8 groups
 using from now: INCAR     
 vasp.5.4.4.18Apr17-6-g9f103f2a35 (build Dec  7 2020 12:43:57) complex           
 POSCAR found type information on POSCAR  Mo V  B  H 
 POSCAR found :  4 types and      73 ions
 scaLAPACK will be used
 LDA part: xc-table for Pade appr. of Perdew
 POSCAR, INCAR and KPOINTS ok, starting setup
 resort distribution
 resort distribution
 resort distribution
 resort distribution
 resort distribution
 resort distribution
 resort distribution
 resort distribution
 resort distribution
 resort distribution
 resort distribution
 resort distribution
 resort distribution
 resort distribution
 resort distribution
 resort distribution
 resort distribution
 resort distribution
 resort distribution
 resort distribution
 resort distribution
 resort distribution
 resort distribution
 resort distribution
 resort distribution
 resort distribution
 resort distribution
 resort distribution
 resort distribution
 resort distribution
 resort distribution
 resort distribution
 resort distribution
 resort distribution
 resort distribution
 resort distribution
 resort distribution
 resort distribution
 resort distribution
 resort distribution
 resort distribution
 resort distribution
 resort distribution
 resort distribution
 resort distribution
 resort distribution
 resort distribution
 resort distribution
 resort distribution
 resort distribution
 resort distribution
 resort distribution
 resort distribution
 resort distribution
 resort distribution
 resort distribution
 resort distribution
 resort distribution
 resort distribution
 resort distribution
 resort distribution
 resort distribution
 resort distribution
 resort distribution
 resort distribution
 resort distribution
 resort distribution
 resort distribution
 resort distribution
 resort distribution
 resort distribution
 resort distribution
 FFT: planning ...
 WAVECAR not read
 augmentation electrons   283.03520000001180     
 soft         electrons   0.0000000000000000     
 augmentation electrons   283.03520000001180     
 soft         electrons   0.0000000000000000     
 augmentation electrons   283.03520000001180     
 soft         electrons   0.0000000000000000     
 augmentation electrons   283.03520000001180     
 soft         electrons   0.0000000000000000     
 augmentation electrons   283.03520000001180     
 soft         electrons   0.0000000000000000     
 augmentation electrons   283.03520000001180     
 soft         electrons   0.0000000000000000     
 augmentation electrons   283.03520000001180     
 soft         electrons   0.0000000000000000     
 augmentation electrons   283.03520000001180     
 soft         electrons   0.0000000000000000     
 augmentation electrons   283.03520000001180     
 soft         electrons   0.0000000000000000     
 augmentation electrons   283.03520000001180     
 soft         electrons   0.0000000000000000     
 augmentation electrons   283.03520000001180     
 soft         electrons   0.0000000000000000     
 augmentation electrons   283.03520000001180     
 soft         electrons   0.0000000000000000     
 augmentation electrons   283.03520000001180     
 soft         electrons   0.0000000000000000     
 augmentation electrons   283.03520000001180     
 soft         electrons   0.0000000000000000     
 augmentation electrons   283.03520000001180     
 soft         electrons   0.0000000000000000     
 augmentation electrons   283.03520000001180     
 soft         electrons   0.0000000000000000     
 augmentation electrons   283.03520000001180     
 soft         electrons   0.0000000000000000     
 augmentation electrons   283.03520000001180     
 soft         electrons   0.0000000000000000     
 augmentation electrons   283.03520000001180     
 soft         electrons   0.0000000000000000     
 augmentation electrons   283.03520000001180     
 soft         electrons   0.0000000000000000     
 augmentation electrons   283.03520000001180     
 soft         electrons   0.0000000000000000     
 augmentation electrons   283.03520000001180     
 soft         electrons   0.0000000000000000     
 augmentation electrons   283.03520000001180     
 soft         electrons   0.0000000000000000     
 augmentation electrons   283.03520000001180     
 soft         electrons   0.0000000000000000     
 augmentation electrons   283.03520000001180     
 soft         electrons   0.0000000000000000     
 augmentation electrons   283.03520000001180     
 soft         electrons   0.0000000000000000     
 augmentation electrons   283.03520000001180     
 soft         electrons   0.0000000000000000     
 augmentation electrons   283.03520000001180     
 soft         electrons   0.0000000000000000     
 augmentation electrons   283.03520000001180     
 soft         electrons   0.0000000000000000     
 augmentation electrons   283.03520000001180     
 soft         electrons   0.0000000000000000     
 augmentation electrons   283.03520000001180     
 soft         electrons   0.0000000000000000     
 augmentation electrons   283.03520000001180     
 soft         electrons   0.0000000000000000     
 augmentation electrons   283.03520000001180     
 soft         electrons   0.0000000000000000     
 augmentation electrons   283.03520000001180     
 soft         electrons   0.0000000000000000     
 augmentation electrons   283.03520000001180     
 soft         electrons   0.0000000000000000     
 augmentation electrons   283.03520000001180     
 soft         electrons   0.0000000000000000     
 augmentation electrons   283.03520000001180     
 soft         electrons   0.0000000000000000     
 augmentation electrons   283.03520000001180     
 soft         electrons   0.0000000000000000     
 augmentation electrons   283.03520000001180     
 soft         electrons   0.0000000000000000     
 augmentation electrons   283.03520000001180     
 soft         electrons   0.0000000000000000     
 augmentation electrons   283.03520000001180     
 soft         electrons   0.0000000000000000     
 augmentation electrons   283.03520000001180     
 soft         electrons   0.0000000000000000     
 augmentation electrons   283.03520000001180     
 soft         electrons   0.0000000000000000     
 augmentation electrons   283.03520000001180     
 soft         electrons   0.0000000000000000     
 augmentation electrons   283.03520000001180     
 soft         electrons   0.0000000000000000     
 augmentation electrons   283.03520000001180     
 soft         electrons   0.0000000000000000     
 augmentation electrons   283.03520000001180     
 soft         electrons   0.0000000000000000     
 augmentation electrons   283.03520000001180     
 soft         electrons   0.0000000000000000     
 augmentation electrons   283.03520000001180     
 soft         electrons   0.0000000000000000     
 augmentation electrons   283.03520000001180     
 soft         electrons   0.0000000000000000     
 augmentation electrons   283.03520000001180     
 soft         electrons   0.0000000000000000     
 augmentation electrons   283.03520000001180     
 soft         electrons   0.0000000000000000     
 augmentation electrons   283.03520000001180     
 soft         electrons   0.0000000000000000     
 augmentation electrons   283.03520000001180     
 soft         electrons   0.0000000000000000     
 augmentation electrons   283.03520000001180     
 soft         electrons   0.0000000000000000     
 augmentation electrons   283.03520000001180     
 soft         electrons   0.0000000000000000     
 augmentation electrons   283.03520000001180     
 soft         electrons   0.0000000000000000     
 augmentation electrons   283.03520000001180     
 soft         electrons   0.0000000000000000     
 augmentation electrons   283.03520000001180     
 soft         electrons   0.0000000000000000     
 augmentation electrons   283.03520000001180     
 soft         electrons   0.0000000000000000     
 augmentation electrons   283.03520000001180     
 soft         electrons   0.0000000000000000     
 augmentation electrons   283.03520000001180     
 soft         electrons   0.0000000000000000     
 augmentation electrons   283.03520000001180     
 soft         electrons   0.0000000000000000     
 augmentation electrons   283.03520000001180     
 soft         electrons   0.0000000000000000     
 augmentation electrons   283.03520000001180     
 soft         electrons   0.0000000000000000     
 augmentation electrons   283.03520000001180     
 soft         electrons   0.0000000000000000     
 augmentation electrons   283.03520000001180     
 soft         electrons   0.0000000000000000     
 augmentation electrons   283.03520000001180     
 soft         electrons   0.0000000000000000     
 augmentation electrons   283.03520000001180     
 soft         electrons   0.0000000000000000     
 augmentation electrons   283.03520000001180     
 soft         electrons   0.0000000000000000     
 augmentation electrons   283.03520000001180     
 soft         electrons   0.0000000000000000     
 augmentation electrons   283.03520000001180     
 soft         electrons   0.0000000000000000     
 total        electrons   283.03520000001180     
 total        electrons   283.03520000001180     
 total        electrons   283.03520000001180     
 total        electrons   283.03520000001180     
 total        electrons   283.03520000001180     
 total        electrons   283.03520000001180     
 total        electrons   283.03520000001180     
 total        electrons   283.03520000001180     
 total        electrons   283.03520000001180     
 total        electrons   283.03520000001180     
 total        electrons   283.03520000001180     
 total        electrons   283.03520000001180     
 total        electrons   283.03520000001180     
 total        electrons   283.03520000001180     
 total        electrons   283.03520000001180     
 total        electrons   283.03520000001180     
 total        electrons   283.03520000001180     
 total        electrons   283.03520000001180     
 total        electrons   283.03520000001180     
 total        electrons   283.03520000001180     
 total        electrons   283.03520000001180     
 total        electrons   283.03520000001180     
 total        electrons   283.03520000001180     
 total        electrons   283.03520000001180     
 total        electrons   283.03520000001180     
 total        electrons   283.03520000001180     
 total        electrons   283.03520000001180     
 total        electrons   283.03520000001180     
 total        electrons   283.03520000001180     
 total        electrons   283.03520000001180     
 total        electrons   283.03520000001180     
 total        electrons   283.03520000001180     
 total        electrons   283.03520000001180     
 total        electrons   283.03520000001180     
 total        electrons   283.03520000001180     
 total        electrons   283.03520000001180     
 total        electrons   283.03520000001180     
 total        electrons   283.03520000001180     
 total        electrons   283.03520000001180     
 total        electrons   283.03520000001180     
 total        electrons   283.03520000001180     
 total        electrons   283.03520000001180     
 total        electrons   283.03520000001180     
 total        electrons   283.03520000001180     
 total        electrons   283.03520000001180     
 total        electrons   283.03520000001180     
 total        electrons   283.03520000001180     
 total        electrons   283.03520000001180     
 total        electrons   283.03520000001180     
 total        electrons   283.03520000001180     
 total        electrons   283.03520000001180     
 total        electrons   283.03520000001180     
 total        electrons   283.03520000001180     
 total        electrons   283.03520000001180     
 total        electrons   283.03520000001180     
 total        electrons   283.03520000001180     
 total        electrons   283.03520000001180     
 total        electrons   283.03520000001180     
 total        electrons   283.03520000001180     
 total        electrons   283.03520000001180     
 total        electrons   283.03520000001180     
 total        electrons   283.03520000001180     
 total        electrons   283.03520000001180     
 total        electrons   283.03520000001180     
 total        electrons   283.03520000001180     
 total        electrons   283.03520000001180     
 total        electrons   283.03520000001180     
 total        electrons   283.03520000001180     
 total        electrons   283.03520000001180     
 total        electrons   283.03520000001180     
 total        electrons   283.03520000001180     
 total        electrons   283.03520000001180     
 augmentation electrons   1046.9897952800966     
 soft         electrons   0.0000000000000000     
 augmentation electrons   1046.9897952800966     
 soft         electrons   0.0000000000000000     
 augmentation electrons   1046.9897952800966     
 soft         electrons   0.0000000000000000     
 augmentation electrons   1046.9897952800966     
 soft         electrons   0.0000000000000000     
 augmentation electrons   1046.9897952800966     
 soft         electrons   0.0000000000000000     
 augmentation electrons   1046.9897952800966     
 soft         electrons   0.0000000000000000     
 augmentation electrons   1046.9897952800966     
 soft         electrons   0.0000000000000000     
 augmentation electrons   1046.9897952800966     
 soft         electrons   0.0000000000000000     
 augmentation electrons   1046.9897952800966     
 soft         electrons   0.0000000000000000     
 augmentation electrons   1046.9897952800966     
 soft         electrons   0.0000000000000000     
 augmentation electrons   1046.9897952800966     
 soft         electrons   0.0000000000000000     
 augmentation electrons   1046.9897952800966     
 soft         electrons   0.0000000000000000     
 augmentation electrons   1046.9897952800966     
 soft         electrons   0.0000000000000000     
 augmentation electrons   1046.9897952800966     
 soft         electrons   0.0000000000000000     
 augmentation electrons   1046.9897952800966     
 soft         electrons   0.0000000000000000     
 augmentation electrons   1046.9897952800966     
 soft         electrons   0.0000000000000000     
 augmentation electrons   1046.9897952800966     
 soft         electrons   0.0000000000000000     
 augmentation electrons   1046.9897952800966     
 soft         electrons   0.0000000000000000     
 augmentation electrons   1046.9897952800966     
 soft         electrons   0.0000000000000000     
 augmentation electrons   1046.9897952800966     
 soft         electrons   0.0000000000000000     
 augmentation electrons   1046.9897952800966     
 soft         electrons   0.0000000000000000     
 augmentation electrons   1046.9897952800966     
 soft         electrons   0.0000000000000000     
 augmentation electrons   1046.9897952800966     
 soft         electrons   0.0000000000000000     
 augmentation electrons   1046.9897952800966     
 soft         electrons   0.0000000000000000     
 augmentation electrons   1046.9897952800966     
 soft         electrons   0.0000000000000000     
 augmentation electrons   1046.9897952800966     
 soft         electrons   0.0000000000000000     
 augmentation electrons   1046.9897952800966     
 soft         electrons   0.0000000000000000     
 augmentation electrons   1046.9897952800966     
 soft         electrons   0.0000000000000000     
 augmentation electrons   1046.9897952800966     
 soft         electrons   0.0000000000000000     
 augmentation electrons   1046.9897952800966     
 soft         electrons   0.0000000000000000     
 augmentation electrons   1046.9897952800966     
 soft         electrons   0.0000000000000000     
 augmentation electrons   1046.9897952800966     
 soft         electrons   0.0000000000000000     
 augmentation electrons   1046.9897952800966     
 soft         electrons   0.0000000000000000     
 augmentation electrons   1046.9897952800966     
 soft         electrons   0.0000000000000000     
 augmentation electrons   1046.9897952800966     
 soft         electrons   0.0000000000000000     
 augmentation electrons   1046.9897952800966     
 soft         electrons   0.0000000000000000     
 augmentation electrons   1046.9897952800966     
 soft         electrons   0.0000000000000000     
 augmentation electrons   1046.9897952800966     
 soft         electrons   0.0000000000000000     
 augmentation electrons   1046.9897952800966     
 soft         electrons   0.0000000000000000     
 augmentation electrons   1046.9897952800966     
 soft         electrons   0.0000000000000000     
 augmentation electrons   1046.9897952800966     
 soft         electrons   0.0000000000000000     
 augmentation electrons   1046.9897952800966     
 soft         electrons   0.0000000000000000     
 augmentation electrons   1046.9897952800966     
 soft         electrons   0.0000000000000000     
 augmentation electrons   1046.9897952800966     
 soft         electrons   0.0000000000000000     
 augmentation electrons   1046.9897952800966     
 soft         electrons   0.0000000000000000     
 augmentation electrons   1046.9897952800966     
 soft         electrons   0.0000000000000000     
 augmentation electrons   1046.9897952800966     
 soft         electrons   0.0000000000000000     
 augmentation electrons   1046.9897952800966     
 soft         electrons   0.0000000000000000     
 augmentation electrons   1046.9897952800966     
 soft         electrons   0.0000000000000000     
 augmentation electrons   1046.9897952800966     
 soft         electrons   0.0000000000000000     
 augmentation electrons   1046.9897952800966     
 soft         electrons   0.0000000000000000     
 augmentation electrons   1046.9897952800966     
 soft         electrons   0.0000000000000000     
 augmentation electrons   1046.9897952800966     
 soft         electrons   0.0000000000000000     
 augmentation electrons   1046.9897952800966     
 soft         electrons   0.0000000000000000     
 augmentation electrons   1046.9897952800966     
 soft         electrons   0.0000000000000000     
 augmentation electrons   1046.9897952800966     
 soft         electrons   0.0000000000000000     
 augmentation electrons   1046.9897952800966     
 soft         electrons   0.0000000000000000     
 augmentation electrons   1046.9897952800966     
 soft         electrons   0.0000000000000000     
 augmentation electrons   1046.9897952800966     
 soft         electrons   0.0000000000000000     
 augmentation electrons   1046.9897952800966     
 soft         electrons   0.0000000000000000     
 augmentation electrons   1046.9897952800966     
 soft         electrons   0.0000000000000000     
 augmentation electrons   1046.9897952800966     
 soft         electrons   0.0000000000000000     
 augmentation electrons   1046.9897952800966     
 soft         electrons   0.0000000000000000     
 augmentation electrons   1046.9897952800966     
 soft         electrons   0.0000000000000000     
 augmentation electrons   1046.9897952800966     
 soft         electrons   0.0000000000000000     
 augmentation electrons   1046.9897952800966     
 soft         electrons   0.0000000000000000     
 augmentation electrons   1046.9897952800966     
 soft         electrons   0.0000000000000000     
 augmentation electrons   1046.9897952800966     
 soft         electrons   0.0000000000000000     
 augmentation electrons   1046.9897952800966     
 soft         electrons   0.0000000000000000     
 augmentation electrons   1046.9897952800966     
 soft         electrons   0.0000000000000000     
 augmentation electrons   1046.9897952800966     
 soft         electrons   0.0000000000000000     
 augmentation electrons   1046.9897952800966     
 soft         electrons   0.0000000000000000     
 total        electrons   1046.9897952800966     
 total        electrons   1046.9897952800966     
 total        electrons   1046.9897952800966     
 total        electrons   1046.9897952800966     
 total        electrons   1046.9897952800966     
 total        electrons   1046.9897952800966     
 total        electrons   1046.9897952800966     
 total        electrons   1046.9897952800966     
 total        electrons   1046.9897952800966     
 total        electrons   1046.9897952800966     
 total        electrons   1046.9897952800966     
 total        electrons   1046.9897952800966     
 total        electrons   1046.9897952800966     
 total        electrons   1046.9897952800966     
 total        electrons   1046.9897952800966     
 total        electrons   1046.9897952800966     
 total        electrons   1046.9897952800966     
 total        electrons   1046.9897952800966     
 total        electrons   1046.9897952800966     
 total        electrons   1046.9897952800966     
 total        electrons   1046.9897952800966     
 total        electrons   1046.9897952800966     
 total        electrons   1046.9897952800966     
 total        electrons   1046.9897952800966     
 total        electrons   1046.9897952800966     
 total        electrons   1046.9897952800966     
 total        electrons   1046.9897952800966     
 total        electrons   1046.9897952800966     
 total        electrons   1046.9897952800966     
 total        electrons   1046.9897952800966     
 total        electrons   1046.9897952800966     
 total        electrons   1046.9897952800966     
 total        electrons   1046.9897952800966     
 total        electrons   1046.9897952800966     
 total        electrons   1046.9897952800966     
 total        electrons   1046.9897952800966     
 total        electrons   1046.9897952800966     
 total        electrons   1046.9897952800966     
 total        electrons   1046.9897952800966     
 total        electrons   1046.9897952800966     
 total        electrons   1046.9897952800966     
 total        electrons   1046.9897952800966     
 total        electrons   1046.9897952800966     
 total        electrons   1046.9897952800966     
 total        electrons   1046.9897952800966     
 total        electrons   1046.9897952800966     
 total        electrons   1046.9897952800966     
 total        electrons   1046.9897952800966     
 total        electrons   1046.9897952800966     
 total        electrons   1046.9897952800966     
 total        electrons   1046.9897952800966     
 total        electrons   1046.9897952800966     
 total        electrons   1046.9897952800966     
 total        electrons   1046.9897952800966     
 total        electrons   1046.9897952800966     
 total        electrons   1046.9897952800966     
 total        electrons   1046.9897952800966     
 total        electrons   1046.9897952800966     
 total        electrons   1046.9897952800966     
 total        electrons   1046.9897952800966     
 total        electrons   1046.9897952800966     
 total        electrons   1046.9897952800966     
 total        electrons   1046.9897952800966     
 total        electrons   1046.9897952800966     
 total        electrons   1046.9897952800966     
 total        electrons   1046.9897952800966     
 total        electrons   1046.9897952800966     
 total        electrons   1046.9897952800966     
 total        electrons   1046.9897952800966     
 total        electrons   1046.9897952800966     
 total        electrons   1046.9897952800966     
 total        electrons   1046.9897952800966     
 entering main loop
       N       E                     dE             d eps       ncg     rms          rms(c)
DAV:   1     0.244838388798E+04    0.24484E+04   -0.10313E+05  8464   0.126E+03
DAV:   2    -0.221204176643E+03   -0.26696E+04   -0.24754E+04  9776   0.312E+02
DAV:   3    -0.651940765512E+03   -0.43074E+03   -0.40945E+03 11880   0.145E+02
DAV:   4    -0.688655594081E+03   -0.36715E+02   -0.35004E+02 13704   0.462E+01
DAV:   5    -0.691077540885E+03   -0.24219E+01   -0.23281E+01 14456   0.111E+01    0.147E+02
RMM:   6    -0.640895846906E+03    0.50182E+02   -0.11650E+03 11594   0.887E+01    0.735E+01
RMM:   7    -0.722387457264E+03   -0.81492E+02   -0.36782E+02 11701   0.364E+01    0.537E+01
RMM:   8    -0.620082414842E+03    0.10231E+03   -0.99244E+01 10759   0.259E+01    0.353E+01
RMM:   9    -0.605545378045E+03    0.14537E+02   -0.39527E+01 11106   0.147E+01    0.297E+01
RMM:  10    -0.587894558184E+03    0.17651E+02   -0.19757E+01  9184   0.136E+01    0.201E+01
RMM:  11    -0.587164702826E+03    0.72986E+00   -0.61519E+00 10169   0.636E+00    0.171E+01
RMM:  12    -0.587227399747E+03   -0.62697E-01   -0.22194E+00 11529   0.208E+00    0.156E+01
RMM:  13    -0.586920194055E+03    0.30721E+00   -0.84307E-01  9104   0.263E+00    0.142E+01
RMM:  14    -0.586275578780E+03    0.64462E+00   -0.42017E+00  8752   0.691E+00    0.751E+00
RMM:  15    -0.586132608948E+03    0.14297E+00   -0.13249E+00 10847   0.256E+00    0.527E+00
RMM:  16    -0.586058677098E+03    0.73932E-01   -0.13516E+00 10291   0.286E+00    0.513E+00
RMM:  17    -0.585831257636E+03    0.22742E+00   -0.13324E+00 11212   0.228E+00    0.234E+00
RMM:  18    -0.585842848306E+03   -0.11591E-01   -0.37661E-01 11420   0.114E+00    0.209E+00
RMM:  19    -0.585826810523E+03    0.16038E-01   -0.76793E-02 10574   0.637E-01    0.157E+00
RMM:  20    -0.585803105145E+03    0.23705E-01   -0.39505E-02 10961   0.395E-01    0.975E-01
RMM:  21    -0.585791280927E+03    0.11824E-01   -0.81026E-02 11338   0.458E-01    0.379E-01
RMM:  22    -0.585791565133E+03   -0.28421E-03   -0.12950E-02 11180   0.239E-01    0.237E-01
RMM:  23    -0.585792256247E+03   -0.69111E-03   -0.31628E-03  9362   0.153E-01    0.205E-01
RMM:  24    -0.585792413243E+03   -0.15700E-03   -0.14175E-03  9751   0.968E-02    0.120E-01
RMM:  25    -0.585793405596E+03   -0.99235E-03   -0.13749E-03  9603   0.922E-02    0.972E-02
RMM:  26    -0.585794087916E+03   -0.68232E-03   -0.89379E-04 11255   0.410E-02    0.766E-02
RMM:  27    -0.585794719579E+03   -0.63166E-03   -0.33398E-04 10829   0.287E-02    0.795E-02
RMM:  28    -0.585795542913E+03   -0.82333E-03   -0.52047E-04 10692   0.489E-02    0.465E-02
RMM:  29    -0.585795641501E+03   -0.98588E-04   -0.19725E-04 10420   0.294E-02    0.202E-02
RMM:  30    -0.585795791601E+03   -0.15010E-03   -0.65497E-05 10216   0.144E-02    0.307E-02
RMM:  31    -0.585795893837E+03   -0.10224E-03   -0.28717E-05  7668   0.161E-02    0.176E-02
RMM:  32    -0.585795966423E+03   -0.72586E-04   -0.29780E-05  8554   0.105E-02    0.126E-02
RMM:  33    -0.585796101142E+03   -0.13472E-03   -0.28315E-05  9324   0.974E-03    0.811E-03
RMM:  34    -0.585796207946E+03   -0.10680E-03   -0.77828E-06  6464   0.716E-03    0.735E-03
RMM:  35    -0.585796315957E+03   -0.10801E-03   -0.79526E-06  6403   0.457E-03    0.387E-03
RMM:  36    -0.585796363703E+03   -0.47746E-04   -0.34668E-06  5856   0.378E-03    0.479E-03
RMM:  37    -0.585796406340E+03   -0.42637E-04   -0.46544E-06  6146   0.492E-03    0.528E-03
RMM:  38    -0.585796416036E+03   -0.96958E-05   -0.10972E-06  5254   0.343E-03    0.267E-03
RMM:  39    -0.585796427860E+03   -0.11824E-04   -0.18014E-06  5557   0.350E-03    0.368E-03
RMM:  40    -0.585796431557E+03   -0.36973E-05   -0.94886E-07  5239   0.265E-03    0.122E-03
RMM:  41    -0.585796433394E+03   -0.18366E-05   -0.44838E-07  4700   0.163E-03    0.148E-03
RMM:  42    -0.585796434499E+03   -0.11051E-05   -0.31796E-07  4644   0.172E-03    0.625E-04
RMM:  43    -0.585796435043E+03   -0.54436E-06   -0.17593E-07  3237   0.883E-04
   1 F= -.58579644E+03 E0= -.58579782E+03  d E =-.585796E+03
 curvature:   0.00 expect dE= 0.000E+00 dE for cont linesearch  0.000E+00
 trial: gam= 0.00000 g(F)=  0.441E-01 g(S)=  0.000E+00 ort = 0.000E+00 (trialstep = 0.100E+01)
 search vector abs. value=  0.441E-01
 bond charge predicted
       N       E                     dE             d eps       ncg     rms          rms(c)
DAV:   1    -0.585823907473E+03   -0.27473E-01   -0.73818E-01  9224   0.153E+00    0.274E-01
RMM:   2    -0.585824378374E+03   -0.47090E-03   -0.17690E-02 10788   0.287E-01    0.183E-01
RMM:   3    -0.585829913557E+03   -0.55352E-02   -0.66313E-03 10808   0.201E-01    0.603E-01
RMM:   4    -0.585824361673E+03    0.55519E-02   -0.32283E-03 10111   0.166E-01    0.125E-01
RMM:   5    -0.585824305845E+03    0.55829E-04   -0.10960E-03 10216   0.874E-02    0.107E-01
RMM:   6    -0.585824271003E+03    0.34841E-04   -0.49740E-04 10239   0.596E-02    0.914E-02
RMM:   7    -0.585824178366E+03    0.92637E-04   -0.23548E-04  9860   0.421E-02    0.443E-02
RMM:   8    -0.585824174731E+03    0.36356E-05   -0.12895E-04 10239   0.266E-02    0.343E-02
RMM:   9    -0.585824169002E+03    0.57286E-05   -0.47334E-05  9152   0.199E-02    0.183E-02
RMM:  10    -0.585824165419E+03    0.35834E-05   -0.20148E-05  8106   0.100E-02    0.856E-03
RMM:  11    -0.585824166264E+03   -0.84498E-06   -0.94261E-06  6686   0.798E-03
   2 F= -.58582417E+03 E0= -.58582550E+03  d E =-.277312E-01
 trial-energy change:   -0.027731  1 .order   -0.028287   -0.044070   -0.012504
 step:   1.4688(harm=  1.3961)  dis= 0.05921  next Energy=  -585.827040 (dE=-0.306E-01)
 bond charge predicted
       N       E                     dE             d eps       ncg     rms          rms(c)
DAV:   1    -0.585826940483E+03   -0.27751E-02   -0.15938E-01  9072   0.711E-01    0.121E-01
RMM:   2    -0.585827058793E+03   -0.11831E-03   -0.35199E-03 10296   0.137E-01    0.799E-02
RMM:   3    -0.585828128318E+03   -0.10695E-02   -0.13730E-03 10757   0.933E-02    0.266E-01
RMM:   4    -0.585827072768E+03    0.10555E-02   -0.61904E-04 10144   0.726E-02    0.570E-02
RMM:   5    -0.585827060894E+03    0.11874E-04   -0.22483E-04 10180   0.388E-02    0.486E-02
RMM:   6    -0.585827050286E+03    0.10608E-04   -0.95980E-05 10177   0.253E-02    0.372E-02
RMM:   7    -0.585827036991E+03    0.13295E-04   -0.50029E-05  9359   0.184E-02    0.235E-02
RMM:   8    -0.585827033577E+03    0.34136E-05   -0.23299E-05  8536   0.122E-02    0.127E-02
RMM:   9    -0.585827034062E+03   -0.48455E-06   -0.84692E-06  6665   0.801E-03
   3 F= -.58582703E+03 E0= -.58582835E+03  d E =-.305990E-01
 curvature:  -0.67 expect dE=-0.158E-02 dE for cont linesearch -0.109E-06
 trial: gam= 0.05510 g(F)=  0.234E-02 g(S)=  0.000E+00 ort =-0.842E-04 (trialstep = 0.109E+01)
 search vector abs. value=  0.247E-02
 bond charge predicted
       N       E                     dE             d eps       ncg     rms          rms(c)
DAV:   1    -0.585829424026E+03   -0.23904E-02   -0.48441E-02  8944   0.389E-01    0.648E-02
RMM:   2    -0.585829447743E+03   -0.23717E-04   -0.83156E-04  9911   0.741E-02    0.404E-02
RMM:   3    -0.585829547445E+03   -0.99701E-04   -0.41126E-04 10347   0.530E-02    0.898E-02
RMM:   4    -0.585829458935E+03    0.88510E-04   -0.11097E-04  9221   0.352E-02    0.334E-02
RMM:   5    -0.585829448121E+03    0.10813E-04   -0.56357E-05  9654   0.146E-02    0.200E-02
RMM:   6    -0.585829442886E+03    0.52355E-05   -0.13375E-05  7789   0.872E-03    0.107E-02
RMM:   7    -0.585829442228E+03    0.65813E-06   -0.82428E-06  7026   0.814E-03
   4 F= -.58582944E+03 E0= -.58583077E+03  d E =-.240817E-02
 ZBRENT: can't locate minimum, use default step
 trial-energy change:   -0.002408  1 .order   -0.002392   -0.002559   -0.002226
 step:   4.3751(harm=  8.4247)  dis= 0.00000  next Energy=  -585.833357 (dE=-0.632E-02)
 bond charge predicted
       N       E                     dE             d eps       ncg     rms          rms(c)
DAV:   1    -0.585834497371E+03   -0.50545E-02   -0.43956E-01  8856   0.117E+00    0.201E-01
RMM:   2    -0.585834613437E+03   -0.11607E-03   -0.71793E-03  9849   0.220E-01    0.129E-01
RMM:   3    -0.585835888434E+03   -0.12750E-02   -0.42405E-03 10052   0.182E-01    0.348E-01
RMM:   4    -0.585834639702E+03    0.12487E-02   -0.15313E-03  9067   0.131E-01    0.100E-01
RMM:   5    -0.585834548105E+03    0.91597E-04   -0.52289E-04 10055   0.581E-02    0.463E-02
RMM:   6    -0.585834525386E+03    0.22719E-04   -0.17174E-04 10945   0.228E-02    0.265E-02
RMM:   7    -0.585834520144E+03    0.52419E-05   -0.81929E-05 10419   0.199E-02    0.294E-02
RMM:   8    -0.585834528663E+03   -0.85190E-05   -0.54942E-05 10389   0.165E-02    0.336E-02
RMM:   9    -0.585834517276E+03    0.11386E-04   -0.27005E-05  9426   0.121E-02    0.183E-02
RMM:  10    -0.585834512578E+03    0.46986E-05   -0.81867E-06  6699   0.893E-03    0.797E-03
RMM:  11    -0.585834512789E+03   -0.21091E-06   -0.48998E-06  6488   0.577E-03
   5 F= -.58583451E+03 E0= -.58583586E+03  d E =-.747873E-02
 curvature:  -3.09 expect dE=-0.159E-02 dE for cont linesearch -0.126E-02
 ZBRENT: increasing intervall
 opt :  10.9377  next Energy=  -585.834312 (dE=-0.728E-02)
 bond charge predicted
       N       E                     dE             d eps       ncg     rms          rms(c)
DAV:   1    -0.585832804571E+03    0.17080E-02   -0.17784E+00  8720   0.234E+00    0.421E-01
RMM:   2    -0.585832615957E+03    0.18861E-03   -0.28080E-02  9884   0.434E-01    0.256E-01
RMM:   3    -0.585836937574E+03   -0.43216E-02   -0.16888E-02 10706   0.318E-01    0.580E-01
RMM:   4    -0.585833229602E+03    0.37080E-02   -0.40748E-03  9457   0.208E-01    0.250E-01
RMM:   5    -0.585832408284E+03    0.82132E-03   -0.20041E-03 10439   0.102E-01    0.969E-02
RMM:   6    -0.585832268801E+03    0.13948E-03   -0.61362E-04 11148   0.444E-02    0.572E-02
RMM:   7    -0.585832249886E+03    0.18916E-04   -0.46518E-04 10915   0.469E-02    0.689E-02
RMM:   8    -0.585832248553E+03    0.13324E-05   -0.28917E-04 10508   0.429E-02    0.608E-02
RMM:   9    -0.585832222634E+03    0.25919E-04   -0.81396E-05  9184   0.276E-02    0.354E-02
RMM:  10    -0.585832209348E+03    0.13286E-04   -0.33686E-05  8847   0.165E-02    0.151E-02
RMM:  11    -0.585832212546E+03   -0.31982E-05   -0.27093E-05  9427   0.103E-02    0.144E-02
RMM:  12    -0.585832214438E+03   -0.18921E-05   -0.12197E-05  7452   0.105E-02    0.127E-02
RMM:  13    -0.585832214198E+03    0.24050E-06   -0.46926E-06  6176   0.613E-03
   6 F= -.58583221E+03 E0= -.58583360E+03  d E =-.518014E-02
 curvature:   0.49 expect dE= 0.229E-02 dE for cont linesearch  0.705E-03
 ZBRENT: bracketing found
 ZBRENT: interpolating
 opt :   6.6574  next Energy=  -585.835657 (dE=-0.862E-02)
 bond charge predicted
       N       E                     dE             d eps       ncg     rms          rms(c)
DAV:   1    -0.585836080220E+03   -0.38658E-02   -0.75805E-01  8712   0.153E+00    0.275E-01
RMM:   2    -0.585836002496E+03    0.77724E-04   -0.12221E-02  9908   0.285E-01    0.169E-01
RMM:   3    -0.585838179828E+03   -0.21773E-02   -0.72326E-03 10804   0.207E-01    0.402E-01
RMM:   4    -0.585836284730E+03    0.18951E-02   -0.17819E-03  9601   0.133E-01    0.171E-01
RMM:   5    -0.585835897998E+03    0.38673E-03   -0.87913E-04  9988   0.748E-02    0.620E-02
RMM:   6    -0.585835845056E+03    0.52942E-04   -0.31240E-04 11139   0.305E-02    0.391E-02
RMM:   7    -0.585835836466E+03    0.85895E-05   -0.20040E-04 10762   0.321E-02    0.454E-02
RMM:   8    -0.585835834330E+03    0.21364E-05   -0.12072E-04 10434   0.279E-02    0.394E-02
RMM:   9    -0.585835824545E+03    0.97851E-05   -0.36200E-05  8426   0.187E-02    0.246E-02
RMM:  10    -0.585835817813E+03    0.67313E-05   -0.14114E-05  7629   0.111E-02    0.949E-03
RMM:  11    -0.585835818793E+03   -0.97971E-06   -0.10715E-05  7477   0.740E-03    0.101E-02
RMM:  12    -0.585835818761E+03    0.32520E-07   -0.52960E-06  6351   0.780E-03
   7 F= -.58583582E+03 E0= -.58583718E+03  d E =-.878470E-02
 curvature:  -0.80 expect dE=-0.423E-03 dE for cont linesearch -0.493E-05
 ZBRENT: interpolating
 opt :   6.9583  next Energy=  -585.835838 (dE=-0.880E-02)
 bond charge predicted
       N       E                     dE             d eps       ncg     rms          rms(c)
DAV:   1    -0.585835836438E+03   -0.17645E-04   -0.37277E-03  8968   0.108E-01    0.193E-02
RMM:   2    -0.585835836229E+03    0.20901E-06   -0.71131E-05  8659   0.225E-02    0.118E-02
RMM:   3    -0.585835842754E+03   -0.65256E-05   -0.37111E-05  9842   0.130E-02    0.212E-02
RMM:   4    -0.585835838854E+03    0.39007E-05   -0.10482E-05  7057   0.101E-02    0.152E-02
RMM:   5    -0.585835836668E+03    0.21859E-05   -0.55138E-06  6437   0.698E-03    0.821E-03
RMM:   6    -0.585835835986E+03    0.68188E-06   -0.12955E-06  5081   0.432E-03
   8 F= -.58583584E+03 E0= -.58583720E+03  d E =-.880192E-02
 curvature:  -3.19 expect dE=-0.198E-02 dE for cont linesearch -0.168E-06
 trial: gam= 0.35227 g(F)=  0.619E-03 g(S)=  0.000E+00 ort =-0.114E-04 (trialstep = 0.227E+01)
 search vector abs. value=  0.918E-03
 bond charge predicted
       N       E                     dE             d eps       ncg     rms          rms(c)
DAV:   1    -0.585836651102E+03   -0.81443E-03   -0.74078E-02  8600   0.485E-01    0.670E-02
RMM:   2    -0.585836736121E+03   -0.85019E-04   -0.11339E-03  9879   0.882E-02    0.487E-02
RMM:   3    -0.585836978278E+03   -0.24216E-03   -0.43577E-04 10868   0.540E-02    0.126E-01
RMM:   4    -0.585836798418E+03    0.17986E-03   -0.19825E-04  9679   0.414E-02    0.699E-02
RMM:   5    -0.585836740359E+03    0.58058E-04   -0.92955E-05  8901   0.325E-02    0.193E-02
RMM:   6    -0.585836744903E+03   -0.45434E-05   -0.47732E-05  9499   0.149E-02    0.252E-02
RMM:   7    -0.585836738972E+03    0.59307E-05   -0.13968E-05  7524   0.110E-02    0.106E-02
RMM:   8    -0.585836738031E+03    0.94157E-06   -0.81190E-06  6850   0.668E-03
   9 F= -.58583674E+03 E0= -.58583810E+03  d E =-.902045E-03
 trial-energy change:   -0.000902  1 .order   -0.000896   -0.001395   -0.000397
 step:   3.1237(harm=  3.1674)  dis= 0.01052  next Energy=  -585.836813 (dE=-0.977E-03)
 bond charge predicted
       N       E                     dE             d eps       ncg     rms          rms(c)
DAV:   1    -0.585836807073E+03   -0.68101E-04   -0.10589E-02  8880   0.184E-01    0.258E-02
RMM:   2    -0.585836822196E+03   -0.15123E-04   -0.18606E-04  9817   0.348E-02    0.207E-02
RMM:   3    -0.585836837097E+03   -0.14901E-04   -0.60753E-05  9081   0.249E-02    0.385E-02
RMM:   4    -0.585836826978E+03    0.10118E-04   -0.26984E-05  8419   0.161E-02    0.207E-02
RMM:   5    -0.585836822938E+03    0.40402E-05   -0.10241E-05  6831   0.108E-02    0.962E-03
RMM:   6    -0.585836822785E+03    0.15345E-06   -0.43041E-06  6059   0.576E-03
  10 F= -.58583682E+03 E0= -.58583818E+03  d E =-.986799E-03
 curvature:  -2.36 expect dE=-0.732E-03 dE for cont linesearch -0.388E-06
 trial: gam= 0.51433 g(F)=  0.311E-03 g(S)=  0.000E+00 ort = 0.123E-04 (trialstep = 0.244E+01)
 search vector abs. value=  0.566E-03
 bond charge predicted
       N       E                     dE             d eps       ncg     rms          rms(c)
DAV:   1    -0.585837434826E+03   -0.61189E-03   -0.51266E-02  8536   0.404E-01    0.463E-02
RMM:   2    -0.585837524838E+03   -0.90012E-04   -0.62471E-04 10484   0.655E-02    0.537E-02
RMM:   3    -0.585837542998E+03   -0.18160E-04   -0.15378E-04 10406   0.338E-02    0.576E-02
RMM:   4    -0.585837548678E+03   -0.56807E-05   -0.10792E-04  9548   0.284E-02    0.563E-02
RMM:   5    -0.585837509728E+03    0.38950E-04   -0.53708E-05  8562   0.264E-02    0.132E-02
RMM:   6    -0.585837511256E+03   -0.15281E-05   -0.20026E-05  8145   0.104E-02    0.149E-02
RMM:   7    -0.585837509643E+03    0.16133E-05   -0.56901E-06  6198   0.796E-03    0.851E-03
RMM:   8    -0.585837509243E+03    0.39998E-06   -0.26094E-06  5701   0.507E-03
  11 F= -.58583751E+03 E0= -.58583888E+03  d E =-.686458E-03
 ZBRENT: can't locate minimum, use default step
 trial-energy change:   -0.000686  1 .order   -0.000683   -0.000773   -0.000594
 step:   9.7523(harm= 10.5644)  dis= 0.00434  next Energy=  -585.838497 (dE=-0.167E-02)
 bond charge predicted
       N       E                     dE             d eps       ncg     rms          rms(c)
DAV:   1    -0.585837960580E+03   -0.45094E-03   -0.46179E-01  8464   0.121E+00    0.136E-01
RMM:   2    -0.585838466629E+03   -0.50605E-03   -0.47746E-03 10350   0.180E-01    0.970E-02
RMM:   3    -0.585839034994E+03   -0.56836E-03   -0.18288E-03  9879   0.125E-01    0.197E-01
RMM:   4    -0.585838884068E+03    0.15093E-03   -0.64583E-04  9437   0.792E-02    0.156E-01
RMM:   5    -0.585838575127E+03    0.30894E-03   -0.27786E-04  9045   0.563E-02    0.437E-02
RMM:   6    -0.585838567562E+03    0.75645E-05   -0.14544E-04 10850   0.235E-02    0.348E-02
RMM:   7    -0.585838558543E+03    0.90193E-05   -0.41937E-05  8678   0.192E-02    0.213E-02
RMM:   8    -0.585838558263E+03    0.28048E-06   -0.23852E-05  7896   0.116E-02    0.178E-02
RMM:   9    -0.585838554724E+03    0.35385E-05   -0.72652E-06  6408   0.819E-03    0.533E-03
RMM:  10    -0.585838555186E+03   -0.46194E-06   -0.41025E-06  6091   0.403E-03
  12 F= -.58583856E+03 E0= -.58583995E+03  d E =-.173240E-02
 curvature:  -9.34 expect dE=-0.277E-03 dE for cont linesearch -0.277E-04
 ZBRENT: extrapolating
 opt :  11.2317  next Energy=  -585.838586 (dE=-0.176E-02)
 bond charge predicted
       N       E                     dE             d eps       ncg     rms          rms(c)
DAV:   1    -0.585838563386E+03   -0.86616E-05   -0.18950E-02  8968   0.246E-01    0.278E-02
RMM:   2    -0.585838588199E+03   -0.24814E-04   -0.22665E-04 10025   0.397E-02    0.215E-02
RMM:   3    -0.585838615984E+03   -0.27784E-04   -0.76200E-05  9872   0.250E-02    0.448E-02
RMM:   4    -0.585838608832E+03    0.71513E-05   -0.31869E-05  9158   0.156E-02    0.354E-02
RMM:   5    -0.585838592844E+03    0.15989E-04   -0.16270E-05  7814   0.138E-02    0.911E-03
RMM:   6    -0.585838592574E+03    0.26951E-06   -0.75130E-06  6765   0.594E-03
  13 F= -.58583859E+03 E0= -.58583999E+03  d E =-.176979E-02
 curvature: -10.21 expect dE=-0.265E-03 dE for cont linesearch -0.304E-06
 trial: gam= 0.00991 g(F)=  0.260E-04 g(S)=  0.000E+00 ort = 0.411E-05 (trialstep = 0.420E+01)
 search vector abs. value=  0.261E-04
 bond charge predicted
       N       E                     dE             d eps       ncg     rms          rms(c)
DAV:   1    -0.585838656199E+03   -0.63355E-04   -0.78131E-03  9048   0.156E-01    0.288E-02
RMM:   2    -0.585838660083E+03   -0.38835E-05   -0.16061E-04  9330   0.334E-02    0.219E-02
RMM:   3    -0.585838691411E+03   -0.31329E-04   -0.76774E-05  9851   0.248E-02    0.524E-02
RMM:   4    -0.585838670019E+03    0.21392E-04   -0.38826E-05  9387   0.172E-02    0.318E-02
RMM:   5    -0.585838657653E+03    0.12366E-04   -0.14720E-05  7662   0.126E-02    0.111E-02
RMM:   6    -0.585838656887E+03    0.76573E-06   -0.69914E-06  6651   0.661E-03
  14 F= -.58583866E+03 E0= -.58584005E+03  d E =-.643129E-04
 trial-energy change:   -0.000064  1 .order   -0.000061   -0.000109   -0.000013
 step:   4.7882(harm=  4.7882)  dis= 0.00514  next Energy=  -585.838655 (dE=-0.623E-04)
 reached required accuracy - stopping structural energy minimisation
 augmentation electrons   31.401274373083474     
 soft         electrons   251.69099284268663     
 augmentation electrons   31.401274373083474     
 soft         electrons   251.69099284268663     
 augmentation electrons   31.401274373083474     
 soft         electrons   251.69099284268663     
 augmentation electrons   31.401274373083474     
 soft         electrons   251.69099284268663     
 augmentation electrons   31.401274373083474     
 soft         electrons   251.69099284268663     
 augmentation electrons   31.401274373083474     
 soft         electrons   251.69099284268663     
 augmentation electrons   31.401274373083474     
 soft         electrons   251.69099284268663     
 augmentation electrons   31.401274373083474     
 soft         electrons   251.69099284268663     
 augmentation electrons   31.401274373083474     
 soft         electrons   251.69099284268663     
 augmentation electrons   31.401274373083474     
 soft         electrons   251.69099284268663     
 augmentation electrons   31.401274373083474     
 soft         electrons   251.69099284268663     
 augmentation electrons   31.401274373083474     
 soft         electrons   251.69099284268663     
 augmentation electrons   31.401274373083474     
 soft         electrons   251.69099284268663     
 augmentation electrons   31.401274373083474     
 soft         electrons   251.69099284268663     
 augmentation electrons   31.401274373083474     
 soft         electrons   251.69099284268663     
 augmentation electrons   31.401274373083474     
 soft         electrons   251.69099284268663     
 augmentation electrons   31.401274373083474     
 soft         electrons   251.69099284268663     
 augmentation electrons   31.401274373083474     
 soft         electrons   251.69099284268663     
 augmentation electrons   31.401274373083474     
 soft         electrons   251.69099284268663     
 augmentation electrons   31.401274373083474     
 soft         electrons   251.69099284268663     
 augmentation electrons   31.401274373083474     
 soft         electrons   251.69099284268663     
 augmentation electrons   31.401274373083474     
 soft         electrons   251.69099284268663     
 augmentation electrons   31.401274373083474     
 soft         electrons   251.69099284268663     
 augmentation electrons   31.401274373083474     
 soft         electrons   251.69099284268663     
 augmentation electrons   31.401274373083474     
 soft         electrons   251.69099284268663     
 augmentation electrons   31.401274373083474     
 soft         electrons   251.69099284268663     
 augmentation electrons   31.401274373083474     
 soft         electrons   251.69099284268663     
 augmentation electrons   31.401274373083474     
 soft         electrons   251.69099284268663     
 augmentation electrons   31.401274373083474     
 soft         electrons   251.69099284268663     
 augmentation electrons   31.401274373083474     
 soft         electrons   251.69099284268663     
 augmentation electrons   31.401274373083474     
 soft         electrons   251.69099284268663     
 augmentation electrons   31.401274373083474     
 soft         electrons   251.69099284268663     
 augmentation electrons   31.401274373083474     
 soft         electrons   251.69099284268663     
 augmentation electrons   31.401274373083474     
 soft         electrons   251.69099284268663     
 augmentation electrons   31.401274373083474     
 soft         electrons   251.69099284268663     
 augmentation electrons   31.401274373083474     
 soft         electrons   251.69099284268663     
 augmentation electrons   31.401274373083474     
 soft         electrons   251.69099284268663     
 augmentation electrons   31.401274373083474     
 soft         electrons   251.69099284268663     
 augmentation electrons   31.401274373083474     
 soft         electrons   251.69099284268663     
 augmentation electrons   31.401274373083474     
 soft         electrons   251.69099284268663     
 augmentation electrons   31.401274373083474     
 soft         electrons   251.69099284268663     
 augmentation electrons   31.401274373083474     
 soft         electrons   251.69099284268663     
 augmentation electrons   31.401274373083474     
 soft         electrons   251.69099284268663     
 augmentation electrons   31.401274373083474     
 soft         electrons   251.69099284268663     
 augmentation electrons   31.401274373083474     
 soft         electrons   251.69099284268663     
 augmentation electrons   31.401274373083474     
 soft         electrons   251.69099284268663     
 augmentation electrons   31.401274373083474     
 soft         electrons   251.69099284268663     
 augmentation electrons   31.401274373083474     
 soft         electrons   251.69099284268663     
 augmentation electrons   31.401274373083474     
 soft         electrons   251.69099284268663     
 augmentation electrons   31.401274373083474     
 soft         electrons   251.69099284268663     
 augmentation electrons   31.401274373083474     
 soft         electrons   251.69099284268663     
 augmentation electrons   31.401274373083474     
 soft         electrons   251.69099284268663     
 augmentation electrons   31.401274373083474     
 soft         electrons   251.69099284268663     
 augmentation electrons   31.401274373083474     
 soft         electrons   251.69099284268663     
 augmentation electrons   31.401274373083474     
 soft         electrons   251.69099284268663     
 augmentation electrons   31.401274373083474     
 soft         electrons   251.69099284268663     
 augmentation electrons   31.401274373083474     
 soft         electrons   251.69099284268663     
 augmentation electrons   31.401274373083474     
 soft         electrons   251.69099284268663     
 augmentation electrons   31.401274373083474     
 soft         electrons   251.69099284268663     
 augmentation electrons   31.401274373083474     
 soft         electrons   251.69099284268663     
 augmentation electrons   31.401274373083474     
 soft         electrons   251.69099284268663     
 augmentation electrons   31.401274373083474     
 soft         electrons   251.69099284268663     
 augmentation electrons   31.401274373083474     
 soft         electrons   251.69099284268663     
 augmentation electrons   31.401274373083474     
 soft         electrons   251.69099284268663     
 augmentation electrons   31.401274373083474     
 soft         electrons   251.69099284268663     
 augmentation electrons   31.401274373083474     
 soft         electrons   251.69099284268663     
 augmentation electrons   31.401274373083474     
 soft         electrons   251.69099284268663     
 augmentation electrons   31.401274373083474     
 soft         electrons   251.69099284268663     
 augmentation electrons   31.401274373083474     
 soft         electrons   251.69099284268663     
 augmentation electrons   31.401274373083474     
 soft         electrons   251.69099284268663     
 augmentation electrons   31.401274373083474     
 soft         electrons   251.69099284268663     
 augmentation electrons   31.401274373083474     
 soft         electrons   251.69099284268663     
 total        electrons   283.09226721577011     
 total        electrons   283.09226721577011     
 total        electrons   283.09226721577011     
 total        electrons   283.09226721577011     
 total        electrons   283.09226721577011     
 total        electrons   283.09226721577011     
 total        electrons   283.09226721577011     
 total        electrons   283.09226721577011     
 total        electrons   283.09226721577011     
 total        electrons   283.09226721577011     
 total        electrons   283.09226721577011     
 total        electrons   283.09226721577011     
 total        electrons   283.09226721577011     
 total        electrons   283.09226721577011     
 total        electrons   283.09226721577011     
 total        electrons   283.09226721577011     
 total        electrons   283.09226721577011     
 total        electrons   283.09226721577011     
 total        electrons   283.09226721577011     
 total        electrons   283.09226721577011     
 total        electrons   283.09226721577011     
 total        electrons   283.09226721577011     
 total        electrons   283.09226721577011     
 total        electrons   283.09226721577011     
 total        electrons   283.09226721577011     
 total        electrons   283.09226721577011     
 total        electrons   283.09226721577011     
 total        electrons   283.09226721577011     
 total        electrons   283.09226721577011     
 total        electrons   283.09226721577011     
 total        electrons   283.09226721577011     
 total        electrons   283.09226721577011     
 total        electrons   283.09226721577011     
 total        electrons   283.09226721577011     
 total        electrons   283.09226721577011     
 total        electrons   283.09226721577011     
 total        electrons   283.09226721577011     
 total        electrons   283.09226721577011     
 total        electrons   283.09226721577011     
 total        electrons   283.09226721577011     
 total        electrons   283.09226721577011     
 total        electrons   283.09226721577011     
 total        electrons   283.09226721577011     
 total        electrons   283.09226721577011     
 total        electrons   283.09226721577011     
 total        electrons   283.09226721577011     
 total        electrons   283.09226721577011     
 total        electrons   283.09226721577011     
 total        electrons   283.09226721577011     
 total        electrons   283.09226721577011     
 total        electrons   283.09226721577011     
 total        electrons   283.09226721577011     
 total        electrons   283.09226721577011     
 total        electrons   283.09226721577011     
 total        electrons   283.09226721577011     
 total        electrons   283.09226721577011     
 total        electrons   283.09226721577011     
 total        electrons   283.09226721577011     
 total        electrons   283.09226721577011     
 total        electrons   283.09226721577011     
 total        electrons   283.09226721577011     
 total        electrons   283.09226721577011     
 total        electrons   283.09226721577011     
 total        electrons   283.09226721577011     
 total        electrons   283.09226721577011     
 total        electrons   283.09226721577011     
 total        electrons   283.09226721577011     
 total        electrons   283.09226721577011     
 total        electrons   283.09226721577011     
 total        electrons   283.09226721577011     
 total        electrons   283.09226721577011     
 total        electrons   283.09226721577011     
Note: The following floating-point exceptions are signalling: IEEE_OVERFLOW_FLAG
Note: The following floating-point exceptions are signalling: IEEE_OVERFLOW_FLAG
Note: The following floating-point exceptions are signalling: IEEE_OVERFLOW_FLAG
Note: The following floating-point exceptions are signalling: IEEE_OVERFLOW_FLAG
Note: The following floating-point exceptions are signalling: IEEE_OVERFLOW_FLAG
Note: The following floating-point exceptions are signalling: IEEE_OVERFLOW_FLAG
Note: The following floating-point exceptions are signalling: IEEE_OVERFLOW_FLAG
Note: The following floating-point exceptions are signalling: IEEE_OVERFLOW_FLAG
Note: The following floating-point exceptions are signalling: IEEE_OVERFLOW_FLAG
Note: The following floating-point exceptions are signalling: IEEE_OVERFLOW_FLAG
Note: The following floating-point exceptions are signalling: IEEE_OVERFLOW_FLAG
Note: The following floating-point exceptions are signalling: IEEE_OVERFLOW_FLAG
Note: The following floating-point exceptions are signalling: IEEE_OVERFLOW_FLAG
Note: The following floating-point exceptions are signalling: IEEE_OVERFLOW_FLAG
Note: The following floating-point exceptions are signalling: IEEE_OVERFLOW_FLAG
Note: The following floating-point exceptions are signalling: IEEE_OVERFLOW_FLAG
Note: The following floating-point exceptions are signalling: IEEE_OVERFLOW_FLAG
Note: The following floating-point exceptions are signalling: IEEE_OVERFLOW_FLAG
Note: The following floating-point exceptions are signalling: IEEE_OVERFLOW_FLAG
Note: The following floating-point exceptions are signalling: IEEE_OVERFLOW_FLAG
Note: The following floating-point exceptions are signalling: IEEE_OVERFLOW_FLAG
Note: The following floating-point exceptions are signalling: IEEE_OVERFLOW_FLAG
Note: The following floating-point exceptions are signalling: IEEE_OVERFLOW_FLAG
Note: The following floating-point exceptions are signalling: IEEE_OVERFLOW_FLAG
Note: The following floating-point exceptions are signalling: IEEE_OVERFLOW_FLAG
Note: The following floating-point exceptions are signalling: IEEE_OVERFLOW_FLAG
Note: The following floating-point exceptions are signalling: IEEE_OVERFLOW_FLAG
Note: The following floating-point exceptions are signalling: IEEE_OVERFLOW_FLAG
Note: The following floating-point exceptions are signalling: IEEE_OVERFLOW_FLAG
Note: The following floating-point exceptions are signalling: IEEE_OVERFLOW_FLAG
Note: The following floating-point exceptions are signalling: IEEE_OVERFLOW_FLAG
Note: The following floating-point exceptions are signalling: IEEE_OVERFLOW_FLAG
Note: The following floating-point exceptions are signalling: IEEE_OVERFLOW_FLAG
Note: The following floating-point exceptions are signalling: IEEE_OVERFLOW_FLAG
Note: The following floating-point exceptions are signalling: IEEE_OVERFLOW_FLAG
Note: The following floating-point exceptions are signalling: IEEE_OVERFLOW_FLAG
Note: The following floating-point exceptions are signalling: IEEE_OVERFLOW_FLAG
Note: The following floating-point exceptions are signalling: IEEE_OVERFLOW_FLAG
Note: The following floating-point exceptions are signalling: IEEE_OVERFLOW_FLAG
Note: The following floating-point exceptions are signalling: IEEE_OVERFLOW_FLAG
Note: The following floating-point exceptions are signalling: IEEE_OVERFLOW_FLAG
Note: The following floating-point exceptions are signalling: IEEE_OVERFLOW_FLAG
Note: The following floating-point exceptions are signalling: IEEE_OVERFLOW_FLAG
Note: The following floating-point exceptions are signalling: IEEE_OVERFLOW_FLAG
Note: The following floating-point exceptions are signalling: IEEE_OVERFLOW_FLAG
Note: The following floating-point exceptions are signalling: IEEE_OVERFLOW_FLAG
Note: The following floating-point exceptions are signalling: IEEE_OVERFLOW_FLAG
Note: The following floating-point exceptions are signalling: IEEE_OVERFLOW_FLAG
Note: The following floating-point exceptions are signalling: IEEE_OVERFLOW_FLAG
Note: The following floating-point exceptions are signalling: IEEE_OVERFLOW_FLAG
Note: The following floating-point exceptions are signalling: IEEE_OVERFLOW_FLAG
Note: The following floating-point exceptions are signalling: IEEE_OVERFLOW_FLAG
Note: The following floating-point exceptions are signalling: IEEE_OVERFLOW_FLAG
Note: The following floating-point exceptions are signalling: IEEE_OVERFLOW_FLAG
Note: The following floating-point exceptions are signalling: IEEE_OVERFLOW_FLAG
Note: The following floating-point exceptions are signalling: IEEE_OVERFLOW_FLAG
Note: The following floating-point exceptions are signalling: IEEE_OVERFLOW_FLAG
Note: The following floating-point exceptions are signalling: IEEE_OVERFLOW_FLAG
Note: The following floating-point exceptions are signalling: IEEE_OVERFLOW_FLAG
Note: The following floating-point exceptions are signalling: IEEE_OVERFLOW_FLAG
Note: The following floating-point exceptions are signalling: IEEE_OVERFLOW_FLAG
Note: The following floating-point exceptions are signalling: IEEE_OVERFLOW_FLAG
Note: The following floating-point exceptions are signalling: IEEE_OVERFLOW_FLAG
Note: The following floating-point exceptions are signalling: IEEE_OVERFLOW_FLAG
Note: The following floating-point exceptions are signalling: IEEE_OVERFLOW_FLAG
Note: The following floating-point exceptions are signalling: IEEE_OVERFLOW_FLAG
Note: The following floating-point exceptions are signalling: IEEE_OVERFLOW_FLAG
Note: The following floating-point exceptions are signalling: IEEE_OVERFLOW_FLAG
Note: The following floating-point exceptions are signalling: IEEE_OVERFLOW_FLAG
Note: The following floating-point exceptions are signalling: IEEE_OVERFLOW_FLAG
Note: The following floating-point exceptions are signalling: IEEE_OVERFLOW_FLAG
Note: The following floating-point exceptions are signalling: IEEE_OVERFLOW_FLAG
