   72   72   40    1
  0.2168974E+02  0.1053953E-08  0.6141200E-09  0.2412750E-08  0.5000000E-15
   1.0000000000000000E-004
  CAR 
 Name                                    
    267     23    176

  0.3742002E-15  0.3742002E-15  0.1262379E-14  0.2222222E-01
    1      -13.873187   1.000000
    2      -12.823723   1.000000
    3      -12.605625   1.000000
    4      -12.438906   1.000000
    5      -11.862065   1.000000
    6      -11.676474   1.000000
    7      -11.607877   1.000000
    8      -11.330238   1.000000
    9      -11.299123   1.000000
   10      -11.185213   1.000000
   11      -11.086347   1.000000
   12      -10.910648   1.000000
   13      -10.683910   1.000000
   14      -10.374828   1.000000
   15      -10.258797   1.000000
   16      -10.186653   1.000000
   17      -10.047374   1.000000
   18      -10.032496   1.000000
   19       -9.777802   1.000000
   20       -9.729579   1.000000
   21       -9.460862   1.000000
   22       -9.443077   1.000000
   23       -9.371461   1.000000
   24       -9.203844   1.000000
   25       -8.906156   1.000000
   26       -8.834305   1.000000
   27       -8.605673   1.000000
   28       -8.340051   1.000000
   29       -8.247566   1.000000
   30       -8.134639   1.000000
   31       -7.974067   1.000000
   32       -7.946641   1.000000
   33       -7.592292   1.000000
   34       -7.417798   1.000000
   35       -7.349000   1.000000
   36       -7.195768   1.000000
   37       -7.105322   1.000000
   38       -6.872803   1.000000
   39       -6.829561   1.000000
   40       -6.797170   1.000000
   41       -6.683005   1.000000
   42       -6.630450   1.000000
   43       -6.457001   1.000000
   44       -6.393915   1.000000
   45       -6.227502   1.000000
   46       -6.151170   1.000000
   47       -6.126617   1.000000
   48       -6.072396   1.000000
   49       -6.009675   1.000000
   50       -5.895266   1.000000
   51       -5.789090   1.000000
   52       -5.769096   1.000000
   53       -5.587773   1.000000
   54       -5.552088   1.000000
   55       -5.522451   1.000000
   56       -5.485282   1.000000
   57       -5.306798   1.000000
   58       -5.290120   1.000000
   59       -5.200020   1.000000
   60       -5.155622   1.000000
   61       -5.097260   1.000000
   62       -5.048074   1.000000
   63       -4.836922   1.000000
   64       -4.744569   1.000000
   65       -4.703998   1.000000
   66       -4.676624   1.000000
   67       -4.594473   1.000000
   68       -4.574342   1.000000
   69       -4.445823   1.000000
   70       -4.403969   1.000000
   71       -4.365355   1.000000
   72       -4.264522   1.000000
   73       -4.213000   1.000000
   74       -4.132847   1.000000
   75       -4.104808   1.000000
   76       -4.050656   1.000000
   77       -3.970299   1.000000
   78       -3.949750   1.000000
   79       -3.904770   1.000000
   80       -3.813027   1.000000
   81       -3.769202   1.000000
   82       -3.668517   1.000000
   83       -3.646170   1.000000
   84       -3.612111   1.000000
   85       -3.536047   1.000000
   86       -3.489453   1.000000
   87       -3.383403   1.000000
   88       -3.352817   1.000000
   89       -3.313324   1.000000
   90       -3.208507   1.000000
   91       -3.141038   1.000000
   92       -3.081371   1.000000
   93       -3.022409   1.000000
   94       -2.929374   1.000000
   95       -2.847030   1.000000
   96       -2.799997   1.000000
   97       -2.654690   1.000000
   98       -2.551745   1.000000
   99       -2.548795   1.000000
  100       -2.479095   1.000000
  101       -2.460574   1.000000
  102       -2.346512   1.000000
  103       -2.315532   1.000000
  104       -2.307748   1.000000
  105       -2.270798   1.000000
  106       -2.220008   1.000000
  107       -2.180289   1.000000
  108       -2.118612   1.000000
  109       -2.074131   1.000000
  110       -1.964759   1.000000
  111       -1.898237   1.000000
  112       -1.864365   1.000000
  113       -1.767656   1.000000
  114       -1.724721   1.000000
  115       -1.584051   1.000000
  116       -1.521951   1.000000
  117       -1.486940   1.000000
  118       -1.285395   1.000000
  119       -1.190769   1.000000
  120       -1.133002   1.000000
  121       -1.097052   1.000000
  122       -1.002707   1.000000
  123       -0.775949   1.000000
  124       -0.649119   1.000000
  125       -0.542853   1.000017
  126       -0.507066   1.000049
  127       -0.442018   1.000290
  128       -0.316134   1.004621
  129       -0.175500   1.029556
  130       -0.153488   1.033546
  131       -0.055604   1.003152
  132        0.021590   0.853564
  133        0.051417   0.757137
  134        0.098388   0.573048
  135        0.180116   0.242559
  136        0.256725   0.038391
  137        0.270162   0.017413
  138        0.296785  -0.012305
  139        0.383446  -0.033755
  140        0.554306  -0.004083
  141        0.595048  -0.001815
  142        0.615669  -0.001159
  143        0.692249  -0.000177
  144        0.715769  -0.000093
  145        0.809235  -0.000005
  146        0.931056  -0.000000
  147        0.970479  -0.000000
  148        1.014830  -0.000000
  149        1.054246  -0.000000
  150        1.103960  -0.000000
  151        1.139521  -0.000000
  152        1.198237  -0.000000
  153        1.217723  -0.000000
  154        1.238063  -0.000000
  155        1.245093  -0.000000
  156        1.276209  -0.000000
  157        1.370873  -0.000000
  158        1.397693  -0.000000
  159        1.430745  -0.000000
  160        1.477915  -0.000000
  161        1.495891  -0.000000
  162        1.503583  -0.000000
  163        1.517028  -0.000000
  164        1.544676  -0.000000
  165        1.579825  -0.000000
  166        1.625859  -0.000000
  167        1.690185  -0.000000
  168        1.720100  -0.000000
  169        1.765066  -0.000000
  170        1.804165  -0.000000
  171        1.887142  -0.000000
  172        1.924239  -0.000000
  173        1.971343  -0.000000
  174        1.996321  -0.000000
  175        2.091363  -0.000000
  176        2.204658  -0.000000

  0.2000000E+00  0.3742002E-15  0.1262379E-14  0.4444444E-01
    1      -13.846275   1.000000
    2      -12.946135   1.000000
    3      -12.707096   1.000000
    4      -12.136085   1.000000
    5      -11.961705   1.000000
    6      -11.860734   1.000000
    7      -11.356000   1.000000
    8      -11.315762   1.000000
    9      -11.211484   1.000000
   10      -11.128437   1.000000
   11      -11.054314   1.000000
   12      -10.912185   1.000000
   13      -10.663600   1.000000
   14      -10.525832   1.000000
   15      -10.394238   1.000000
   16      -10.214373   1.000000
   17      -10.174552   1.000000
   18      -10.070848   1.000000
   19       -9.824961   1.000000
   20       -9.716637   1.000000
   21       -9.510713   1.000000
   22       -9.466079   1.000000
   23       -9.318208   1.000000
   24       -9.158112   1.000000
   25       -8.902800   1.000000
   26       -8.784152   1.000000
   27       -8.385202   1.000000
   28       -8.273098   1.000000
   29       -8.173044   1.000000
   30       -8.066844   1.000000
   31       -8.016424   1.000000
   32       -7.917755   1.000000
   33       -7.530221   1.000000
   34       -7.448925   1.000000
   35       -7.404990   1.000000
   36       -7.231495   1.000000
   37       -7.174380   1.000000
   38       -6.944281   1.000000
   39       -6.842807   1.000000
   40       -6.813964   1.000000
   41       -6.776291   1.000000
   42       -6.631731   1.000000
   43       -6.592010   1.000000
   44       -6.474390   1.000000
   45       -6.334205   1.000000
   46       -6.206358   1.000000
   47       -6.044830   1.000000
   48       -5.948488   1.000000
   49       -5.909648   1.000000
   50       -5.882076   1.000000
   51       -5.811595   1.000000
   52       -5.760030   1.000000
   53       -5.719958   1.000000
   54       -5.506961   1.000000
   55       -5.468171   1.000000
   56       -5.411359   1.000000
   57       -5.323983   1.000000
   58       -5.238637   1.000000
   59       -5.154908   1.000000
   60       -5.105056   1.000000
   61       -5.035971   1.000000
   62       -4.969864   1.000000
   63       -4.924309   1.000000
   64       -4.791160   1.000000
   65       -4.696289   1.000000
   66       -4.635328   1.000000
   67       -4.600913   1.000000
   68       -4.517777   1.000000
   69       -4.438610   1.000000
   70       -4.395692   1.000000
   71       -4.344773   1.000000
   72       -4.253618   1.000000
   73       -4.177399   1.000000
   74       -4.134450   1.000000
   75       -4.117557   1.000000
   76       -4.026802   1.000000
   77       -3.982516   1.000000
   78       -3.960348   1.000000
   79       -3.929766   1.000000
   80       -3.840368   1.000000
   81       -3.820114   1.000000
   82       -3.752862   1.000000
   83       -3.695752   1.000000
   84       -3.636303   1.000000
   85       -3.517209   1.000000
   86       -3.466154   1.000000
   87       -3.460341   1.000000
   88       -3.317513   1.000000
   89       -3.305385   1.000000
   90       -3.227839   1.000000
   91       -3.133384   1.000000
   92       -3.115830   1.000000
   93       -2.993235   1.000000
   94       -2.903061   1.000000
   95       -2.843561   1.000000
   96       -2.792382   1.000000
   97       -2.680742   1.000000
   98       -2.643911   1.000000
   99       -2.583955   1.000000
  100       -2.477035   1.000000
  101       -2.438112   1.000000
  102       -2.418385   1.000000
  103       -2.342902   1.000000
  104       -2.304081   1.000000
  105       -2.239432   1.000000
  106       -2.195651   1.000000
  107       -2.108174   1.000000
  108       -2.084305   1.000000
  109       -1.981635   1.000000
  110       -1.944387   1.000000
  111       -1.869088   1.000000
  112       -1.787700   1.000000
  113       -1.711674   1.000000
  114       -1.670379   1.000000
  115       -1.567932   1.000000
  116       -1.521766   1.000000
  117       -1.465139   1.000000
  118       -1.269606   1.000000
  119       -1.192784   1.000000
  120       -1.142716   1.000000
  121       -1.107152   1.000000
  122       -1.056205   1.000000
  123       -0.851545   1.000000
  124       -0.689026   1.000000
  125       -0.643149   1.000001
  126       -0.532788   1.000023
  127       -0.500610   1.000059
  128       -0.425869   1.000435
  129       -0.266024   1.010616
  130       -0.182138   1.028126
  131       -0.079660   1.022563
  132       -0.018502   0.949386
  133        0.085729   0.625349
  134        0.115516   0.500879
  135        0.135155   0.418207
  136        0.221525   0.114390
  137        0.305874  -0.019233
  138        0.388416  -0.033020
  139        0.413204  -0.028210
  140        0.512824  -0.008376
  141        0.606858  -0.001408
  142        0.636599  -0.000717
  143        0.697841  -0.000153
  144        0.758540  -0.000027
  145        0.874691  -0.000001
  146        0.910071  -0.000000
  147        0.964023  -0.000000
  148        1.039685  -0.000000
  149        1.050402  -0.000000
  150        1.117225  -0.000000
  151        1.175711  -0.000000
  152        1.197304  -0.000000
  153        1.228549  -0.000000
  154        1.296888  -0.000000
  155        1.311869  -0.000000
  156        1.369508  -0.000000
  157        1.388166  -0.000000
  158        1.413888  -0.000000
  159        1.445019  -0.000000
  160        1.486164  -0.000000
  161        1.523206  -0.000000
  162        1.546047  -0.000000
  163        1.562445  -0.000000
  164        1.583800  -0.000000
  165        1.600148  -0.000000
  166        1.662791  -0.000000
  167        1.682084  -0.000000
  168        1.716406  -0.000000
  169        1.745190  -0.000000
  170        1.798412  -0.000000
  171        1.880912  -0.000000
  172        1.910914  -0.000000
  173        1.974183  -0.000000
  174        2.000044  -0.000000
  175        2.061793  -0.000000
  176        2.152137  -0.000000

  0.4000000E+00  0.3742002E-15  0.1262379E-14  0.4444444E-01
    1      -13.792305   1.000000
    2      -13.145455   1.000000
    3      -12.619754   1.000000
    4      -12.302159   1.000000
    5      -11.858587   1.000000
    6      -11.570863   1.000000
    7      -11.393079   1.000000
    8      -11.318413   1.000000
    9      -11.089675   1.000000
   10      -11.061929   1.000000
   11      -10.932907   1.000000
   12      -10.907066   1.000000
   13      -10.704742   1.000000
   14      -10.614453   1.000000
   15      -10.510109   1.000000
   16      -10.463644   1.000000
   17      -10.181451   1.000000
   18      -10.104082   1.000000
   19      -10.070098   1.000000
   20       -9.859683   1.000000
   21       -9.486172   1.000000
   22       -9.343492   1.000000
   23       -9.252867   1.000000
   24       -9.114929   1.000000
   25       -8.971934   1.000000
   26       -8.685624   1.000000
   27       -8.233157   1.000000
   28       -8.103832   1.000000
   29       -7.993210   1.000000
   30       -7.950895   1.000000
   31       -7.848016   1.000000
   32       -7.730146   1.000000
   33       -7.616292   1.000000
   34       -7.545817   1.000000
   35       -7.408872   1.000000
   36       -7.396658   1.000000
   37       -7.287754   1.000000
   38       -7.206839   1.000000
   39       -7.059510   1.000000
   40       -6.884025   1.000000
   41       -6.815492   1.000000
   42       -6.731227   1.000000
   43       -6.538170   1.000000
   44       -6.496396   1.000000
   45       -6.273204   1.000000
   46       -6.214945   1.000000
   47       -6.056552   1.000000
   48       -6.010690   1.000000
   49       -5.908609   1.000000
   50       -5.895129   1.000000
   51       -5.781601   1.000000
   52       -5.693813   1.000000
   53       -5.573861   1.000000
   54       -5.517094   1.000000
   55       -5.463919   1.000000
   56       -5.400440   1.000000
   57       -5.327712   1.000000
   58       -5.297185   1.000000
   59       -5.179806   1.000000
   60       -5.058191   1.000000
   61       -4.916562   1.000000
   62       -4.903561   1.000000
   63       -4.812991   1.000000
   64       -4.736728   1.000000
   65       -4.674630   1.000000
   66       -4.612269   1.000000
   67       -4.515863   1.000000
   68       -4.490518   1.000000
   69       -4.416547   1.000000
   70       -4.391020   1.000000
   71       -4.318877   1.000000
   72       -4.278926   1.000000
   73       -4.168959   1.000000
   74       -4.128041   1.000000
   75       -4.104983   1.000000
   76       -4.068921   1.000000
   77       -4.042228   1.000000
   78       -3.973549   1.000000
   79       -3.919804   1.000000
   80       -3.897407   1.000000
   81       -3.887076   1.000000
   82       -3.803719   1.000000
   83       -3.761043   1.000000
   84       -3.612416   1.000000
   85       -3.594139   1.000000
   86       -3.497200   1.000000
   87       -3.444693   1.000000
   88       -3.324005   1.000000
   89       -3.299771   1.000000
   90       -3.267765   1.000000
   91       -3.101795   1.000000
   92       -3.074351   1.000000
   93       -3.023782   1.000000
   94       -3.015351   1.000000
   95       -2.885588   1.000000
   96       -2.782028   1.000000
   97       -2.768153   1.000000
   98       -2.715599   1.000000
   99       -2.541832   1.000000
  100       -2.503233   1.000000
  101       -2.460656   1.000000
  102       -2.422535   1.000000
  103       -2.331102   1.000000
  104       -2.223336   1.000000
  105       -2.197330   1.000000
  106       -2.137400   1.000000
  107       -2.105550   1.000000
  108       -2.014365   1.000000
  109       -1.884363   1.000000
  110       -1.874593   1.000000
  111       -1.819774   1.000000
  112       -1.675141   1.000000
  113       -1.645369   1.000000
  114       -1.561616   1.000000
  115       -1.544412   1.000000
  116       -1.473977   1.000000
  117       -1.422837   1.000000
  118       -1.274281   1.000000
  119       -1.218840   1.000000
  120       -1.195166   1.000000
  121       -1.115377   1.000000
  122       -1.064991   1.000000
  123       -0.944070   1.000000
  124       -0.799645   1.000000
  125       -0.734788   1.000000
  126       -0.665629   1.000000
  127       -0.651960   1.000000
  128       -0.518805   1.000034
  129       -0.430097   1.000392
  130       -0.272475   1.009628
  131       -0.057505   1.005088
  132       -0.048726   0.995523
  133        0.068673   0.693110
  134        0.086437   0.622462
  135        0.142021   0.389786
  136        0.231123   0.090575
  137        0.324350  -0.029044
  138        0.369546  -0.035172
  139        0.442855  -0.021426
  140        0.556947  -0.003885
  141        0.585191  -0.002229
  142        0.667049  -0.000341
  143        0.757606  -0.000028
  144        0.786303  -0.000011
  145        0.910519  -0.000000
  146        0.932705  -0.000000
  147        0.990821  -0.000000
  148        1.053520  -0.000000
  149        1.142029  -0.000000
  150        1.195178  -0.000000
  151        1.217824  -0.000000
  152        1.233860  -0.000000
  153        1.296513  -0.000000
  154        1.325987  -0.000000
  155        1.393975  -0.000000
  156        1.409707  -0.000000
  157        1.431909  -0.000000
  158        1.439890  -0.000000
  159        1.484885  -0.000000
  160        1.515666  -0.000000
  161        1.553646  -0.000000
  162        1.581746  -0.000000
  163        1.599011  -0.000000
  164        1.629055  -0.000000
  165        1.677673  -0.000000
  166        1.693691  -0.000000
  167        1.706147  -0.000000
  168        1.753570  -0.000000
  169        1.776232  -0.000000
  170        1.830861  -0.000000
  171        1.861121  -0.000000
  172        1.911088  -0.000000
  173        1.928113  -0.000000
  174        1.945765  -0.000000
  175        2.027298  -0.000000
  176        2.076903  -0.000000

  0.3742002E-15  0.1111111E+00  0.1262379E-14  0.4444444E-01
    1      -13.827457   1.000000
    2      -12.782502   1.000000
    3      -12.569680   1.000000
    4      -12.407391   1.000000
    5      -11.943839   1.000000
    6      -11.645768   1.000000
    7      -11.578920   1.000000
    8      -11.370538   1.000000
    9      -11.329437   1.000000
   10      -11.226645   1.000000
   11      -11.061858   1.000000
   12      -10.926513   1.000000
   13      -10.716182   1.000000
   14      -10.385807   1.000000
   15      -10.245330   1.000000
   16      -10.184368   1.000000
   17      -10.067097   1.000000
   18      -10.021846   1.000000
   19       -9.771712   1.000000
   20       -9.697542   1.000000
   21       -9.487909   1.000000
   22       -9.442880   1.000000
   23       -9.361861   1.000000
   24       -9.212167   1.000000
   25       -8.925957   1.000000
   26       -8.812883   1.000000
   27       -8.596252   1.000000
   28       -8.347062   1.000000
   29       -8.250963   1.000000
   30       -8.146756   1.000000
   31       -7.964615   1.000000
   32       -7.821505   1.000000
   33       -7.677502   1.000000
   34       -7.466753   1.000000
   35       -7.366677   1.000000
   36       -7.247324   1.000000
   37       -7.161952   1.000000
   38       -6.891578   1.000000
   39       -6.834300   1.000000
   40       -6.742841   1.000000
   41       -6.628463   1.000000
   42       -6.599250   1.000000
   43       -6.446432   1.000000
   44       -6.364862   1.000000
   45       -6.211104   1.000000
   46       -6.179371   1.000000
   47       -6.099703   1.000000
   48       -6.063195   1.000000
   49       -6.025447   1.000000
   50       -5.905615   1.000000
   51       -5.813764   1.000000
   52       -5.738660   1.000000
   53       -5.623303   1.000000
   54       -5.563477   1.000000
   55       -5.469119   1.000000
   56       -5.403749   1.000000
   57       -5.315646   1.000000
   58       -5.282630   1.000000
   59       -5.159951   1.000000
   60       -5.096373   1.000000
   61       -5.077989   1.000000
   62       -5.030950   1.000000
   63       -4.823114   1.000000
   64       -4.761849   1.000000
   65       -4.702777   1.000000
   66       -4.663747   1.000000
   67       -4.613026   1.000000
   68       -4.510005   1.000000
   69       -4.452352   1.000000
   70       -4.429238   1.000000
   71       -4.386550   1.000000
   72       -4.308666   1.000000
   73       -4.253006   1.000000
   74       -4.196876   1.000000
   75       -4.050499   1.000000
   76       -4.002630   1.000000
   77       -3.986623   1.000000
   78       -3.944682   1.000000
   79       -3.891854   1.000000
   80       -3.850886   1.000000
   81       -3.778817   1.000000
   82       -3.704595   1.000000
   83       -3.653861   1.000000
   84       -3.606970   1.000000
   85       -3.553181   1.000000
   86       -3.479652   1.000000
   87       -3.387926   1.000000
   88       -3.321598   1.000000
   89       -3.313707   1.000000
   90       -3.228387   1.000000
   91       -3.154685   1.000000
   92       -3.088734   1.000000
   93       -3.057924   1.000000
   94       -2.998932   1.000000
   95       -2.896341   1.000000
   96       -2.823361   1.000000
   97       -2.736580   1.000000
   98       -2.667808   1.000000
   99       -2.533327   1.000000
  100       -2.499474   1.000000
  101       -2.461698   1.000000
  102       -2.383214   1.000000
  103       -2.358907   1.000000
  104       -2.331209   1.000000
  105       -2.264764   1.000000
  106       -2.228433   1.000000
  107       -2.152971   1.000000
  108       -2.140378   1.000000
  109       -2.048283   1.000000
  110       -1.967359   1.000000
  111       -1.886116   1.000000
  112       -1.836793   1.000000
  113       -1.725486   1.000000
  114       -1.675990   1.000000
  115       -1.541448   1.000000
  116       -1.492407   1.000000
  117       -1.441973   1.000000
  118       -1.286778   1.000000
  119       -1.182062   1.000000
  120       -1.107882   1.000000
  121       -1.075048   1.000000
  122       -0.895997   1.000000
  123       -0.785762   1.000000
  124       -0.696605   1.000000
  125       -0.593962   1.000003
  126       -0.543788   1.000016
  127       -0.403376   1.000748
  128       -0.335163   1.003230
  129       -0.271394   1.009789
  130       -0.219075   1.019694
  131       -0.072421   1.017832
  132       -0.025896   0.962669
  133        0.061028   0.722119
  134        0.106519   0.538901
  135        0.194280   0.194324
  136        0.280347   0.004273
  137        0.323987  -0.028901
  138        0.360547  -0.035458
  139        0.424276  -0.025712
  140        0.481608  -0.013326
  141        0.594768  -0.001826
  142        0.660829  -0.000399
  143        0.680949  -0.000239
  144        0.770347  -0.000019
  145        0.792209  -0.000009
  146        0.875109  -0.000001
  147        0.981359  -0.000000
  148        1.018061  -0.000000
  149        1.029385  -0.000000
  150        1.087303  -0.000000
  151        1.144317  -0.000000
  152        1.166019  -0.000000
  153        1.213060  -0.000000
  154        1.263479  -0.000000
  155        1.293761  -0.000000
  156        1.362366  -0.000000
  157        1.373219  -0.000000
  158        1.395128  -0.000000
  159        1.409002  -0.000000
  160        1.422228  -0.000000
  161        1.450520  -0.000000
  162        1.486614  -0.000000
  163        1.534453  -0.000000
  164        1.541397  -0.000000
  165        1.601751  -0.000000
  166        1.621649  -0.000000
  167        1.645420  -0.000000
  168        1.694017  -0.000000
  169        1.753610  -0.000000
  170        1.847629  -0.000000
  171        1.889831  -0.000000
  172        1.932854  -0.000000
  173        1.950538  -0.000000
  174        2.045105  -0.000000
  175        2.116164  -0.000000
  176        2.177356  -0.000000

  0.2000000E+00  0.1111111E+00  0.1262379E-14  0.4444444E-01
    1      -13.800804   1.000000
    2      -12.906279   1.000000
    3      -12.668906   1.000000
    4      -12.103150   1.000000
    5      -11.949552   1.000000
    6      -11.923063   1.000000
    7      -11.409336   1.000000
    8      -11.349576   1.000000
    9      -11.185462   1.000000
   10      -11.152214   1.000000
   11      -11.029358   1.000000
   12      -10.934550   1.000000
   13      -10.689338   1.000000
   14      -10.512680   1.000000
   15      -10.396689   1.000000
   16      -10.222108   1.000000
   17      -10.160091   1.000000
   18      -10.088881   1.000000
   19       -9.816459   1.000000
   20       -9.709686   1.000000
   21       -9.513746   1.000000
   22       -9.469657   1.000000
   23       -9.313525   1.000000
   24       -9.167210   1.000000
   25       -8.899349   1.000000
   26       -8.775414   1.000000
   27       -8.377592   1.000000
   28       -8.280487   1.000000
   29       -8.191524   1.000000
   30       -8.086143   1.000000
   31       -8.002637   1.000000
   32       -7.787209   1.000000
   33       -7.599688   1.000000
   34       -7.530109   1.000000
   35       -7.398877   1.000000
   36       -7.279856   1.000000
   37       -7.194804   1.000000
   38       -6.939933   1.000000
   39       -6.883330   1.000000
   40       -6.777388   1.000000
   41       -6.723236   1.000000
   42       -6.603330   1.000000
   43       -6.534485   1.000000
   44       -6.461322   1.000000
   45       -6.351758   1.000000
   46       -6.248811   1.000000
   47       -6.101070   1.000000
   48       -5.996895   1.000000
   49       -5.902354   1.000000
   50       -5.854333   1.000000
   51       -5.770517   1.000000
   52       -5.719786   1.000000
   53       -5.679479   1.000000
   54       -5.515558   1.000000
   55       -5.482245   1.000000
   56       -5.404910   1.000000
   57       -5.250397   1.000000
   58       -5.202155   1.000000
   59       -5.150370   1.000000
   60       -5.093104   1.000000
   61       -4.994204   1.000000
   62       -4.944593   1.000000
   63       -4.895368   1.000000
   64       -4.808534   1.000000
   65       -4.700922   1.000000
   66       -4.590780   1.000000
   67       -4.581066   1.000000
   68       -4.490872   1.000000
   69       -4.459589   1.000000
   70       -4.403010   1.000000
   71       -4.354066   1.000000
   72       -4.279607   1.000000
   73       -4.238193   1.000000
   74       -4.192109   1.000000
   75       -4.092300   1.000000
   76       -4.046167   1.000000
   77       -3.985043   1.000000
   78       -3.947731   1.000000
   79       -3.925971   1.000000
   80       -3.850814   1.000000
   81       -3.782957   1.000000
   82       -3.765760   1.000000
   83       -3.709781   1.000000
   84       -3.622324   1.000000
   85       -3.561338   1.000000
   86       -3.480458   1.000000
   87       -3.416257   1.000000
   88       -3.354024   1.000000
   89       -3.299736   1.000000
   90       -3.235400   1.000000
   91       -3.174226   1.000000
   92       -3.088220   1.000000
   93       -3.061403   1.000000
   94       -2.948185   1.000000
   95       -2.887079   1.000000
   96       -2.829307   1.000000
   97       -2.751622   1.000000
   98       -2.644066   1.000000
   99       -2.618534   1.000000
  100       -2.535143   1.000000
  101       -2.472593   1.000000
  102       -2.428813   1.000000
  103       -2.368700   1.000000
  104       -2.280725   1.000000
  105       -2.219296   1.000000
  106       -2.170873   1.000000
  107       -2.131924   1.000000
  108       -2.086608   1.000000
  109       -2.019943   1.000000
  110       -1.999069   1.000000
  111       -1.838996   1.000000
  112       -1.760495   1.000000
  113       -1.676318   1.000000
  114       -1.626397   1.000000
  115       -1.555451   1.000000
  116       -1.486319   1.000000
  117       -1.427621   1.000000
  118       -1.294612   1.000000
  119       -1.229367   1.000000
  120       -1.146421   1.000000
  121       -1.118030   1.000000
  122       -0.977707   1.000000
  123       -0.791543   1.000000
  124       -0.735954   1.000000
  125       -0.629702   1.000001
  126       -0.597142   1.000003
  127       -0.460015   1.000181
  128       -0.327079   1.003771
  129       -0.309188   1.005237
  130       -0.222680   1.018897
  131       -0.101144   1.031811
  132       -0.033713   0.975275
  133        0.064764   0.708063
  134        0.114885   0.503550
  135        0.156550   0.331176
  136        0.227904   0.098303
  137        0.323026  -0.028513
  138        0.341247  -0.033805
  139        0.486395  -0.012466
  140        0.544761  -0.004864
  141        0.584136  -0.002277
  142        0.671592  -0.000304
  143        0.682812  -0.000228
  144        0.793202  -0.000009
  145        0.858351  -0.000001
  146        0.899215  -0.000000
  147        0.971687  -0.000000
  148        1.023648  -0.000000
  149        1.066503  -0.000000
  150        1.106956  -0.000000
  151        1.173641  -0.000000
  152        1.207063  -0.000000
  153        1.251118  -0.000000
  154        1.275496  -0.000000
  155        1.328596  -0.000000
  156        1.363486  -0.000000
  157        1.393305  -0.000000
  158        1.409891  -0.000000
  159        1.422924  -0.000000
  160        1.450831  -0.000000
  161        1.478080  -0.000000
  162        1.508481  -0.000000
  163        1.521965  -0.000000
  164        1.548696  -0.000000
  165        1.596437  -0.000000
  166        1.636053  -0.000000
  167        1.673814  -0.000000
  168        1.715958  -0.000000
  169        1.792478  -0.000000
  170        1.850461  -0.000000
  171        1.877169  -0.000000
  172        1.908485  -0.000000
  173        1.953761  -0.000000
  174        2.005008  -0.000000
  175        2.062911  -0.000000
  176        2.144857  -0.000000

  0.4000000E+00  0.1111111E+00  0.1262379E-14  0.4444444E-01
    1      -13.747384   1.000000
    2      -13.104530   1.000000
    3      -12.582398   1.000000
    4      -12.264379   1.000000
    5      -11.934264   1.000000
    6      -11.560958   1.000000
    7      -11.445850   1.000000
    8      -11.350358   1.000000
    9      -11.079115   1.000000
   10      -11.059173   1.000000
   11      -10.946619   1.000000