 running on   72 total cores
 distrk:  each k-point on   72 cores,    1 groups
 distr:  one band on    9 cores,    8 groups
 using from now: INCAR     
 vasp.5.4.4.18Apr17-6-g9f103f2a35 (build Dec  7 2020 12:43:57) complex           
 POSCAR found type information on POSCAR  Mo V  B  H 
 POSCAR found :  4 types and      72 ions
 scaLAPACK will be used
 LDA part: xc-table for Pade appr. of Perdew
 POSCAR, INCAR and KPOINTS ok, starting setup
 resort distribution
 resort distribution
 resort distribution
 resort distribution
 resort distribution
 resort distribution
 resort distribution
 resort distribution
 resort distribution
 resort distribution
 resort distribution
 resort distribution
 resort distribution
 resort distribution
 resort distribution
 resort distribution
 resort distribution
 resort distribution
 resort distribution
 resort distribution
 resort distribution
 resort distribution
 resort distribution
 resort distribution
 resort distribution
 resort distribution
 resort distribution
 resort distribution
 resort distribution
 resort distribution
 resort distribution
 resort distribution
 resort distribution
 resort distribution
 resort distribution
 resort distribution
 resort distribution
 resort distribution
 resort distribution
 resort distribution
 resort distribution
 resort distribution
 resort distribution
 resort distribution
 resort distribution
 resort distribution
 resort distribution
 resort distribution
 resort distribution
 resort distribution
 resort distribution
 resort distribution
 resort distribution
 resort distribution
 resort distribution
 resort distribution
 resort distribution
 resort distribution
 resort distribution
 resort distribution
 resort distribution
 resort distribution
 resort distribution
 resort distribution
 resort distribution
 resort distribution
 resort distribution
 resort distribution
 resort distribution
 resort distribution
 resort distribution
 resort distribution
 FFT: planning ...
 WAVECAR not read
 augmentation electrons   267.01690196156142     
 soft         electrons   0.0000000000000000     
 augmentation electrons   267.01690196156142     
 soft         electrons   0.0000000000000000     
 augmentation electrons   267.01690196156142     
 soft         electrons   0.0000000000000000     
 augmentation electrons   267.01690196156142     
 soft         electrons   0.0000000000000000     
 augmentation electrons   267.01690196156142     
 soft         electrons   0.0000000000000000     
 augmentation electrons   267.01690196156142     
 soft         electrons   0.0000000000000000     
 augmentation electrons   267.01690196156142     
 soft         electrons   0.0000000000000000     
 augmentation electrons   267.01690196156142     
 soft         electrons   0.0000000000000000     
 augmentation electrons   267.01690196156142     
 soft         electrons   0.0000000000000000     
 augmentation electrons   267.01690196156142     
 soft         electrons   0.0000000000000000     
 augmentation electrons   267.01690196156142     
 soft         electrons   0.0000000000000000     
 augmentation electrons   267.01690196156142     
 soft         electrons   0.0000000000000000     
 augmentation electrons   267.01690196156142     
 soft         electrons   0.0000000000000000     
 augmentation electrons   267.01690196156142     
 soft         electrons   0.0000000000000000     
 augmentation electrons   267.01690196156142     
 soft         electrons   0.0000000000000000     
 augmentation electrons   267.01690196156142     
 soft         electrons   0.0000000000000000     
 augmentation electrons   267.01690196156142     
 soft         electrons   0.0000000000000000     
 augmentation electrons   267.01690196156142     
 soft         electrons   0.0000000000000000     
 augmentation electrons   267.01690196156142     
 soft         electrons   0.0000000000000000     
 augmentation electrons   267.01690196156142     
 soft         electrons   0.0000000000000000     
 augmentation electrons   267.01690196156142     
 soft         electrons   0.0000000000000000     
 augmentation electrons   267.01690196156142     
 soft         electrons   0.0000000000000000     
 augmentation electrons   267.01690196156142     
 soft         electrons   0.0000000000000000     
 augmentation electrons   267.01690196156142     
 soft         electrons   0.0000000000000000     
 augmentation electrons   267.01690196156142     
 soft         electrons   0.0000000000000000     
 augmentation electrons   267.01690196156142     
 soft         electrons   0.0000000000000000     
 augmentation electrons   267.01690196156142     
 soft         electrons   0.0000000000000000     
 augmentation electrons   267.01690196156142     
 soft         electrons   0.0000000000000000     
 augmentation electrons   267.01690196156142     
 soft         electrons   0.0000000000000000     
 augmentation electrons   267.01690196156142     
 soft         electrons   0.0000000000000000     
 augmentation electrons   267.01690196156142     
 soft         electrons   0.0000000000000000     
 augmentation electrons   267.01690196156142     
 soft         electrons   0.0000000000000000     
 augmentation electrons   267.01690196156142     
 soft         electrons   0.0000000000000000     
 augmentation electrons   267.01690196156142     
 soft         electrons   0.0000000000000000     
 augmentation electrons   267.01690196156142     
 soft         electrons   0.0000000000000000     
 augmentation electrons   267.01690196156142     
 soft         electrons   0.0000000000000000     
 augmentation electrons   267.01690196156142     
 soft         electrons   0.0000000000000000     
 augmentation electrons   267.01690196156142     
 soft         electrons   0.0000000000000000     
 augmentation electrons   267.01690196156142     
 soft         electrons   0.0000000000000000     
 augmentation electrons   267.01690196156142     
 soft         electrons   0.0000000000000000     
 augmentation electrons   267.01690196156142     
 soft         electrons   0.0000000000000000     
 augmentation electrons   267.01690196156142     
 soft         electrons   0.0000000000000000     
 augmentation electrons   267.01690196156142     
 soft         electrons   0.0000000000000000     
 augmentation electrons   267.01690196156142     
 soft         electrons   0.0000000000000000     
 augmentation electrons   267.01690196156142     
 soft         electrons   0.0000000000000000     
 augmentation electrons   267.01690196156142     
 soft         electrons   0.0000000000000000     
 augmentation electrons   267.01690196156142     
 soft         electrons   0.0000000000000000     
 augmentation electrons   267.01690196156142     
 soft         electrons   0.0000000000000000     
 augmentation electrons   267.01690196156142     
 soft         electrons   0.0000000000000000     
 augmentation electrons   267.01690196156142     
 soft         electrons   0.0000000000000000     
 augmentation electrons   267.01690196156142     
 soft         electrons   0.0000000000000000     
 augmentation electrons   267.01690196156142     
 soft         electrons   0.0000000000000000     
 augmentation electrons   267.01690196156142     
 soft         electrons   0.0000000000000000     
 augmentation electrons   267.01690196156142     
 soft         electrons   0.0000000000000000     
 augmentation electrons   267.01690196156142     
 soft         electrons   0.0000000000000000     
 augmentation electrons   267.01690196156142     
 soft         electrons   0.0000000000000000     
 augmentation electrons   267.01690196156142     
 soft         electrons   0.0000000000000000     
 augmentation electrons   267.01690196156142     
 soft         electrons   0.0000000000000000     
 augmentation electrons   267.01690196156142     
 soft         electrons   0.0000000000000000     
 augmentation electrons   267.01690196156142     
 soft         electrons   0.0000000000000000     
 augmentation electrons   267.01690196156142     
 soft         electrons   0.0000000000000000     
 augmentation electrons   267.01690196156142     
 soft         electrons   0.0000000000000000     
 augmentation electrons   267.01690196156142     
 soft         electrons   0.0000000000000000     
 augmentation electrons   267.01690196156142     
 soft         electrons   0.0000000000000000     
 augmentation electrons   267.01690196156142     
 soft         electrons   0.0000000000000000     
 augmentation electrons   267.01690196156142     
 soft         electrons   0.0000000000000000     
 augmentation electrons   267.01690196156142     
 soft         electrons   0.0000000000000000     
 augmentation electrons   267.01690196156142     
 soft         electrons   0.0000000000000000     
 augmentation electrons   267.01690196156142     
 soft         electrons   0.0000000000000000     
 augmentation electrons   267.01690196156142     
 soft         electrons   0.0000000000000000     
 augmentation electrons   267.01690196156142     
 soft         electrons   0.0000000000000000     
 augmentation electrons   267.01690196156142     
 soft         electrons   0.0000000000000000     
 total        electrons   267.01690196156142     
 total        electrons   267.01690196156142     
 total        electrons   267.01690196156142     
 total        electrons   267.01690196156142     
 total        electrons   267.01690196156142     
 total        electrons   267.01690196156142     
 total        electrons   267.01690196156142     
 total        electrons   267.01690196156142     
 total        electrons   267.01690196156142     
 total        electrons   267.01690196156142     
 total        electrons   267.01690196156142     
 total        electrons   267.01690196156142     
 total        electrons   267.01690196156142     
 total        electrons   267.01690196156142     
 total        electrons   267.01690196156142     
 total        electrons   267.01690196156142     
 total        electrons   267.01690196156142     
 total        electrons   267.01690196156142     
 total        electrons   267.01690196156142     
 total        electrons   267.01690196156142     
 total        electrons   267.01690196156142     
 total        electrons   267.01690196156142     
 total        electrons   267.01690196156142     
 total        electrons   267.01690196156142     
 total        electrons   267.01690196156142     
 total        electrons   267.01690196156142     
 total        electrons   267.01690196156142     
 total        electrons   267.01690196156142     
 total        electrons   267.01690196156142     
 total        electrons   267.01690196156142     
 total        electrons   267.01690196156142     
 total        electrons   267.01690196156142     
 total        electrons   267.01690196156142     
 total        electrons   267.01690196156142     
 total        electrons   267.01690196156142     
 total        electrons   267.01690196156142     
 total        electrons   267.01690196156142     
 total        electrons   267.01690196156142     
 total        electrons   267.01690196156142     
 total        electrons   267.01690196156142     
 total        electrons   267.01690196156142     
 total        electrons   267.01690196156142     
 total        electrons   267.01690196156142     
 total        electrons   267.01690196156142     
 total        electrons   267.01690196156142     
 total        electrons   267.01690196156142     
 total        electrons   267.01690196156142     
 total        electrons   267.01690196156142     
 total        electrons   267.01690196156142     
 total        electrons   267.01690196156142     
 total        electrons   267.01690196156142     
 total        electrons   267.01690196156142     
 total        electrons   267.01690196156142     
 total        electrons   267.01690196156142     
 total        electrons   267.01690196156142     
 total        electrons   267.01690196156142     
 total        electrons   267.01690196156142     
 total        electrons   267.01690196156142     
 total        electrons   267.01690196156142     
 total        electrons   267.01690196156142     
 total        electrons   267.01690196156142     
 total        electrons   267.01690196156142     
 total        electrons   267.01690196156142     
 total        electrons   267.01690196156142     
 total        electrons   267.01690196156142     
 total        electrons   267.01690196156142     
 total        electrons   267.01690196156142     
 total        electrons   267.01690196156142     
 total        electrons   267.01690196156142     
 total        electrons   267.01690196156142     
 total        electrons   267.01690196156142     
 total        electrons   267.01690196156142     
 augmentation electrons   853.25631657386850     
 soft         electrons   0.0000000000000000     
 augmentation electrons   853.25631657386850     
 soft         electrons   0.0000000000000000     
 augmentation electrons   853.25631657386850     
 soft         electrons   0.0000000000000000     
 augmentation electrons   853.25631657386850     
 soft         electrons   0.0000000000000000     
 augmentation electrons   853.25631657386850     
 soft         electrons   0.0000000000000000     
 augmentation electrons   853.25631657386850     
 soft         electrons   0.0000000000000000     
 augmentation electrons   853.25631657386850     
 soft         electrons   0.0000000000000000     
 augmentation electrons   853.25631657386850     
 soft         electrons   0.0000000000000000     
 augmentation electrons   853.25631657386850     
 soft         electrons   0.0000000000000000     
 augmentation electrons   853.25631657386850     
 soft         electrons   0.0000000000000000     
 augmentation electrons   853.25631657386850     
 soft         electrons   0.0000000000000000     
 augmentation electrons   853.25631657386850     
 soft         electrons   0.0000000000000000     
 augmentation electrons   853.25631657386850     
 soft         electrons   0.0000000000000000     
 augmentation electrons   853.25631657386850     
 soft         electrons   0.0000000000000000     
 augmentation electrons   853.25631657386850     
 soft         electrons   0.0000000000000000     
 augmentation electrons   853.25631657386850     
 soft         electrons   0.0000000000000000     
 augmentation electrons   853.25631657386850     
 soft         electrons   0.0000000000000000     
 augmentation electrons   853.25631657386850     
 augmentation electrons   853.25631657386850     
 soft         electrons   0.0000000000000000     
 augmentation electrons   853.25631657386850     
 soft         electrons   0.0000000000000000     
 augmentation electrons   853.25631657386850     
 soft         electrons   0.0000000000000000     
 augmentation electrons   853.25631657386850     
 soft         electrons   0.0000000000000000     
 augmentation electrons   853.25631657386850     
 soft         electrons   0.0000000000000000     
 augmentation electrons   853.25631657386850     
 soft         electrons   0.0000000000000000     
 augmentation electrons   853.25631657386850     
 soft         electrons   0.0000000000000000     
 augmentation electrons   853.25631657386850     
 soft         electrons   0.0000000000000000     
 augmentation electrons   853.25631657386850     
 soft         electrons   0.0000000000000000     
 augmentation electrons   853.25631657386850     
 soft         electrons   0.0000000000000000     
 augmentation electrons   853.25631657386850     
 soft         electrons   0.0000000000000000     
 augmentation electrons   853.25631657386850     
 soft         electrons   0.0000000000000000     
 augmentation electrons   853.25631657386850     
 soft         electrons   0.0000000000000000     
 augmentation electrons   853.25631657386850     
 soft         electrons   0.0000000000000000     
 augmentation electrons   853.25631657386850     
 soft         electrons   0.0000000000000000     
 augmentation electrons   853.25631657386850     
 soft         electrons   0.0000000000000000     
 augmentation electrons   853.25631657386850     
 soft         electrons   0.0000000000000000     
 augmentation electrons   853.25631657386850     
 soft         electrons   0.0000000000000000     
 augmentation electrons   853.25631657386850     
 soft         electrons   0.0000000000000000     
 augmentation electrons   853.25631657386850     
 soft         electrons   0.0000000000000000     
 augmentation electrons   853.25631657386850     
 soft         electrons   0.0000000000000000     
 augmentation electrons   853.25631657386850     
 soft         electrons   0.0000000000000000     
 augmentation electrons   853.25631657386850     
 soft         electrons   0.0000000000000000     
 augmentation electrons   853.25631657386850     
 soft         electrons   0.0000000000000000     
 augmentation electrons   853.25631657386850     
 soft         electrons   0.0000000000000000     
 augmentation electrons   853.25631657386850     
 soft         electrons   0.0000000000000000     
 augmentation electrons   853.25631657386850     
 soft         electrons   0.0000000000000000     
 augmentation electrons   853.25631657386850     
 soft         electrons   0.0000000000000000     
 augmentation electrons   853.25631657386850     
 soft         electrons   0.0000000000000000     
 augmentation electrons   853.25631657386850     
 soft         electrons   0.0000000000000000     
 augmentation electrons   853.25631657386850     
 soft         electrons   0.0000000000000000     
 augmentation electrons   853.25631657386850     
 soft         electrons   0.0000000000000000     
 augmentation electrons   853.25631657386850     
 soft         electrons   0.0000000000000000     
 augmentation electrons   853.25631657386850     
 soft         electrons   0.0000000000000000     
 augmentation electrons   853.25631657386850     
 soft         electrons   0.0000000000000000     
 augmentation electrons   853.25631657386850     
 soft         electrons   0.0000000000000000     
 augmentation electrons   853.25631657386850     
 soft         electrons   0.0000000000000000     
 augmentation electrons   853.25631657386850     
 soft         electrons   0.0000000000000000     
 augmentation electrons   853.25631657386850     
 soft         electrons   0.0000000000000000     
 augmentation electrons   853.25631657386850     
 soft         electrons   0.0000000000000000     
 augmentation electrons   853.25631657386850     
 soft         electrons   0.0000000000000000     
 augmentation electrons   853.25631657386850     
 soft         electrons   0.0000000000000000     
 augmentation electrons   853.25631657386850     
 soft         electrons   0.0000000000000000     
 augmentation electrons   853.25631657386850     
 soft         electrons   0.0000000000000000     
 augmentation electrons   853.25631657386850     
 soft         electrons   0.0000000000000000     
 augmentation electrons   853.25631657386850     
 soft         electrons   0.0000000000000000     
 augmentation electrons   853.25631657386850     
 soft         electrons   0.0000000000000000     
 augmentation electrons   853.25631657386850     
 soft         electrons   0.0000000000000000     
 augmentation electrons   853.25631657386850     
 soft         electrons   0.0000000000000000     
 augmentation electrons   853.25631657386850     
 soft         electrons   0.0000000000000000     
 augmentation electrons   853.25631657386850     
 soft         electrons   0.0000000000000000     
 augmentation electrons   853.25631657386850     
 soft         electrons   0.0000000000000000     
 augmentation electrons   853.25631657386850     
 soft         electrons   0.0000000000000000     
 augmentation electrons   853.25631657386850     
 soft         electrons   0.0000000000000000     
 soft         electrons   0.0000000000000000     
 total        electrons   853.25631657386850     
 total        electrons   853.25631657386850     
 total        electrons   853.25631657386850     
 total        electrons   853.25631657386850     
 total        electrons   853.25631657386850     
 total        electrons   853.25631657386850     
 total        electrons   853.25631657386850     
 total        electrons   853.25631657386850     
 total        electrons   853.25631657386850     
 total        electrons   853.25631657386850     
 total        electrons   853.25631657386850     
 total        electrons   853.25631657386850     
 total        electrons   853.25631657386850     
 total        electrons   853.25631657386850     
 total        electrons   853.25631657386850     
 total        electrons   853.25631657386850     
 total        electrons   853.25631657386850     
 total        electrons   853.25631657386850     
 total        electrons   853.25631657386850     
 total        electrons   853.25631657386850     
 total        electrons   853.25631657386850     
 total        electrons   853.25631657386850     
 total        electrons   853.25631657386850     
 total        electrons   853.25631657386850     
 total        electrons   853.25631657386850     
 total        electrons   853.25631657386850     
 total        electrons   853.25631657386850     
 total        electrons   853.25631657386850     
 total        electrons   853.25631657386850     
 total        electrons   853.25631657386850     
 total        electrons   853.25631657386850     
 total        electrons   853.25631657386850     
 total        electrons   853.25631657386850     
 total        electrons   853.25631657386850     
 total        electrons   853.25631657386850     
 total        electrons   853.25631657386850     
 total        electrons   853.25631657386850     
 total        electrons   853.25631657386850     
 total        electrons   853.25631657386850     
 total        electrons   853.25631657386850     
 total        electrons   853.25631657386850     
 total        electrons   853.25631657386850     
 total        electrons   853.25631657386850     
 total        electrons   853.25631657386850     
 total        electrons   853.25631657386850     
 total        electrons   853.25631657386850     
 total        electrons   853.25631657386850     
 total        electrons   853.25631657386850     
 total        electrons   853.25631657386850     
 total        electrons   853.25631657386850     
 total        electrons   853.25631657386850     
 total        electrons   853.25631657386850     
 total        electrons   853.25631657386850     
 total        electrons   853.25631657386850     
 total        electrons   853.25631657386850     
 total        electrons   853.25631657386850     
 total        electrons   853.25631657386850     
 total        electrons   853.25631657386850     
 total        electrons   853.25631657386850     
 total        electrons   853.25631657386850     
 total        electrons   853.25631657386850     
 total        electrons   853.25631657386850     
 total        electrons   853.25631657386850     
 total        electrons   853.25631657386850     
 total        electrons   853.25631657386850     
 total        electrons   853.25631657386850     
 total        electrons   853.25631657386850     
 total        electrons   853.25631657386850     
 total        electrons   853.25631657386850     
 total        electrons   853.25631657386850     
 total        electrons   853.25631657386850     
 total        electrons   853.25631657386850     
 entering main loop
       N       E                     dE             d eps       ncg     rms          rms(c)
DAV:   1     0.228230113798E+04    0.22823E+04   -0.95288E+04  8096   0.123E+03
DAV:   2    -0.216210805742E+03   -0.24985E+04   -0.23131E+04  9280   0.302E+02
DAV:   3    -0.628843391570E+03   -0.41263E+03   -0.39326E+03 11488   0.143E+02
DAV:   4    -0.661783086318E+03   -0.32940E+02   -0.31658E+02 13048   0.452E+01
DAV:   5    -0.663553093153E+03   -0.17700E+01   -0.17194E+01 13816   0.103E+01    0.135E+02
RMM:   6    -0.624121978636E+03    0.39431E+02   -0.12314E+03 11392   0.918E+01    0.754E+01
RMM:   7    -0.730447130313E+03   -0.10633E+03   -0.40657E+02 10792   0.567E+01    0.553E+01
RMM:   8    -0.625205828372E+03    0.10524E+03   -0.20512E+02 11092   0.264E+01    0.439E+01
RMM:   9    -0.571047034268E+03    0.54159E+02   -0.45590E+01  9357   0.209E+01    0.270E+01
RMM:  10    -0.560366413059E+03    0.10681E+02   -0.45433E+01 10084   0.167E+01    0.210E+01
RMM:  11    -0.558598475612E+03    0.17679E+01   -0.87262E+00  8777   0.933E+00    0.174E+01
RMM:  12    -0.558195876218E+03    0.40260E+00   -0.46257E+00 10724   0.336E+00    0.153E+01
RMM:  13    -0.557972630367E+03    0.22325E+00   -0.50491E-01 11149   0.116E+00    0.144E+01
RMM:  14    -0.557837884375E+03    0.13475E+00   -0.12500E+00  9345   0.318E+00    0.123E+01
RMM:  15    -0.557213949065E+03    0.62394E+00   -0.22172E+00  8233   0.522E+00    0.633E+00
RMM:  16    -0.556760861289E+03    0.45309E+00   -0.13923E+00  8451   0.354E+00    0.390E+00
RMM:  17    -0.556674737661E+03    0.86124E-01   -0.99467E-01 10821   0.201E+00    0.258E+00
RMM:  18    -0.556663709313E+03    0.11028E-01   -0.33289E-01 10623   0.126E+00    0.211E+00
RMM:  19    -0.556635918942E+03    0.27790E-01   -0.15719E-01  9258   0.102E+00    0.134E+00
RMM:  20    -0.556630783335E+03    0.51356E-02   -0.75468E-02  9240   0.737E-01    0.104E+00
RMM:  21    -0.556618569680E+03    0.12214E-01   -0.33563E-02  9234   0.468E-01    0.481E-01
RMM:  22    -0.556619050027E+03   -0.48035E-03   -0.16477E-02  9231   0.331E-01    0.474E-01
RMM:  23    -0.556617758241E+03    0.12918E-02   -0.80512E-03  9123   0.234E-01    0.242E-01
RMM:  24    -0.556618283678E+03   -0.52544E-03   -0.54684E-03 10886   0.114E-01    0.152E-01
RMM:  25    -0.556618710175E+03   -0.42650E-03   -0.14732E-03 10487   0.719E-02    0.872E-02
RMM:  26    -0.556620051176E+03   -0.13410E-02   -0.89135E-04 10394   0.589E-02    0.969E-02
RMM:  27    -0.556620783699E+03   -0.73252E-03   -0.46685E-04  8593   0.607E-02    0.698E-02
RMM:  28    -0.556621663941E+03   -0.88024E-03   -0.45666E-04  9736   0.439E-02    0.484E-02
RMM:  29    -0.556622302931E+03   -0.63899E-03   -0.23421E-04 10276   0.247E-02    0.368E-02
RMM:  30    -0.556622491801E+03   -0.18887E-03   -0.14734E-04 10205   0.237E-02    0.252E-02
RMM:  31    -0.556622594999E+03   -0.10320E-03   -0.33747E-05  7897   0.160E-02    0.165E-02
RMM:  32    -0.556622731424E+03   -0.13642E-03   -0.30302E-05  8206   0.115E-02    0.143E-02
RMM:  33    -0.556622834088E+03   -0.10266E-03   -0.22014E-05  7666   0.653E-03    0.108E-02
RMM:  34    -0.556622970620E+03   -0.13653E-03   -0.10797E-05  6436   0.770E-03    0.910E-03
RMM:  35    -0.556623120052E+03   -0.14943E-03   -0.10846E-05  6332   0.604E-03    0.682E-03
RMM:  36    -0.556623213383E+03   -0.93331E-04   -0.96090E-06  6572   0.875E-03    0.135E-02
RMM:  37    -0.556623248516E+03   -0.35133E-04   -0.47450E-06  5849   0.783E-03    0.418E-03
RMM:  38    -0.556623308798E+03   -0.60282E-04   -0.78274E-06  6132   0.385E-03    0.393E-03
RMM:  39    -0.556623319362E+03   -0.10564E-04   -0.17592E-06  5339   0.440E-03    0.387E-03
RMM:  40    -0.556623332563E+03   -0.13201E-04   -0.19969E-06  5545   0.381E-03    0.315E-03
RMM:  41    -0.556623337715E+03   -0.51521E-05   -0.74792E-07  4518   0.175E-03    0.863E-04
RMM:  42    -0.556623340956E+03   -0.32405E-05   -0.39478E-07  3954   0.139E-03    0.126E-03
RMM:  43    -0.556623342214E+03   -0.12582E-05   -0.23771E-07  3982   0.135E-03    0.364E-04
RMM:  44    -0.556623342923E+03   -0.70856E-06   -0.16802E-07  2908   0.763E-04
   1 F= -.55662334E+03 E0= -.55661294E+03  d E =-.556623E+03
 curvature:   0.00 expect dE= 0.000E+00 dE for cont linesearch  0.000E+00
 trial: gam= 0.00000 g(F)=  0.707E-01 g(S)=  0.000E+00 ort = 0.000E+00 (trialstep = 0.100E+01)
 search vector abs. value=  0.707E-01
 bond charge predicted
       N       E                     dE             d eps       ncg     rms          rms(c)
DAV:   1    -0.556673121081E+03   -0.49779E-01   -0.12126E+00  9048   0.233E+00    0.372E-01
RMM:   2    -0.556673594260E+03   -0.47318E-03   -0.27547E-02  9643   0.485E-01    0.290E-01
RMM:   3    -0.556680220864E+03   -0.66266E-02   -0.91635E-03  9892   0.281E-01    0.719E-01
RMM:   4    -0.556672813142E+03    0.74077E-02   -0.40727E-03  9693   0.187E-01    0.157E-01
RMM:   5    -0.556673273242E+03   -0.46010E-03   -0.19730E-03  9090   0.133E-01    0.260E-01
RMM:   6    -0.556672683478E+03    0.58976E-03   -0.10105E-03  9093   0.102E-01    0.102E-01
RMM:   7    -0.556672547716E+03    0.13576E-03   -0.35141E-04  9299   0.544E-02    0.521E-02
RMM:   8    -0.556672527582E+03    0.20133E-04   -0.14690E-04  9960   0.308E-02    0.308E-02
RMM:   9    -0.556672527314E+03    0.26785E-06   -0.69238E-05 10124   0.188E-02    0.256E-02
RMM:  10    -0.556672522755E+03    0.45598E-05   -0.28619E-05  8106   0.160E-02    0.192E-02
RMM:  11    -0.556672519013E+03    0.37416E-05   -0.12207E-05  7169   0.887E-03    0.655E-03
RMM:  12    -0.556672518796E+03    0.21692E-06   -0.42619E-06  5963   0.434E-03
   2 F= -.55667252E+03 E0= -.55666236E+03  d E =-.491759E-01
 trial-energy change:   -0.049176  1 .order   -0.048516   -0.070680   -0.026352
 step:   1.5233(harm=  1.5945)  dis= 0.01787  next Energy=  -556.679508 (dE=-0.562E-01)
 bond charge predicted
       N       E                     dE             d eps       ncg     rms          rms(c)
DAV:   1    -0.556679766366E+03   -0.72474E-02   -0.33753E-01  8608   0.123E+00    0.204E-01
RMM:   2    -0.556679880290E+03   -0.11392E-03   -0.79760E-03  9621   0.264E-01    0.163E-01
RMM:   3    -0.556681764905E+03   -0.18846E-02   -0.26164E-03  9802   0.153E-01    0.386E-01
RMM:   4    -0.556679660804E+03    0.21041E-02   -0.12068E-03  9687   0.100E-01    0.990E-02
RMM:   5    -0.556679736339E+03   -0.75535E-04   -0.57813E-04  8777   0.760E-02    0.131E-01
RMM:   6    -0.556679608084E+03    0.12826E-03   -0.32514E-04  9292   0.558E-02    0.687E-02
RMM:   7    -0.556679552371E+03    0.55713E-04   -0.12236E-04  8652   0.370E-02    0.339E-02
RMM:   8    -0.556679541901E+03    0.10470E-04   -0.49625E-05  9585   0.184E-02    0.163E-02
RMM:   9    -0.556679542523E+03   -0.62227E-06   -0.21269E-05  8512   0.118E-02    0.146E-02
RMM:  10    -0.556679540698E+03    0.18254E-05   -0.95960E-06  6517   0.926E-03    0.949E-03
RMM:  11    -0.556679539990E+03    0.70756E-06   -0.36728E-06  5837   0.602E-03
   3 F= -.55667954E+03 E0= -.55666951E+03  d E =-.561971E-01
 curvature:  -0.79 expect dE=-0.741E-03 dE for cont linesearch -0.992E-08
 trial: gam= 0.01291 g(F)=  0.943E-03 g(S)=  0.000E+00 ort = 0.299E-04 (trialstep = 0.110E+01)
 search vector abs. value=  0.955E-03
 bond charge predicted
       N       E                     dE             d eps       ncg     rms          rms(c)
DAV:   1    -0.556680498141E+03   -0.95744E-03   -0.18496E-02  8632   0.294E-01    0.386E-02
RMM:   2    -0.556680545896E+03   -0.47755E-04   -0.35620E-04  8285   0.769E-02    0.570E-02
RMM:   3    -0.556680540053E+03    0.58430E-05   -0.89348E-05  9848   0.314E-02    0.413E-02
RMM:   4    -0.556680534076E+03    0.59763E-05   -0.45090E-05  9970   0.149E-02    0.329E-02
RMM:   5    -0.556680521999E+03    0.12077E-04   -0.32786E-05  8325   0.178E-02    0.204E-02
RMM:   6    -0.556680531264E+03   -0.92646E-05   -0.26764E-05  7867   0.157E-02    0.326E-02
RMM:   7    -0.556680519550E+03    0.11714E-04   -0.95192E-06  6396   0.113E-02    0.835E-03
RMM:   8    -0.556680519054E+03    0.49623E-06   -0.23927E-06  5486   0.567E-03
   4 F= -.55668052E+03 E0= -.55667049E+03  d E =-.979064E-03
 ZBRENT: can't locate minimum, use default step
 trial-energy change:   -0.000979  1 .order   -0.000976   -0.001042   -0.000910
 step:   4.4186(harm=  8.7598)  dis= 0.00000  next Energy=  -556.683670 (dE=-0.413E-02)
 bond charge predicted
       N       E                     dE             d eps       ncg     rms          rms(c)
DAV:   1    -0.556682516366E+03   -0.19968E-02   -0.16685E-01  8408   0.880E-01    0.115E-01
RMM:   2    -0.556682919374E+03   -0.40301E-03   -0.30305E-03  8330   0.216E-01    0.169E-01
RMM:   3    -0.556682847111E+03    0.72262E-04   -0.76234E-04  9897   0.918E-02    0.119E-01
RMM:   4    -0.556682842697E+03    0.44149E-05   -0.40620E-04 10791   0.393E-02    0.986E-02
RMM:   5    -0.556682714961E+03    0.12774E-03   -0.32939E-04  8957   0.536E-02    0.694E-02
RMM:   6    -0.556682744455E+03   -0.29494E-04   -0.23155E-04  8772   0.456E-02    0.782E-02
RMM:   7    -0.556682682655E+03    0.61800E-04   -0.84666E-05  8810   0.306E-02    0.330E-02
RMM:   8    -0.556682669609E+03    0.13046E-04   -0.22481E-05  8134   0.149E-02    0.143E-02
RMM:   9    -0.556682667995E+03    0.16134E-05   -0.10491E-05  7000   0.748E-03    0.702E-03
RMM:  10    -0.556682667758E+03    0.23739E-06   -0.31089E-06  5653   0.513E-03
   5 F= -.55668267E+03 E0= -.55667266E+03  d E =-.312777E-02
 curvature:  -3.01 expect dE=-0.166E-02 dE for cont linesearch -0.684E-03
 ZBRENT: increasing intervall
 opt :  11.0466  next Energy=  -556.683384 (dE=-0.384E-02)
 bond charge predicted
       N       E                     dE             d eps       ncg     rms          rms(c)
DAV:   1    -0.556682824843E+03   -0.15685E-03   -0.66795E-01  8272   0.176E+00    0.231E-01
RMM:   2    -0.556684443134E+03   -0.16183E-02   -0.12290E-02  8476   0.426E-01    0.343E-01
RMM:   3    -0.556684114105E+03    0.32903E-03   -0.30882E-03  9838   0.186E-01    0.238E-01
RMM:   4    -0.556684218775E+03   -0.10467E-03   -0.17775E-03 10832   0.810E-02    0.208E-01
RMM:   5    -0.556683562266E+03    0.65651E-03   -0.13592E-03  9064   0.108E-01    0.134E-01
RMM:   6    -0.556683684928E+03   -0.12266E-03   -0.93060E-04  8762   0.912E-02    0.156E-01
RMM:   7    -0.556683443821E+03    0.24111E-03   -0.33474E-04  8949   0.596E-02    0.643E-02
RMM:   8    -0.556683395261E+03    0.48561E-04   -0.95076E-05  8681   0.302E-02    0.300E-02
RMM:   9    -0.556683387834E+03    0.74265E-05   -0.46253E-05  9328   0.150E-02    0.140E-02
RMM:  10    -0.556683387901E+03   -0.66326E-07   -0.15628E-05  8133   0.860E-03    0.988E-03
RMM:  11    -0.556683388250E+03   -0.34962E-06   -0.52454E-06  6165   0.670E-03
   6 F= -.55668339E+03 E0= -.55667340E+03  d E =-.384826E-02
 curvature:  -3.15 expect dE=-0.631E-02 dE for cont linesearch -0.220E-03
 ZBRENT: bracketing found
 ZBRENT: interpolating
 opt :   8.6825  next Energy=  -556.683694 (dE=-0.415E-02)
 bond charge predicted
       N       E                     dE             d eps       ncg     rms          rms(c)
DAV:   1    -0.556683603891E+03   -0.21599E-03   -0.84804E-02  8400   0.628E-01    0.821E-02
RMM:   2    -0.556683792490E+03   -0.18860E-03   -0.15635E-03  8433   0.156E-01    0.115E-01
RMM:   3    -0.556683785142E+03    0.73484E-05   -0.39863E-04  9961   0.657E-02    0.885E-02
RMM:   4    -0.556683764065E+03    0.21077E-04   -0.19998E-04 10726   0.272E-02    0.658E-02
RMM:   5    -0.556683705290E+03    0.58775E-04   -0.16079E-04  9060   0.373E-02    0.438E-02
RMM:   6    -0.556683727211E+03   -0.21921E-04   -0.10601E-04  8552   0.314E-02    0.573E-02
RMM:   7    -0.556683691926E+03    0.35285E-04   -0.38119E-05  8154   0.213E-02    0.201E-02
RMM:   8    -0.556683688166E+03    0.37600E-05   -0.97778E-06  6956   0.100E-02    0.105E-02
RMM:   9    -0.556683687539E+03    0.62770E-06   -0.40920E-06  5854   0.587E-03
   7 F= -.55668369E+03 E0= -.55667369E+03  d E =-.414755E-02
 curvature:  -4.37 expect dE=-0.530E-02 dE for cont linesearch -0.355E-06
 trial: gam= 1.29492 g(F)=  0.121E-02 g(S)=  0.000E+00 ort = 0.881E-05 (trialstep = 0.882E+00)
 search vector abs. value=  0.284E-02
 bond charge predicted
       N       E                     dE             d eps       ncg     rms          rms(c)
DAV:   1    -0.556684475916E+03   -0.78775E-03   -0.35922E-02  8400   0.406E-01    0.571E-02
RMM:   2    -0.556684528905E+03   -0.52990E-04   -0.68052E-04  8371   0.994E-02    0.648E-02
RMM:   3    -0.556684572596E+03   -0.43690E-04   -0.20359E-04  9865   0.464E-02    0.756E-02
RMM:   4    -0.556684549013E+03    0.23583E-04   -0.11310E-04 10719   0.208E-02    0.522E-02
RMM:   5    -0.556684506014E+03    0.42999E-04   -0.72759E-05  9094   0.250E-02    0.311E-02
RMM:   6    -0.556684512708E+03   -0.66934E-05   -0.50431E-05  8785   0.205E-02    0.360E-02
RMM:   7    -0.556684499740E+03    0.12968E-04   -0.17621E-05  7532   0.142E-02    0.143E-02
RMM:   8    -0.556684497419E+03    0.23210E-05   -0.51255E-06  6130   0.775E-03    0.777E-03
RMM:   9    -0.556684497062E+03    0.35690E-06   -0.22598E-06  5404   0.527E-03
   8 F= -.55668450E+03 E0= -.55667452E+03  d E =-.809523E-03
 trial-energy change:   -0.000810  1 .order   -0.000806   -0.001080   -0.000533
 step:   1.7388(harm=  1.7388)  dis= 0.00018  next Energy=  -556.684753 (dE=-0.107E-02)
 bond charge predicted
       N       E                     dE             d eps       ncg     rms          rms(c)
DAV:   1    -0.556684743575E+03   -0.24616E-03   -0.33968E-02  8424   0.395E-01    0.557E-02
RMM:   2    -0.556684800542E+03   -0.56967E-04   -0.64385E-04  8633   0.936E-02    0.662E-02
RMM:   3    -0.556684829581E+03   -0.29040E-04   -0.18402E-04  9886   0.438E-02    0.701E-02
RMM:   4    -0.556684805885E+03    0.23696E-04   -0.10523E-04 10715   0.201E-02    0.473E-02
RMM:   5    -0.556684769904E+03    0.35981E-04   -0.67417E-05  8850   0.249E-02    0.253E-02
RMM:   6    -0.556684777108E+03   -0.72038E-05   -0.39207E-05  8834   0.177E-02    0.338E-02
RMM:   7    -0.556684765333E+03    0.11775E-04   -0.15830E-05  7185   0.133E-02    0.125E-02
RMM:   8    -0.556684764091E+03    0.12424E-05   -0.49147E-06  6107   0.743E-03    0.822E-03
RMM:   9    -0.556684763496E+03    0.59450E-06   -0.20699E-06  5329   0.530E-03
   9 F= -.55668476E+03 E0= -.55667480E+03  d E =-.107596E-02
 curvature:  -2.01 expect dE=-0.116E-04 dE for cont linesearch -0.420E-07
 trial: gam=-0.01352 g(F)=  0.574E-05 g(S)=  0.000E+00 ort = 0.769E-05 (trialstep = 0.105E+01)
 search vector abs. value=  0.605E-05
 reached required accuracy - stopping structural energy minimisation
 augmentation electrons   27.720052751336173     
 soft         electrons   239.35555599300886     
 augmentation electrons   27.720052751336173     
 soft         electrons   239.35555599300886     
 augmentation electrons   27.720052751336173     
 soft         electrons   239.35555599300886     
 augmentation electrons   27.720052751336173     
 soft         electrons   239.35555599300886     
 augmentation electrons   27.720052751336173     
 soft         electrons   239.35555599300886     
 augmentation electrons   27.720052751336173     
 soft         electrons   239.35555599300886     
 augmentation electrons   27.720052751336173     
 soft         electrons   239.35555599300886     
 augmentation electrons   27.720052751336173     
 soft         electrons   239.35555599300886     
 augmentation electrons   27.720052751336173     
 soft         electrons   239.35555599300886     
 augmentation electrons   27.720052751336173     
 soft         electrons   239.35555599300886     
 augmentation electrons   27.720052751336173     
 soft         electrons   239.35555599300886     
 augmentation electrons   27.720052751336173     
 soft         electrons   239.35555599300886     
 augmentation electrons   27.720052751336173     
 soft         electrons   239.35555599300886     
 augmentation electrons   27.720052751336173     
 soft         electrons   239.35555599300886     
 augmentation electrons   27.720052751336173     
 soft         electrons   239.35555599300886     
 augmentation electrons   27.720052751336173     
 soft         electrons   239.35555599300886     
 augmentation electrons   27.720052751336173     
 soft         electrons   239.35555599300886     
 augmentation electrons   27.720052751336173     
 soft         electrons   239.35555599300886     
 augmentation electrons   27.720052751336173     
 soft         electrons   239.35555599300886     
 augmentation electrons   27.720052751336173     
 soft         electrons   239.35555599300886     
 augmentation electrons   27.720052751336173     
 soft         electrons   239.35555599300886     
 augmentation electrons   27.720052751336173     
 soft         electrons   239.35555599300886     
 augmentation electrons   27.720052751336173     
 soft         electrons   239.35555599300886     
 augmentation electrons   27.720052751336173     
 soft         electrons   239.35555599300886     
 augmentation electrons   27.720052751336173     
 soft         electrons   239.35555599300886     
 augmentation electrons   27.720052751336173     
 soft         electrons   239.35555599300886     
 augmentation electrons   27.720052751336173     
 soft         electrons   239.35555599300886     
 augmentation electrons   27.720052751336173     
 soft         electrons   239.35555599300886     
 augmentation electrons   27.720052751336173     
 soft         electrons   239.35555599300886     
 augmentation electrons   27.720052751336173     
 soft         electrons   239.35555599300886     
 augmentation electrons   27.720052751336173     
 soft         electrons   239.35555599300886     
 augmentation electrons   27.720052751336173     
 soft         electrons   239.35555599300886     
 augmentation electrons   27.720052751336173     
 soft         electrons   239.35555599300886     
 augmentation electrons   27.720052751336173     
 soft         electrons   239.35555599300886     
 augmentation electrons   27.720052751336173     
 soft         electrons   239.35555599300886     
 augmentation electrons   27.720052751336173     
 soft         electrons   239.35555599300886     
 augmentation electrons   27.720052751336173     
 soft         electrons   239.35555599300886     
 augmentation electrons   27.720052751336173     
 soft         electrons   239.35555599300886     
 augmentation electrons   27.720052751336173     
 soft         electrons   239.35555599300886     
 augmentation electrons   27.720052751336173     
 soft         electrons   239.35555599300886     
 augmentation electrons   27.720052751336173     
 soft         electrons   239.35555599300886     
 augmentation electrons   27.720052751336173     
 soft         electrons   239.35555599300886     
 augmentation electrons   27.720052751336173     
 soft         electrons   239.35555599300886     
 augmentation electrons   27.720052751336173     
 soft         electrons   239.35555599300886     
 augmentation electrons   27.720052751336173     
 soft         electrons   239.35555599300886     
 augmentation electrons   27.720052751336173     
 soft         electrons   239.35555599300886     
 augmentation electrons   27.720052751336173     
 soft         electrons   239.35555599300886     
 augmentation electrons   27.720052751336173     
 soft         electrons   239.35555599300886     
 augmentation electrons   27.720052751336173     
 soft         electrons   239.35555599300886     
 augmentation electrons   27.720052751336173     
 soft         electrons   239.35555599300886     
 augmentation electrons   27.720052751336173     
 soft         electrons   239.35555599300886     
 augmentation electrons   27.720052751336173     
 soft         electrons   239.35555599300886     
 augmentation electrons   27.720052751336173     
 soft         electrons   239.35555599300886     
 augmentation electrons   27.720052751336173     
 soft         electrons   239.35555599300886     
 augmentation electrons   27.720052751336173     
 soft         electrons   239.35555599300886     
 augmentation electrons   27.720052751336173     
 soft         electrons   239.35555599300886     
 augmentation electrons   27.720052751336173     
 soft         electrons   239.35555599300886     
 augmentation electrons   27.720052751336173     
 soft         electrons   239.35555599300886     
 augmentation electrons   27.720052751336173     
 soft         electrons   239.35555599300886     
 augmentation electrons   27.720052751336173     
 soft         electrons   239.35555599300886     
 augmentation electrons   27.720052751336173     
 soft         electrons   239.35555599300886     
 augmentation electrons   27.720052751336173     
 soft         electrons   239.35555599300886     
 augmentation electrons   27.720052751336173     
 soft         electrons   239.35555599300886     
 augmentation electrons   27.720052751336173     
 soft         electrons   239.35555599300886     
 augmentation electrons   27.720052751336173     
 soft         electrons   239.35555599300886     
 augmentation electrons   27.720052751336173     
 soft         electrons   239.35555599300886     
 augmentation electrons   27.720052751336173     
 soft         electrons   239.35555599300886     
 augmentation electrons   27.720052751336173     
 soft         electrons   239.35555599300886     
 augmentation electrons   27.720052751336173     
 soft         electrons   239.35555599300886     
 augmentation electrons   27.720052751336173     
 soft         electrons   239.35555599300886     
 augmentation electrons   27.720052751336173     
 soft         electrons   239.35555599300886     
 augmentation electrons   27.720052751336173     
 soft         electrons   239.35555599300886     
 total        electrons   267.07560874434506     
 total        electrons   267.07560874434506     
 total        electrons   267.07560874434506     
 total        electrons   267.07560874434506     
 total        electrons   267.07560874434506     
 total        electrons   267.07560874434506     
 total        electrons   267.07560874434506     
 total        electrons   267.07560874434506     
 total        electrons   267.07560874434506     
 total        electrons   267.07560874434506     
 total        electrons   267.07560874434506     
 total        electrons   267.07560874434506     
 total        electrons   267.07560874434506     
 total        electrons   267.07560874434506     
 total        electrons   267.07560874434506     
 total        electrons   267.07560874434506     
 total        electrons   267.07560874434506     
 total        electrons   267.07560874434506     
 total        electrons   267.07560874434506     
 total        electrons   267.07560874434506     
 total        electrons   267.07560874434506     
 total        electrons   267.07560874434506     
 total        electrons   267.07560874434506     
 total        electrons   267.07560874434506     
 total        electrons   267.07560874434506     
 total        electrons   267.07560874434506     
 total        electrons   267.07560874434506     
 total        electrons   267.07560874434506     
 total        electrons   267.07560874434506     
 total        electrons   267.07560874434506     
 total        electrons   267.07560874434506     
 total        electrons   267.07560874434506     
 total        electrons   267.07560874434506     
 total        electrons   267.07560874434506     
 total        electrons   267.07560874434506     
 total        electrons   267.07560874434506     
 total        electrons   267.07560874434506     
 total        electrons   267.07560874434506     
 total        electrons   267.07560874434506     
 total        electrons   267.07560874434506     
 total        electrons   267.07560874434506     
 total        electrons   267.07560874434506     
 total        electrons   267.07560874434506     
 total        electrons   267.07560874434506     
 total        electrons   267.07560874434506     
 total        electrons   267.07560874434506     
 total        electrons   267.07560874434506     
 total        electrons   267.07560874434506     
 total        electrons   267.07560874434506     
 total        electrons   267.07560874434506     
 total        electrons   267.07560874434506     
 total        electrons   267.07560874434506     
 total        electrons   267.07560874434506     
 total        electrons   267.07560874434506     
 total        electrons   267.07560874434506     
 total        electrons   267.07560874434506     
 total        electrons   267.07560874434506     
 total        electrons   267.07560874434506     
 total        electrons   267.07560874434506     
 total        electrons   267.07560874434506     
 total        electrons   267.07560874434506     
 total        electrons   267.07560874434506     
 total        electrons   267.07560874434506     
 total        electrons   267.07560874434506     
 total        electrons   267.07560874434506     
 total        electrons   267.07560874434506     
 total        electrons   267.07560874434506     
 total        electrons   267.07560874434506     
 total        electrons   267.07560874434506     
 total        electrons   267.07560874434506     
 total        electrons   267.07560874434506     
 total        electrons   267.07560874434506     
Note: The following floating-point exceptions are signalling: IEEE_OVERFLOW_FLAG
Note: The following floating-point exceptions are signalling: IEEE_OVERFLOW_FLAG
Note: The following floating-point exceptions are signalling: IEEE_OVERFLOW_FLAG
Note: The following floating-point exceptions are signalling: IEEE_OVERFLOW_FLAG
Note: The following floating-point exceptions are signalling: IEEE_OVERFLOW_FLAG
Note: The following floating-point exceptions are signalling: IEEE_OVERFLOW_FLAG
Note: The following floating-point exceptions are signalling: IEEE_OVERFLOW_FLAG
Note: The following floating-point exceptions are signalling: IEEE_OVERFLOW_FLAG
Note: The following floating-point exceptions are signalling: IEEE_OVERFLOW_FLAG
Note: The following floating-point exceptions are signalling: IEEE_OVERFLOW_FLAG
Note: The following floating-point exceptions are signalling: IEEE_OVERFLOW_FLAG
Note: The following floating-point exceptions are signalling: IEEE_OVERFLOW_FLAG
Note: The following floating-point exceptions are signalling: IEEE_OVERFLOW_FLAG
Note: The following floating-point exceptions are signalling: IEEE_OVERFLOW_FLAG
Note: The following floating-point exceptions are signalling: IEEE_OVERFLOW_FLAG
Note: The following floating-point exceptions are signalling: IEEE_OVERFLOW_FLAG
Note: The following floating-point exceptions are signalling: IEEE_OVERFLOW_FLAG
Note: The following floating-point exceptions are signalling: IEEE_OVERFLOW_FLAG
Note: The following floating-point exceptions are signalling: IEEE_OVERFLOW_FLAG
Note: The following floating-point exceptions are signalling: IEEE_OVERFLOW_FLAG
Note: The following floating-point exceptions are signalling: IEEE_OVERFLOW_FLAG
Note: The following floating-point exceptions are signalling: IEEE_OVERFLOW_FLAG
Note: The following floating-point exceptions are signalling: IEEE_OVERFLOW_FLAG
Note: The following floating-point exceptions are signalling: IEEE_OVERFLOW_FLAG
Note: The following floating-point exceptions are signalling: IEEE_OVERFLOW_FLAG
Note: The following floating-point exceptions are signalling: IEEE_OVERFLOW_FLAG
Note: The following floating-point exceptions are signalling: IEEE_OVERFLOW_FLAG
Note: The following floating-point exceptions are signalling: IEEE_OVERFLOW_FLAG
Note: The following floating-point exceptions are signalling: IEEE_OVERFLOW_FLAG
Note: The following floating-point exceptions are signalling: IEEE_OVERFLOW_FLAG
Note: The following floating-point exceptions are signalling: IEEE_OVERFLOW_FLAG
Note: The following floating-point exceptions are signalling: IEEE_OVERFLOW_FLAG
Note: The following floating-point exceptions are signalling: IEEE_OVERFLOW_FLAG
Note: The following floating-point exceptions are signalling: IEEE_OVERFLOW_FLAG
Note: The following floating-point exceptions are signalling: IEEE_OVERFLOW_FLAG
Note: The following floating-point exceptions are signalling: IEEE_OVERFLOW_FLAG
Note: The following floating-point exceptions are signalling: IEEE_OVERFLOW_FLAG
Note: The following floating-point exceptions are signalling: IEEE_OVERFLOW_FLAG
Note: The following floating-point exceptions are signalling: IEEE_OVERFLOW_FLAG
Note: The following floating-point exceptions are signalling: IEEE_OVERFLOW_FLAG
Note: The following floating-point exceptions are signalling: IEEE_OVERFLOW_FLAG
Note: The following floating-point exceptions are signalling: IEEE_OVERFLOW_FLAG
Note: The following floating-point exceptions are signalling: IEEE_OVERFLOW_FLAG
Note: The following floating-point exceptions are signalling: IEEE_OVERFLOW_FLAG
Note: The following floating-point exceptions are signalling: IEEE_OVERFLOW_FLAG
Note: The following floating-point exceptions are signalling: IEEE_OVERFLOW_FLAG
Note: The following floating-point exceptions are signalling: IEEE_OVERFLOW_FLAG
Note: The following floating-point exceptions are signalling: IEEE_OVERFLOW_FLAG
Note: The following floating-point exceptions are signalling: IEEE_OVERFLOW_FLAG
Note: The following floating-point exceptions are signalling: IEEE_OVERFLOW_FLAG
Note: The following floating-point exceptions are signalling: IEEE_OVERFLOW_FLAG
Note: The following floating-point exceptions are signalling: IEEE_OVERFLOW_FLAG
Note: The following floating-point exceptions are signalling: IEEE_OVERFLOW_FLAG
Note: The following floating-point exceptions are signalling: IEEE_OVERFLOW_FLAG
Note: The following floating-point exceptions are signalling: IEEE_OVERFLOW_FLAG
Note: The following floating-point exceptions are signalling: IEEE_OVERFLOW_FLAG
Note: The following floating-point exceptions are signalling: IEEE_OVERFLOW_FLAG
Note: The following floating-point exceptions are signalling: IEEE_OVERFLOW_FLAG
Note: The following floating-point exceptions are signalling: IEEE_OVERFLOW_FLAG
Note: The following floating-point exceptions are signalling: IEEE_OVERFLOW_FLAG
Note: The following floating-point exceptions are signalling: IEEE_OVERFLOW_FLAG
Note: The following floating-point exceptions are signalling: IEEE_OVERFLOW_FLAG
Note: The following floating-point exceptions are signalling: IEEE_OVERFLOW_FLAG
Note: The following floating-point exceptions are signalling: IEEE_OVERFLOW_FLAG
Note: The following floating-point exceptions are signalling: IEEE_OVERFLOW_FLAG
Note: The following floating-point exceptions are signalling: IEEE_OVERFLOW_FLAG
Note: The following floating-point exceptions are signalling: IEEE_OVERFLOW_FLAG
Note: The following floating-point exceptions are signalling: IEEE_OVERFLOW_FLAG
Note: The following floating-point exceptions are signalling: IEEE_OVERFLOW_FLAG
Note: The following floating-point exceptions are signalling: IEEE_OVERFLOW_FLAG
Note: The following floating-point exceptions are signalling: IEEE_OVERFLOW_FLAG
Note: The following floating-point exceptions are signalling: IEEE_OVERFLOW_FLAG
