    3    3   60    1
  0.8144830E+01  0.3039000E-09  0.3039000E-09  0.3055000E-09  0.5000000E-15
   1.0000000000000000E-004
  CAR 
 Name                                    
     12    216     10

  0.3742002E-15  0.3742002E-15  0.3742002E-15  0.2962963E-03
    1       -5.328164   1.000000
    2        4.638668   1.000000
    3        4.638670   1.000000
    4        5.787668   1.000000
    5        6.804480   1.000000
    6        9.567782   1.000000
    7        9.567783   1.000000
    8       13.048891  -0.000000
    9       13.053967  -0.000000
   10       14.369367   0.000000

  0.6666667E-01  0.3766815E-15  0.3742002E-15  0.1777778E-02
    1       -5.236297   1.000000
    2        4.426621   1.000000
    3        4.683722   1.000000
    4        5.839886   1.000000
    5        6.489969   1.000000
    6        9.528955   1.000000
    7        9.971885   1.000000
    8       12.399256  -0.000000
    9       12.490247  -0.000000
   10       14.976661   0.000000

  0.1333333E+00  0.3754153E-15  0.3742002E-15  0.1777778E-02
    1       -4.965275   1.000000
    2        3.863195   1.000000
    3        4.803869   1.000000
    4        5.859813   1.000000
    5        5.959769   1.000000
    6        9.421140   1.000000
    7       10.841565  -0.000000
    8       11.475532  -0.000000
    9       11.771722  -0.000000
   10       15.779983   0.000000

  0.2000000E+00  0.3870416E-15  0.3742002E-15  0.1777778E-02
    1       -4.528290   1.000000
    2        3.091935   1.000000
    3        4.957673   1.000000
    4        5.217848   1.000000
    5        6.025763   1.000000
    6        9.267320   1.000000
    7       10.843333  -0.000000
    8       11.270181  -0.000000
    9       11.760414  -0.000000
   10       16.343530   0.000000

  0.2666667E+00  0.4120044E-15  0.3742002E-15  0.1777778E-02
    1       -3.945690   1.000000
    2        2.223790   1.000000
    3        4.665923   1.000000
    4        5.093594   1.000000
    5        5.887910   1.000000
    6        9.097502   1.000000
    7       10.753995  -0.000025
    8       11.033396  -0.000000
    9       12.383062  -0.000000
   10       16.456375   0.000000

  0.3333333E+00  0.4025434E-15  0.3742002E-15  0.1777778E-02
    1       -3.243804   1.000000
    2        1.317132   1.000000
    3        4.238578   1.000000
    4        5.177136   1.000000
    5        5.558752   1.000000
    6        8.941285   1.000000
    7       11.030797  -0.000000
    8       11.222778  -0.000000
    9       12.503087  -0.000000
   10       16.887871   0.000000

  0.4000000E+00  0.3732510E-15  0.3742002E-15  0.1777778E-02
    1       -2.457600   1.000000
    2        0.404515   1.000000
    3        3.949405   1.000000
    4        5.209693   1.000000
    5        5.216022   1.000000
    6        8.823098   1.000000
    7       11.158970  -0.000000
    8       12.011566  -0.000000
    9       12.351158  -0.000000
   10       16.916517   0.000000

  0.4666667E+00  0.3915456E-15  0.3742002E-15  0.1777778E-02
    1       -1.675288   1.000000
    2       -0.437401   1.000000
    3        3.803848   1.000000
    4        5.010709   1.000000
    5        5.215744   1.000000
    6        8.759760   1.000000
    7       11.275811  -0.000000
    8       12.216139  -0.000000
    9       12.702767  -0.000000
   10       16.773230   0.000000

  0.6666667E-01  0.6666667E-01  0.3742002E-15  0.1777778E-02
    1       -5.054798   1.000000
    2        4.052797   1.000000
    3        4.746865   1.000000
    4        5.932783   1.000000
    5        6.039682   1.000000
    6        9.434736   1.000000
    7       10.610425  -0.014942
    8       11.748616  -0.000000
    9       11.900639  -0.000000
   10       15.825009   0.000000

  0.1333333E+00  0.6666667E-01  0.3742002E-15  0.3555556E-02
    1       -4.700457   1.000000
    2        3.418509   1.000000
    3        4.811213   1.000000
    4        5.449805   1.000000
    5        6.075930   1.000000
    6        9.247982   1.000000
    7       10.978111  -0.000000
    8       11.439236  -0.000000
    9       11.538330  -0.000000
   10       16.345763   0.000000

  0.2000000E+00  0.6666667E-01  0.3742002E-15  0.3555556E-02
    1       -4.189605   1.000000
    2        2.635770   1.000000
    3        4.802103   1.000000
    4        4.896105   1.000000
    5        6.182134   1.000000
    6        9.008045   1.000000
    7       10.467376   0.218594
    8       11.294603  -0.000000
    9       12.412797  -0.000000
   10       16.377757   0.000000

  0.2666667E+00  0.6666667E-01  0.3742002E-15  0.3555556E-02
    1       -3.544912   1.000000
    2        1.779192   1.000000
    3        4.442423   1.000000
    4        4.667819   1.000000
    5        6.183201   1.000000
    6        8.757378   1.000000
    7       10.379969   0.879662
    8       11.486847  -0.000000
    9       12.882612  -0.000000
   10       16.490153   0.000000

  0.3333333E+00  0.6666667E-01  0.3742002E-15  0.3555556E-02
    1       -2.795238   1.000000
    2        0.887580   1.000000
    3        4.111796   1.000000
    4        4.449689   1.000000
    5        6.105441   1.000000
    6        8.538739   1.000000
    7       10.633839  -0.007466
    8       11.936011  -0.000000
    9       12.895894  -0.000000
   10       17.105380   0.000000

  0.4000000E+00  0.6666667E-01  0.3742002E-15  0.3555556E-02
    1       -1.985776   1.000000
    2       -0.001840   1.000000
    3        3.912114   1.000000
    4        4.257455   1.000000
    5        6.025220   1.000000
    6        8.389851   1.000000
    7       10.966941  -0.000000
    8       12.451298  -0.000000
    9       12.771154  -0.000000
   10       17.078660   0.000000

  0.4666667E+00  0.6666667E-01  0.3742002E-15  0.1777778E-02
    1       -1.391099   1.000000
    2       -0.622287   1.000000
    3        3.845462   1.000000
    4        4.182691   1.000000
    5        5.993321   1.000000
    6        8.337053   1.000000
    7       11.114655  -0.000000
    8       12.701330  -0.000000
    9       12.712510  -0.000000
   10       17.019762   0.000000

  0.1333333E+00  0.1333333E+00  0.3742002E-15  0.1777778E-02
    1       -4.271438   1.000000
    2        2.830246   1.000000
    3        4.607804   1.000000
    4        4.999034   1.000000
    5        6.330259   1.000000
    6        8.897877   1.000000
    7       10.353150   0.986349
    8       11.408789  -0.000000
    9       12.511079  -0.000000
   10       16.331700   0.000000

  0.2000000E+00  0.1333333E+00  0.3742002E-15  0.3555556E-02
    1       -3.695781   1.000000
    2        2.142635   1.000000
    3        4.224793   1.000000
    4        4.608057   1.000000
    5        6.651361   1.000000
    6        8.465429   1.000000
    7        9.893075   1.000000
    8       11.689778  -0.000000
    9       13.440912   0.000000
   10       16.079715   0.000000

  0.2666667E+00  0.1333333E+00  0.3742002E-15  0.3555556E-02
    1       -2.996973   1.000000
    2        1.372509   1.000000
    3        3.798654   1.000000
    4        4.314608   1.000000
    5        6.870151   1.000000
    6        8.042288   1.000000
    7        9.832397   1.000000
    8       12.091351  -0.000000
    9       13.897404   0.000000
   10       16.464859   0.000000

  0.3333333E+00  0.1333333E+00  0.3742002E-15  0.3555556E-02
    1       -2.206182   1.000000
    2        0.535635   1.000000
    3        3.455525   1.000000
    4        4.125772   1.000000
    5        6.911582   1.000000
    6        7.707948   1.000000
    7       10.180676   1.001104
    8       12.364668  -0.000000
    9       13.909892   0.000000
   10       17.345055   0.000000

  0.4000000E+00  0.1333333E+00  0.3742002E-15  0.3555556E-02
    1       -1.391618   1.000000
    2       -0.303951   1.000000
    3        3.269597   1.000000
    4        4.035090   1.000000
    5        6.882780   1.000000
    6        7.523655   1.000000
    7       10.607725  -0.016021
    8       12.384958  -0.000000
    9       13.846676   0.000000
   10       17.754554   0.000000

  0.2000000E+00  0.2000000E+00  0.3742002E-15  0.1777778E-02
    1       -3.063966   1.000000
    2        1.621312   1.000000
    3        3.494349   1.000000
    4        4.413282   1.000000
    5        7.240973   1.000000
    6        7.819541   1.000000
    7        9.428833   1.000000
    8       12.156909  -0.000000
    9       14.579156   0.000000
   10       15.913862   0.000000

  0.2666667E+00  0.2000000E+00  0.3742002E-15  0.3555556E-02
    1       -2.317688   1.000000
    2        1.018500   1.000000
    3        2.839473   1.000000
    4        4.323442   1.000000
    5        7.220766   1.000000
    6        7.694435   1.000000
    7        9.355818   1.000000
    8       12.363805  -0.000000
    9       15.156046   0.000000
   10       16.408096   0.000000

  0.3333333E+00  0.2000000E+00  0.3742002E-15  0.3555556E-02
    1       -1.491180   1.000000
    2        0.277837   1.000000
    3        2.424054   1.000000
    4        4.310631   1.000000
    5        6.789100   1.000000
    6        7.799794   1.000000
    7        9.808150   1.000000
    8       12.138763  -0.000000
    9       15.148259   0.000000
   10       17.353775   0.000000

  0.4000000E+00  0.2000000E+00  0.3742002E-15  0.1777778E-02
    1       -0.769660   1.000000
    2       -0.422090   1.000000
    3        2.289194   1.000000
    4        4.317943   1.000000
    5        6.628775   1.000000
    6        7.787766   1.000000
    7       10.177918   1.000975
    8       11.869093  -0.000000
    9       15.120396   0.000000
   10       17.785971   0.000000

  0.2666667E+00  0.2666667E+00  0.3742002E-15  0.1777778E-02
    1       -1.531861   1.000000
    2        0.666293   1.000000
    3        1.954064   1.000000
    4        4.470139   1.000000
    5        6.466850   1.000000
    6        8.534179   1.000000
    7        9.085434   1.000000
    8       12.060438  -0.000000
    9       16.281902   0.000000
   10       16.474619   0.000000

  0.3333333E+00  0.2666667E+00  0.3742002E-15  0.3555556E-02
    1       -0.684132   1.000000
    2        0.119163   1.000000
    3        1.420266   1.000000
    4        4.677573   1.000000
    5        5.939343   1.000000
    6        8.713325   1.000000
    7        9.559324   1.000000
    8       11.439971  -0.000000
    9       16.295940   0.000000
   10       17.298628   0.000000

  0.3333333E+00  0.3333333E+00  0.3742002E-15  0.5925926E-03
    1       -0.003980   1.000000
    2       -0.003977   1.000000
    3        0.743211   1.000000
    4        5.225059   1.000000
    5        5.225062   1.000000
    6        9.362659   1.000000
    7        9.362660   1.000000
    8       10.937275  -0.000000
    9       17.030210   0.000000
   10       17.030211   0.000000

  0.3742002E-15  0.3742002E-15  0.6666667E-01  0.5925926E-03
    1       -5.255471   1.000000
    2        4.697169   1.000000
    3        4.697172   1.000000
    4        5.320136   1.000000
    5        7.227610   1.000000
    6        9.319764   1.000000
    7        9.319766   1.000000
    8       12.874252  -0.000000
    9       12.874255  -0.000000
   10       14.963658   0.000000

  0.6666667E-01  0.3766815E-15  0.6666667E-01  0.3555556E-02
    1       -5.164795   1.000000
    2        4.478210   1.000000
    3        4.735728   1.000000
    4        5.324879   1.000000
    5        6.914804   1.000000
    6        9.270231   1.000000
    7        9.748419   1.000000
    8       12.417940  -0.000000
    9       12.509602  -0.000000
   10       15.148484   0.000000

  0.1333333E+00  0.3754153E-15  0.6666667E-01  0.3555556E-02
    1       -4.897447   1.000000
    2        3.893624   1.000000
    3        4.833814   1.000000
    4        5.259938   1.000000
    5        6.441186   1.000000
    6        9.152079   1.000000
    7       10.487244   0.101173
    8       11.795530  -0.000000
    9       11.953102  -0.000000
   10       15.731764   0.000000

  0.2000000E+00  0.3870416E-15  0.6666667E-01  0.3555556E-02
    1       -4.466775   1.000000
    2        3.092447   1.000000
    3        4.945281   1.000000
    4        4.987959   1.000000
    5        6.154577   1.000000
    6        9.038899   1.000000
    7       10.651085  -0.004074
    8       11.522824  -0.000000
    9       11.991515  -0.000000
   10       15.967930   0.000000

  0.2666667E+00  0.4120044E-15  0.6666667E-01  0.3555556E-02
    1       -3.893138   1.000000
    2        2.196343   1.000000
    3        4.607140   1.000000
    4        5.018512   1.000000
    5        5.901160   1.000000
    6        8.993374   1.000000
    7       10.688623  -0.000847
    8       11.264706  -0.000000
    9       12.474290  -0.000000
   10       16.094398   0.000000

  0.3333333E+00  0.4025434E-15  0.6666667E-01  0.3555556E-02
    1       -3.202027   1.000000
    2        1.270418   1.000000
    3        4.271118   1.000000
    4        5.032644   1.000000
    5        5.555578   1.000000
    6        9.012593   1.000000
    7       11.112777  -0.000000
    8       11.179649  -0.000000
    9       12.583218  -0.000000
   10       16.640177   0.000000

  0.4000000E+00  0.3732510E-15  0.6666667E-01  0.3555556E-02
    1       -2.424627   1.000000
    2        0.346776   1.000000
    3        4.037562   1.000000
    4        5.009183   1.000000
    5        5.218820   1.000000
    6        9.045866   1.000000
    7       11.225327  -0.000000
    8       11.629811  -0.000000
    9       12.673069  -0.000000
   10       16.855813   0.000000

  0.4666667E+00  0.3915456E-15  0.6666667E-01  0.3555556E-02
    1       -1.628239   1.000000
    2       -0.518606   1.000000
    3        3.920681   1.000000
    4        4.985303   1.000000
    5        5.017220   1.000000
    6        9.062631   1.000000
    7       11.297693  -0.000000
    8       11.771812  -0.000000
    9       13.095545  -0.000000
   10       16.531510   0.000000

  0.6666667E-01  0.6666667E-01  0.6666667E-01  0.3555556E-02
    1       -4.985741   1.000000
    2        4.095806   1.000000
    3        4.773248   1.000000
    4        5.296695   1.000000
    5        6.573853   1.000000
    6        9.136505   1.000000
    7       10.366148   0.943526
    8       11.887710  -0.000000
    9       12.103832  -0.000000
   10       15.861108   0.000000

  0.1333333E+00  0.6666667E-01  0.6666667E-01  0.7111111E-02
    1       -4.636420   1.000000
    2        3.442608   1.000000
    3        4.750962   1.000000
    4        5.151772   1.000000
    5        6.345707   1.000000
    6        8.905764   1.000000
    7       10.910565  -0.000000
    8       11.406963  -0.000000
    9       11.954263  -0.000000
   10       16.169055   0.000000

  0.2000000E+00  0.6666667E-01  0.6666667E-01  0.7111111E-02
    1       -4.133338   1.000000
    2        2.631113   1.000000
    3        4.563154   1.000000
    4        4.954639   1.000000
    5        6.270133   1.000000
    6        8.714384   1.000000
    7       10.710298  -0.000294
    8       11.342941  -0.000000
    9       12.498884  -0.000000
   10       16.049750   0.000000

  0.2666667E+00  0.6666667E-01  0.6666667E-01  0.7111111E-02
    1       -3.498912   1.000000
    2        1.747874   1.000000
    3        4.293157   1.000000
    4        4.735703   1.000000
    5        6.148044   1.000000
    6        8.661577   1.000000
    7       10.640366  -0.005990
    8       11.472728  -0.000000
    9       12.894308  -0.000000
   10       16.263219   0.000000

  0.3333333E+00  0.6666667E-01  0.6666667E-01  0.7111111E-02
    1       -2.760320   1.000000
    2        0.839159   1.000000
    3        4.081956   1.000000
    4        4.473489   1.000000
    5        5.960491   1.000000
    6        8.694736   1.000000
    7       10.789105  -0.000003
    8       11.809261  -0.000000
    9       12.954365  -0.000000
   10       16.831839   0.000000

  0.4000000E+00  0.6666667E-01  0.6666667E-01  0.7111111E-02
    1       -1.954943   1.000000
    2       -0.062485   1.000000
    3        3.976133   1.000000
    4        4.238336   1.000000
    5        5.805722   1.000000
    6        8.713582   1.000000
    7       11.026572  -0.000000
    8       12.078676  -0.000000
    9       13.081339  -0.000000
   10       16.833120   0.000000

  0.4666667E+00  0.6666667E-01  0.6666667E-01  0.3555556E-02
    1       -1.318580   1.000000
    2       -0.729747   1.000000
    3        3.959016   1.000000
    4        4.131913   1.000000
    5        5.748333   1.000000
    6        8.714381   1.000000
    7       11.142090  -0.000000
    8       12.133521  -0.000000
    9       13.236349   0.000000
   10       16.683199   0.000000

  0.1333333E+00  0.1333333E+00  0.6666667E-01  0.3555556E-02
    1       -4.213968   1.000000
    2        2.849802   1.000000
    3        4.377401   1.000000
    4        4.995681   1.000000
    5        6.518249   1.000000
    6        8.450296   1.000000
    7       10.787841  -0.000003
    8       11.358228  -0.000000
    9       12.574515  -0.000000
   10       16.130531   0.000000

  0.2000000E+00  0.1333333E+00  0.6666667E-01  0.7111111E-02
    1       -3.647770   1.000000
    2        2.142953   1.000000
    3        3.958389   1.000000
    4        4.743018   1.000000
    5        6.753464   1.000000
    6        8.072034   1.000000
    7       10.372014   0.918774
    8       11.687950  -0.000000
    9       13.386005   0.000000
   10       15.917853   0.000000

  0.2666667E+00  0.1333333E+00  0.6666667E-01  0.7111111E-02
    1       -2.960827   1.000000
    2        1.346682   1.000000
    3        3.612380   1.000000
    4        4.462128   1.000000
    5        6.708272   1.000000
    6        8.046213   1.000000
    7       10.192450   1.001844
    8       12.064740  -0.000000
    9       13.804593   0.000000
   10       16.274949   0.000000

  0.3333333E+00  0.1333333E+00  0.6666667E-01  0.7111111E-02
    1       -2.181590   1.000000
    2        0.491830   1.000000
    3        3.366432   1.000000
    4        4.243393   1.000000
    5        6.469176   1.000000
    6        8.171780   1.000000
    7       10.356283   0.977492
    8       12.299802  -0.000000
    9       13.866458   0.000000
   10       16.893625   0.000000

  0.4000000E+00  0.1333333E+00  0.6666667E-01  0.7111111E-02
    1       -1.360567   1.000000
    2       -0.368259   1.000000
    3        3.236637   1.000000
    4        4.130549   1.000000
    5        6.304419   1.000000
    6        8.210676   1.000000
    7       10.677205  -0.001415
    8       12.302256  -0.000000
    9       13.865512   0.000000
   10       17.145550   0.000000

  0.2000000E+00  0.2000000E+00  0.6666667E-01  0.3555556E-02
    1       -3.027420   1.000000
    2        1.618885   1.000000
    3        3.299393   1.000000
    4        4.533015   1.000000
    5        7.384393   1.000000
    6        7.390501   1.000000
    7        9.938503   1.000000
    8       12.151883  -0.000000
    9       14.422520   0.000000
   10       15.783766   0.000000

  0.2666667E+00  0.2000000E+00  0.6666667E-01  0.7111111E-02
    1       -2.295350   1.000000
    2        0.997295   1.000000
    3        2.739065   1.000000
    4        4.410522   1.000000
    5        6.783006   1.000000
    6        7.993322   1.000000
    7        9.733004   1.000000
    8       12.353201  -0.000000
    9       14.995717   0.000000
   10       16.217821   0.000000

  0.3333333E+00  0.2000000E+00  0.6666667E-01  0.7111111E-02
    1       -1.482223   1.000000
    2        0.239829   1.000000
    3        2.394225   1.000000
    4        4.374954   1.000000
    5        6.359336   1.000000
    6        8.291073   1.000000
    7        9.977351   1.000000
    8       12.143697  -0.000000
    9       15.041955   0.000000
   10       17.035815   0.000000

  0.4000000E+00  0.2000000E+00  0.6666667E-01  0.3555556E-02
    1       -0.720146   1.000000
    2       -0.510440   1.000000
    3        2.282846   1.000000
    4        4.375181   1.000000
    5        6.202626   1.000000
    6        8.334848   1.000000
    7       10.272048   1.023209
    8       11.894674  -0.000000
    9       15.030691   0.000000
   10       17.401860   0.000000

  0.2666667E+00  0.2666667E+00  0.6666667E-01  0.3555556E-02
    1       -1.527784   1.000000
    2        0.638291   1.000000
    3        1.920687   1.000000
    4        4.512711   1.000000
    5        6.226292   1.000000
    6        8.678890   1.000000
    7        9.444636   1.000000
    8       12.077304  -0.000000
    9       16.169191   0.000000
   10       16.240245   0.000000

  0.3333333E+00  0.2666667E+00  0.6666667E-01  0.7111111E-02
    1       -0.702319   1.000000
    2        0.083176   1.000000
    3        1.436750   1.000000
    4        4.689308   1.000000
    5        5.765933   1.000000
    6        8.994478   1.000000
    7        9.724197   1.000000
    8       11.486965  -0.000000
    9       16.176692   0.000000
   10       17.100339   0.000000

  0.3333333E+00  0.3333333E+00  0.6666667E-01  0.1185185E-02
    1       -0.062419   1.000000
    2       -0.062417   1.000000
    3        0.828719   1.000000
    4        5.166039   1.000000
    5        5.166041   1.000000
    6        9.564595   1.000000
    7        9.564596   1.000000
    8       10.992580  -0.000000
    9       16.896709   0.000000
   10       16.896710   0.000000

  0.3742002E-15  0.3742002E-15  0.1333333E+00  0.5925926E-03
    1       -5.041494   1.000000
    2        4.506844   1.000000
    3        4.872269   1.000000
    4        4.872272   1.000000
    5        7.926629   1.000000
    6        8.747680   1.000000
    7        8.747681   1.000000
    8       12.387455  -0.000000
    9       12.387458  -0.000000
   10       14.907104   0.000000

  0.6666667E-01  0.3766815E-15  0.1333333E+00  0.3555556E-02
    1       -4.954579   1.000000
    2        4.497701   1.000000
    3        4.648429   1.000000
    4        4.888855   1.000000
    5        7.416461   1.000000
    6        8.694811   1.000000
    7        9.352749   1.000000
    8       12.202801  -0.000000
    9       12.322651  -0.000000
   10       15.227656   0.000000

  0.1333333E+00  0.3754153E-15  0.1333333E+00  0.3555556E-02
    1       -4.698730   1.000000
    2        3.946158   1.000000
    3        4.566890   1.000000
    4        4.914781   1.000000
    5        6.814224   1.000000
    6        8.609040   1.000000
    7       10.064780   1.000001
    8       12.025442  -0.000000
    9       12.163300  -0.000000
   10       15.783947   0.000000

  0.2000000E+00  0.3870416E-15  0.1333333E+00  0.3555556E-02
    1       -4.287984   1.000000
    2        3.071428   1.000000
    3        4.544394   1.000000
    4        4.896958   1.000000
    5        6.336312   1.000000
    6        8.631835   1.000000
    7       10.333809   1.022843
    8       11.962636  -0.000000
    9       12.361658  -0.000000
   10       15.592750   0.000000

  0.2666667E+00  0.4120044E-15  0.1333333E+00  0.3555556E-02
    1       -3.742929   1.000000
    2        2.118937   1.000000
    3        4.460492   1.000000
    4        4.805676   1.000000
    5        5.919139   1.000000
    6        8.840707   1.000000
    7       10.499469   0.048302
    8       11.757490  -0.000000
    9       12.776987  -0.000000
   10       15.591361   0.000000

  0.3333333E+00  0.4025434E-15  0.1333333E+00  0.3555556E-02
    1       -3.087446   1.000000
    2        1.162058   1.000000
    3        4.350601   1.000000
    4        4.668478   1.000000
    5        5.526923   1.000000
    6        9.191705   1.000000
    7       10.837139  -0.000000
    8       11.575743  -0.000000
    9       12.875588  -0.000000
   10       16.072626   0.000000

  0.4000000E+00  0.3732510E-15  0.1333333E+00  0.3555556E-02
    1       -2.345357   1.000000
    2        0.228741   1.000000
    3        4.264591   1.000000
    4        4.540427   1.000000
    5        5.200479   1.000000
    6        9.557431   1.000000
    7       11.135472  -0.000000
    8       11.439608  -0.000000
    9       13.089117  -0.000000
   10       16.365130   0.000000

  0.4666667E+00  0.3915456E-15  0.1333333E+00  0.3555556E-02
    1       -1.539630   1.000000
    2       -0.668372   1.000000
    3        4.223967   1.000000
    4        4.465562   1.000000
    5        5.010590   1.000000
    6        9.791397   1.000000
    7       11.212655  -0.000000
    8       11.366001  -0.000000
    9       13.561224   0.000000
   10       16.057024   0.000000

  0.6666667E-01  0.6666667E-01  0.1333333E+00  0.3555556E-02
    1       -4.783159   1.000000
    2        4.220830   1.000000
    3        4.462186   1.000000
    4        4.925607   1.000000
    5        7.020954   1.000000
    6        8.518756   1.000000
    7       10.002601   1.000000
    8       11.934984  -0.000000
    9       12.277041  -0.000000
   10       15.781228   0.000000

  0.1333333E+00  0.6666667E-01  0.1333333E+00  0.7111111E-02
    1       -4.449657   1.000000
    2        3.497109   1.000000
    3        4.337605   1.000000
    4        4.954502   1.000000
    5        6.711253   1.000000
    6        8.288800   1.000000
    7       10.581644  -0.027693
    8       11.745844  -0.000000
    9       12.350454  -0.000000
   10       15.943794   0.000000

  0.2000000E+00  0.6666667E-01  0.1333333E+00  0.7111111E-02
    1       -3.971129   1.000000
    2        2.605920   1.000000
    3        4.183683   1.000000
    4        4.903382   1.000000
    5        6.406044   1.000000
    6        8.298831   1.000000
    7       10.763943  -0.000014
    8       11.698545  -0.000000
    9       12.749777  -0.000000
   10       15.637257   0.000000

  0.2666667E+00  0.6666667E-01  0.1333333E+00  0.7111111E-02
    1       -3.369742   1.000000
    2        1.667209   1.000000
    3        4.042134   1.000000
    4        4.751127   1.000000
    5        6.027148   1.000000
    6        8.607114   1.000000
    7       10.952764  -0.000000
    8       11.605092  -0.000000
    9       13.050505  -0.000000
   10       15.790134   0.000000

  0.3333333E+00  0.6666667E-01  0.1333333E+00  0.7111111E-02
    1       -2.669429   1.000000
    2        0.732689   1.000000
    3        3.953243   1.000000
    4        4.539764   1.000000
    5        5.665918   1.000000
    6        9.045072   1.000000
    7       11.159563  -0.000000
    8       11.570500  -0.000000
    9       13.160784  -0.000000
   10       16.264919   0.000000

  0.4000000E+00  0.6666667E-01  0.1333333E+00  0.7111111E-02
    1       -1.893092   1.000000
    2       -0.177768   1.000000
    3        3.930887   1.000000
    4        4.343191   1.000000
    5        5.416917   1.000000
    6        9.403981   1.000000
    7       11.215421  -0.000000
    8       11.612889  -0.000000
    9       13.445732   0.000000
   10       16.308563   0.000000

  0.4666667E+00  0.6666667E-01  0.1333333E+00  0.3555556E-02
    1       -1.106452   1.000000
    2       -1.007708   1.000000
    3        3.940869   1.000000
    4        4.253705   1.000000
    5        5.329297   1.000000
    6        9.537378   1.000000
    7       11.221121  -0.000000
    8       11.623943  -0.000000
    9       13.675383   0.000000
   10       16.135984   0.000000

  0.1333333E+00  0.1333333E+00  0.1333333E+00  0.3555556E-02
    1       -4.047881   1.000000
    2        2.903882   1.000000
    3        3.893320   1.000000
    4        4.941132   1.000000
    5        6.933939   1.000000
    6        7.714451   1.000000
    7       11.206813  -0.000000
    8       11.406508  -0.000000
    9       12.771124  -0.000000
   10       15.852756   0.000000

  0.2000000E+00  0.1333333E+00  0.1333333E+00  0.7111111E-02
    1       -3.511685   1.000000
    2        2.139128   1.000000
    3        3.538230   1.000000
    4        4.824188   1.000000
    5        6.805722   1.000000
    6        7.701866   1.000000
    7       11.124888  -0.000000
    8       11.661468  -0.000000
    9       13.353441   0.000000
   10       15.606152   0.000000

  0.2666667E+00  0.1333333E+00  0.1333333E+00  0.7111111E-02
    1       -2.863293   1.000000
    2        1.281653   1.000000
    3        3.315188   1.000000
    4        4.642874   1.000000
    5        6.283666   1.000000
    6        8.273957   1.000000
    7       10.937779  -0.000000
    8       11.969284  -0.000000
    9       13.696935   0.000000
   10       15.861749   0.000000

  0.3333333E+00  0.1333333E+00  0.1333333E+00  0.7111111E-02
    1       -2.126359   1.000000
    2        0.399461   1.000000
    3        3.190978   1.000000
    4        4.470167   1.000000
    5        5.867844   1.000000
    6        8.846750   1.000000
    7       10.849254  -0.000000
    8       12.119298  -0.000000
    9       13.835052   0.000000
   10       16.325018   0.000000

  0.4000000E+00  0.1333333E+00  0.1333333E+00  0.7111111E-02
    1       -1.323593   1.000000
    2       -0.475435   1.000000
    3        3.137302   1.000000
    4        4.369067   1.000000
    5        5.642715   1.000000
    6        9.185772   1.000000
    7       10.884447  -0.000000
    8       12.105786  -0.000000
    9       13.938411   0.000000
   10       16.493503   0.000000

  0.2000000E+00  0.2000000E+00  0.1333333E+00  0.3555556E-02
    1       -2.927706   1.000000
    2        1.608617   1.000000
    3        2.942958   1.000000
    4        4.690187   1.000000
    5        6.678049   1.000000
    6        7.804109   1.000000
    7       10.834895  -0.000000
    8       12.118907  -0.000000
    9       14.148812   0.000000
   10       15.500806   0.000000

  0.2666667E+00  0.2000000E+00  0.1333333E+00  0.7111111E-02
    1       -2.241762   1.000000
    2        0.940338   1.000000
    3        2.541052   1.000000
    4        4.577328   1.000000
    5        6.152369   1.000000
    6        8.470839   1.000000
    7       10.559222  -0.035097
    8       12.318208  -0.000000
    9       14.681368   0.000000
   10       15.834369   0.000000
