   69   69   85    1
  0.2263277E+02  0.1053953E-08  0.6141200E-09  0.2412750E-08  0.5000000E-15
   1.0000000000000000E-004
  CAR 
 Name                                    
    264     23    168

  0.3742002E-15  0.3742002E-15  0.1262379E-14  0.2222222E-01
    1      -14.108709   1.000000
    2      -13.121123   1.000000
    3      -12.967996   1.000000
    4      -12.552259   1.000000
    5      -11.992541   1.000000
    6      -11.802213   1.000000
    7      -11.780712   1.000000
    8      -11.719955   1.000000
    9      -11.595101   1.000000
   10      -11.374442   1.000000
   11      -11.248684   1.000000
   12      -11.111029   1.000000
   13      -10.984812   1.000000
   14      -10.565408   1.000000
   15      -10.345192   1.000000
   16      -10.319725   1.000000
   17      -10.249524   1.000000
   18      -10.057666   1.000000
   19      -10.017914   1.000000
   20       -9.801756   1.000000
   21       -9.743759   1.000000
   22       -9.598332   1.000000
   23       -9.294602   1.000000
   24       -9.138954   1.000000
   25       -9.046960   1.000000
   26       -8.873657   1.000000
   27       -8.599800   1.000000
   28       -8.441744   1.000000
   29       -8.339761   1.000000
   30       -8.263750   1.000000
   31       -8.226102   1.000000
   32       -7.953960   1.000000
   33       -7.668417   1.000000
   34       -7.371217   1.000000
   35       -7.249660   1.000000
   36       -7.233978   1.000000
   37       -7.145190   1.000000
   38       -6.982058   1.000000
   39       -6.901605   1.000000
   40       -6.825488   1.000000
   41       -6.819915   1.000000
   42       -6.758907   1.000000
   43       -6.643125   1.000000
   44       -6.552245   1.000000
   45       -6.509910   1.000000
   46       -6.461906   1.000000
   47       -6.258725   1.000000
   48       -6.205207   1.000000
   49       -6.180289   1.000000
   50       -5.999849   1.000000
   51       -5.933938   1.000000
   52       -5.875274   1.000000
   53       -5.787974   1.000000
   54       -5.741835   1.000000
   55       -5.678037   1.000000
   56       -5.571898   1.000000
   57       -5.378291   1.000000
   58       -5.366530   1.000000
   59       -5.289928   1.000000
   60       -5.209129   1.000000
   61       -5.066643   1.000000
   62       -4.910507   1.000000
   63       -4.871592   1.000000
   64       -4.795469   1.000000
   65       -4.757795   1.000000
   66       -4.732809   1.000000
   67       -4.681560   1.000000
   68       -4.655479   1.000000
   69       -4.634523   1.000000
   70       -4.488601   1.000000
   71       -4.428862   1.000000
   72       -4.409750   1.000000
   73       -4.384969   1.000000
   74       -4.214879   1.000000
   75       -4.183213   1.000000
   76       -4.130713   1.000000
   77       -3.997311   1.000000
   78       -3.938918   1.000000
   79       -3.926311   1.000000
   80       -3.830443   1.000000
   81       -3.787808   1.000000
   82       -3.639375   1.000000
   83       -3.540027   1.000000
   84       -3.536930   1.000000
   85       -3.510391   1.000000
   86       -3.467498   1.000000
   87       -3.405438   1.000000
   88       -3.343247   1.000000
   89       -3.257349   1.000000
   90       -3.246904   1.000000
   91       -3.100020   1.000000
   92       -3.092273   1.000000
   93       -3.012794   1.000000
   94       -2.878628   1.000000
   95       -2.841482   1.000000
   96       -2.827638   1.000000
   97       -2.753583   1.000000
   98       -2.620978   1.000000
   99       -2.606851   1.000000
  100       -2.530144   1.000000
  101       -2.500611   1.000000
  102       -2.486525   1.000000
  103       -2.338528   1.000000
  104       -2.320813   1.000000
  105       -2.311702   1.000000
  106       -2.267729   1.000000
  107       -2.196395   1.000000
  108       -2.189327   1.000000
  109       -2.151615   1.000000
  110       -2.133241   1.000000
  111       -1.950381   1.000000
  112       -1.895284   1.000000
  113       -1.870050   1.000000
  114       -1.655789   1.000000
  115       -1.499571   1.000000
  116       -1.476360   1.000000
  117       -1.336081   1.000000
  118       -1.288942   1.000000
  119       -1.193213   1.000000
  120       -1.089356   1.000000
  121       -1.080608   1.000000
  122       -1.035615   1.000000
  123       -0.814908   1.000001
  124       -0.674275   1.000113
  125       -0.625691   1.000405
  126       -0.494954   1.006364
  127       -0.457458   1.011512
  128       -0.355703   1.032732
  129       -0.309365   1.034241
  130       -0.217287   0.952813
  131       -0.183085   0.875166
  132       -0.107040   0.608236
  133       -0.096261   0.563430
  134        0.015931   0.137814
  135        0.044169   0.068254
  136        0.079844   0.008599
  137        0.085191   0.002196
  138        0.133824  -0.031276
  139        0.191237  -0.033057
  140        0.242691  -0.022163
  141        0.423594  -0.001039
  142        0.497198  -0.000169
  143        0.571891  -0.000020
  144        0.597542  -0.000009
  145        0.672359  -0.000001
  146        0.760833  -0.000000
  147        0.819915  -0.000000
  148        0.865338  -0.000000
  149        0.932123  -0.000000
  150        0.986396  -0.000000
  151        1.002514  -0.000000
  152        1.028122  -0.000000
  153        1.084809  -0.000000
  154        1.105930  -0.000000
  155        1.126879  -0.000000
  156        1.145681  -0.000000
  157        1.185846  -0.000000
  158        1.240433  -0.000000
  159        1.254468  -0.000000
  160        1.291161  -0.000000
  161        1.314729  -0.000000
  162        1.386588  -0.000000
  163        1.418269  -0.000000
  164        1.436786  -0.000000
  165        1.481526  -0.000000
  166        1.522543  -0.000000
  167        1.560230  -0.000000
  168        1.614195  -0.000000

  0.2000000E+00  0.3742002E-15  0.1262379E-14  0.4444444E-01
    1      -14.067870   1.000000
    2      -13.366490   1.000000
    3      -12.831582   1.000000
    4      -12.331439   1.000000
    5      -12.110125   1.000000
    6      -11.983329   1.000000
    7      -11.816975   1.000000
    8      -11.563128   1.000000
    9      -11.392163   1.000000
   10      -11.375659   1.000000
   11      -11.212542   1.000000
   12      -11.039933   1.000000
   13      -10.976215   1.000000
   14      -10.721972   1.000000
   15      -10.633492   1.000000
   16      -10.461270   1.000000
   17      -10.345129   1.000000
   18      -10.042074   1.000000
   19       -9.850257   1.000000
   20       -9.779031   1.000000
   21       -9.585597   1.000000
   22       -9.559846   1.000000
   23       -9.395437   1.000000
   24       -9.138156   1.000000
   25       -9.097491   1.000000
   26       -8.821843   1.000000
   27       -8.426314   1.000000
   28       -8.329470   1.000000
   29       -8.241772   1.000000
   30       -8.184884   1.000000
   31       -8.166829   1.000000
   32       -8.140716   1.000000
   33       -7.583480   1.000000
   34       -7.551117   1.000000
   35       -7.376172   1.000000
   36       -7.316790   1.000000
   37       -7.272433   1.000000
   38       -7.047603   1.000000
   39       -6.921384   1.000000
   40       -6.887579   1.000000
   41       -6.777668   1.000000
   42       -6.757478   1.000000
   43       -6.633999   1.000000
   44       -6.540018   1.000000
   45       -6.491174   1.000000
   46       -6.407333   1.000000
   47       -6.231938   1.000000
   48       -6.187726   1.000000
   49       -6.086904   1.000000
   50       -6.031025   1.000000
   51       -5.920866   1.000000
   52       -5.851153   1.000000
   53       -5.718464   1.000000
   54       -5.699424   1.000000
   55       -5.566291   1.000000
   56       -5.538193   1.000000
   57       -5.487569   1.000000
   58       -5.370871   1.000000
   59       -5.326851   1.000000
   60       -5.191590   1.000000
   61       -5.036809   1.000000
   62       -4.974646   1.000000
   63       -4.879739   1.000000
   64       -4.867636   1.000000
   65       -4.761799   1.000000
   66       -4.745080   1.000000
   67       -4.656478   1.000000
   68       -4.587646   1.000000
   69       -4.575623   1.000000
   70       -4.542525   1.000000
   71       -4.420403   1.000000
   72       -4.414392   1.000000
   73       -4.329686   1.000000
   74       -4.222289   1.000000
   75       -4.184935   1.000000
   76       -4.057817   1.000000
   77       -4.034010   1.000000
   78       -4.010898   1.000000
   79       -3.951895   1.000000
   80       -3.843768   1.000000
   81       -3.721984   1.000000
   82       -3.635201   1.000000
   83       -3.608600   1.000000
   84       -3.576184   1.000000
   85       -3.502360   1.000000
   86       -3.488202   1.000000
   87       -3.416327   1.000000
   88       -3.325665   1.000000
   89       -3.286923   1.000000
   90       -3.211876   1.000000
   91       -3.176127   1.000000
   92       -3.168838   1.000000
   93       -3.029754   1.000000
   94       -2.886229   1.000000
   95       -2.835353   1.000000
   96       -2.736851   1.000000
   97       -2.723438   1.000000
   98       -2.654429   1.000000
   99       -2.620004   1.000000
  100       -2.544794   1.000000
  101       -2.484843   1.000000
  102       -2.430064   1.000000
  103       -2.357376   1.000000
  104       -2.329946   1.000000
  105       -2.272181   1.000000
  106       -2.211980   1.000000
  107       -2.186593   1.000000
  108       -2.151202   1.000000
  109       -2.115197   1.000000
  110       -2.055863   1.000000
  111       -1.938588   1.000000
  112       -1.871695   1.000000
  113       -1.795692   1.000000
  114       -1.648537   1.000000
  115       -1.533967   1.000000
  116       -1.502117   1.000000
  117       -1.424290   1.000000
  118       -1.298226   1.000000
  119       -1.204140   1.000000
  120       -1.131257   1.000000
  121       -1.105046   1.000000
  122       -1.036336   1.000000
  123       -0.862820   1.000000
  124       -0.731709   1.000021
  125       -0.609541   1.000601
  126       -0.526783   1.003579
  127       -0.473351   1.009060
  128       -0.413902   1.020169
  129       -0.374867   1.029043
  130       -0.264727   1.014314
  131       -0.244551   0.994182
  132       -0.159431   0.804539
  133       -0.120435   0.662434
  134       -0.003949   0.198511
  135        0.057068   0.043143
  136        0.102212  -0.014260
  137        0.110909  -0.020549
  138        0.235548  -0.023813
  139        0.246727  -0.021239
  140        0.320228  -0.007809
  141        0.390609  -0.002123
  142        0.524576  -0.000079
  143        0.552672  -0.000035
  144        0.648299  -0.000002
  145        0.753800  -0.000000
  146        0.802081  -0.000000
  147        0.835652  -0.000000
  148        0.852548  -0.000000
  149        0.892199  -0.000000
  150        0.941761  -0.000000
  151        0.987653  -0.000000
  152        1.033453  -0.000000
  153        1.109601  -0.000000
  154        1.128554  -0.000000
  155        1.166948  -0.000000
  156        1.198272  -0.000000
  157        1.208957  -0.000000
  158        1.245932  -0.000000
  159        1.269666  -0.000000
  160        1.328135  -0.000000
  161        1.353850  -0.000000
  162        1.399743  -0.000000
  163        1.435954  -0.000000
  164        1.461898  -0.000000
  165        1.485121  -0.000000
  166        1.531461  -0.000000
  167        1.556733  -0.000000
  168        1.582019  -0.000000

  0.4000000E+00  0.3742002E-15  0.1262379E-14  0.4444444E-01
    1      -13.964260   1.000000
    2      -13.623001   1.000000
    3      -12.705337   1.000000
    4      -12.375347   1.000000
    5      -11.963260   1.000000
    6      -11.868955   1.000000
    7      -11.854212   1.000000
    8      -11.524252   1.000000
    9      -11.404403   1.000000
   10      -11.310052   1.000000
   11      -11.140091   1.000000
   12      -11.105621   1.000000
   13      -10.967264   1.000000
   14      -10.836733   1.000000
   15      -10.742718   1.000000
   16      -10.621026   1.000000
   17      -10.360299   1.000000
   18      -10.143243   1.000000
   19      -10.008704   1.000000
   20       -9.836254   1.000000
   21       -9.554802   1.000000
   22       -9.440960   1.000000
   23       -9.224427   1.000000
   24       -9.054282   1.000000
   25       -9.016704   1.000000
   26       -8.830805   1.000000
   27       -8.469151   1.000000
   28       -8.237242   1.000000
   29       -8.046410   1.000000
   30       -8.008049   1.000000
   31       -7.977070   1.000000
   32       -7.880441   1.000000
   33       -7.814793   1.000000
   34       -7.761239   1.000000
   35       -7.601162   1.000000
   36       -7.592725   1.000000
   37       -7.344709   1.000000
   38       -7.295908   1.000000
   39       -7.145742   1.000000
   40       -6.850170   1.000000
   41       -6.699141   1.000000
   42       -6.682391   1.000000
   43       -6.619276   1.000000
   44       -6.530092   1.000000
   45       -6.315650   1.000000
   46       -6.256799   1.000000
   47       -6.201278   1.000000
   48       -6.177552   1.000000
   49       -6.084461   1.000000
   50       -6.076907   1.000000
   51       -5.868534   1.000000
   52       -5.859690   1.000000
   53       -5.709197   1.000000
   54       -5.693409   1.000000
   55       -5.617306   1.000000
   56       -5.497656   1.000000
   57       -5.410136   1.000000
   58       -5.302939   1.000000
   59       -5.296231   1.000000
   60       -5.231883   1.000000
   61       -5.059305   1.000000
   62       -4.929387   1.000000
   63       -4.916902   1.000000
   64       -4.845111   1.000000
   65       -4.808936   1.000000
   66       -4.755379   1.000000
   67       -4.687126   1.000000
   68       -4.628334   1.000000
   69       -4.572778   1.000000
   70       -4.480502   1.000000
   71       -4.461150   1.000000
   72       -4.305346   1.000000
   73       -4.271477   1.000000
   74       -4.226980   1.000000
   75       -4.133643   1.000000
   76       -4.108784   1.000000
   77       -4.078503   1.000000
   78       -4.063752   1.000000
   79       -3.890008   1.000000
   80       -3.836850   1.000000
   81       -3.751420   1.000000
   82       -3.708813   1.000000
   83       -3.661188   1.000000
   84       -3.627106   1.000000
   85       -3.549414   1.000000
   86       -3.439506   1.000000
   87       -3.409836   1.000000
   88       -3.327544   1.000000
   89       -3.318175   1.000000
   90       -3.284737   1.000000
   91       -3.160154   1.000000
   92       -3.131056   1.000000
   93       -3.069330   1.000000
   94       -3.032597   1.000000
   95       -2.866630   1.000000
   96       -2.757974   1.000000
   97       -2.712703   1.000000
   98       -2.641550   1.000000
   99       -2.576076   1.000000
  100       -2.495081   1.000000
  101       -2.475467   1.000000
  102       -2.423277   1.000000
  103       -2.394113   1.000000
  104       -2.201106   1.000000
  105       -2.191741   1.000000
  106       -2.168964   1.000000
  107       -2.085039   1.000000
  108       -2.068903   1.000000
  109       -2.038681   1.000000
  110       -1.947600   1.000000
  111       -1.840776   1.000000
  112       -1.823826   1.000000
  113       -1.740758   1.000000
  114       -1.693861   1.000000
  115       -1.643251   1.000000
  116       -1.549130   1.000000
  117       -1.510083   1.000000
  118       -1.383549   1.000000
  119       -1.272128   1.000000
  120       -1.187688   1.000000
  121       -1.121008   1.000000
  122       -0.994249   1.000000
  123       -0.942512   1.000000
  124       -0.829894   1.000001
  125       -0.662283   1.000157
  126       -0.552404   1.002151
  127       -0.526180   1.003620
  128       -0.489948   1.006926
  129       -0.464735   1.010339
  130       -0.353874   1.033027
  131       -0.311605   1.034557
  132       -0.209153   0.937011
  133       -0.046687   0.356249
  134       -0.002281   0.193066
  135        0.066704   0.027046
  136        0.109731  -0.019775
  137        0.148928  -0.034527
  138        0.250684  -0.020342
  139        0.319728  -0.007872
  140        0.365532  -0.003498
  141        0.495752  -0.000175
  142        0.524236  -0.000080
  143        0.616630  -0.000005
  144        0.673256  -0.000001
  145        0.731494  -0.000000
  146        0.752805  -0.000000
  147        0.875439  -0.000000
  148        0.907781  -0.000000
  149        0.980661  -0.000000
  150        1.000840  -0.000000
  151        1.021133  -0.000000
  152        1.073790  -0.000000
  153        1.075551  -0.000000
  154        1.135175  -0.000000
  155        1.161075  -0.000000
  156        1.192230  -0.000000
  157        1.226136  -0.000000
  158        1.274665  -0.000000
  159        1.301243  -0.000000
  160        1.349506  -0.000000
  161        1.411162  -0.000000
  162        1.440635  -0.000000
  163        1.468327  -0.000000
  164        1.490998  -0.000000
  165        1.507500  -0.000000
  166        1.541136  -0.000000
  167        1.581920  -0.000000
  168        1.671087  -0.000000

  0.3742002E-15  0.1111111E+00  0.1262379E-14  0.4444444E-01
    1      -14.063059   1.000000
    2      -13.082326   1.000000
    3      -12.933139   1.000000
    4      -12.522056   1.000000
    5      -12.088922   1.000000
    6      -11.818529   1.000000
    7      -11.766801   1.000000
    8      -11.697588   1.000000
    9      -11.639995   1.000000
   10      -11.394390   1.000000
   11      -11.257186   1.000000
   12      -11.086001   1.000000
   13      -11.010731   1.000000
   14      -10.563023   1.000000
   15      -10.362962   1.000000
   16      -10.284572   1.000000
   17      -10.242781   1.000000
   18      -10.071290   1.000000
   19       -9.990058   1.000000
   20       -9.830527   1.000000
   21       -9.737390   1.000000
   22       -9.597723   1.000000
   23       -9.286418   1.000000
   24       -9.173048   1.000000
   25       -9.062450   1.000000
   26       -8.849985   1.000000
   27       -8.587781   1.000000
   28       -8.444330   1.000000
   29       -8.355727   1.000000
   30       -8.295068   1.000000
   31       -8.074680   1.000000
   32       -7.962292   1.000000
   33       -7.758671   1.000000
   34       -7.477098   1.000000
   35       -7.355425   1.000000
   36       -7.202248   1.000000
   37       -7.117838   1.000000
   38       -6.916215   1.000000
   39       -6.876600   1.000000
   40       -6.844544   1.000000
   41       -6.791713   1.000000
   42       -6.713529   1.000000
   43       -6.622649   1.000000
   44       -6.524460   1.000000
   45       -6.497116   1.000000
   46       -6.459655   1.000000
   47       -6.286795   1.000000
   48       -6.220085   1.000000
   49       -6.124525   1.000000
   50       -5.984758   1.000000
   51       -5.924687   1.000000
   52       -5.902249   1.000000
   53       -5.839489   1.000000
   54       -5.708195   1.000000
   55       -5.575887   1.000000
   56       -5.492351   1.000000
   57       -5.419208   1.000000
   58       -5.348178   1.000000
   59       -5.233857   1.000000
   60       -5.178264   1.000000
   61       -5.047740   1.000000
   62       -4.925629   1.000000
   63       -4.883246   1.000000
   64       -4.792651   1.000000
   65       -4.783836   1.000000
   66       -4.740062   1.000000
   67       -4.719420   1.000000
   68       -4.658108   1.000000
   69       -4.602262   1.000000
   70       -4.483373   1.000000
   71       -4.437029   1.000000
   72       -4.383049   1.000000
   73       -4.365155   1.000000
   74       -4.231285   1.000000
   75       -4.192519   1.000000
   76       -4.100789   1.000000
   77       -4.027026   1.000000
   78       -3.985352   1.000000
   79       -3.949325   1.000000
   80       -3.885206   1.000000
   81       -3.795892   1.000000
   82       -3.714875   1.000000
   83       -3.671291   1.000000
   84       -3.576039   1.000000
   85       -3.483380   1.000000
   86       -3.445203   1.000000
   87       -3.385550   1.000000
   88       -3.338501   1.000000
   89       -3.310678   1.000000
   90       -3.259600   1.000000
   91       -3.179432   1.000000
   92       -3.080811   1.000000
   93       -3.002986   1.000000
   94       -2.907611   1.000000
   95       -2.870954   1.000000
   96       -2.831304   1.000000
   97       -2.726995   1.000000
   98       -2.690204   1.000000
   99       -2.583370   1.000000
  100       -2.567841   1.000000
  101       -2.546393   1.000000
  102       -2.499864   1.000000
  103       -2.388457   1.000000
  104       -2.350682   1.000000
  105       -2.331394   1.000000
  106       -2.285724   1.000000
  107       -2.196451   1.000000
  108       -2.119393   1.000000
  109       -2.091932   1.000000
  110       -2.035032   1.000000
  111       -1.997275   1.000000
  112       -1.880585   1.000000
  113       -1.811364   1.000000
  114       -1.674359   1.000000
  115       -1.576370   1.000000
  116       -1.494246   1.000000
  117       -1.379138   1.000000
  118       -1.208691   1.000000
  119       -1.163066   1.000000
  120       -1.109058   1.000000
  121       -1.042694   1.000000
  122       -0.930388   1.000000
  123       -0.792727   1.000003
  124       -0.737093   1.000018
  125       -0.615118   1.000525
  126       -0.477258   1.008519
  127       -0.445240   1.013672
  128       -0.408608   1.021368
  129       -0.352213   1.033283
  130       -0.296188   1.031251
  131       -0.235039   0.981708
  132       -0.103086   0.591897
  133       -0.045494   0.351456
  134       -0.022600   0.263361
  135        0.068224   0.024708
  136        0.095473  -0.008432
  137        0.131833  -0.030643
  138        0.191248  -0.033055
  139        0.273956  -0.015375
  140        0.311264  -0.009009
  141        0.422061  -0.001076
  142        0.514402  -0.000105
  143        0.593315  -0.000010
  144        0.616950  -0.000005
  145        0.684056  -0.000000
  146        0.730990  -0.000000
  147        0.810701  -0.000000
  148        0.828926  -0.000000
  149        0.914792  -0.000000
  150        0.976575  -0.000000
  151        0.982496  -0.000000
  152        1.023240  -0.000000
  153        1.069644  -0.000000
  154        1.089290  -0.000000
  155        1.117652  -0.000000
  156        1.173086  -0.000000
  157        1.198992  -0.000000
  158        1.233937  -0.000000
  159        1.272237  -0.000000
  160        1.299497  -0.000000
  161        1.322620  -0.000000
  162        1.353600  -0.000000
  163        1.400315  -0.000000
  164        1.414839  -0.000000
  165        1.481714  -0.000000
  166        1.529344  -0.000000
  167        1.535544  -0.000000
  168        1.580471  -0.000000

  0.2000000E+00  0.1111111E+00  0.1262379E-14  0.4444444E-01
    1      -14.022620   1.000000
    2      -13.326839   1.000000
    3      -12.794993   1.000000
    4      -12.308978   1.000000
    5      -12.087082   1.000000
    6      -12.064621   1.000000
    7      -11.863227   1.000000
    8      -11.598783   1.000000
    9      -11.417135   1.000000
   10      -11.344722   1.000000
   11      -11.224575   1.000000
   12      -11.024734   1.000000
   13      -10.990734   1.000000
   14      -10.705317   1.000000
   15      -10.631552   1.000000
   16      -10.443329   1.000000
   17      -10.355797   1.000000
   18      -10.056025   1.000000
   19       -9.847253   1.000000
   20       -9.768688   1.000000
   21       -9.597333   1.000000
   22       -9.550286   1.000000
   23       -9.398792   1.000000
   24       -9.140153   1.000000
   25       -9.121099   1.000000
   26       -8.815124   1.000000
   27       -8.424959   1.000000
   28       -8.349532   1.000000
   29       -8.238947   1.000000
   30       -8.204891   1.000000
   31       -8.151179   1.000000
   32       -8.019415   1.000000
   33       -7.665146   1.000000
   34       -7.637070   1.000000
   35       -7.393805   1.000000
   36       -7.334568   1.000000
   37       -7.182901   1.000000
   38       -7.030310   1.000000
   39       -6.898704   1.000000
   40       -6.881152   1.000000
   41       -6.832108   1.000000
   42       -6.727886   1.000000
   43       -6.621015   1.000000
   44       -6.551090   1.000000
   45       -6.523235   1.000000
   46       -6.451640   1.000000
   47       -6.268049   1.000000
   48       -6.118852   1.000000
   49       -6.018565   1.000000
   50       -5.979417   1.000000
   51       -5.939808   1.000000
   52       -5.817630   1.000000
   53       -5.709629   1.000000
   54       -5.653489   1.000000
   55       -5.596940   1.000000
   56       -5.503207   1.000000
   57       -5.442639   1.000000
   58       -5.344587   1.000000
   59       -5.284728   1.000000
   60       -5.169590   1.000000
   61       -5.029983   1.000000
   62       -4.961212   1.000000
   63       -4.900308   1.000000
   64       -4.847725   1.000000
   65       -4.766501   1.000000
   66       -4.724675   1.000000
   67       -4.684670   1.000000
   68       -4.622825   1.000000
   69       -4.547793   1.000000
   70       -4.519075   1.000000
   71       -4.476182   1.000000
   72       -4.392779   1.000000
   73       -4.299603   1.000000
   74       -4.225719   1.000000
   75       -4.205453   1.000000
   76       -4.072424   1.000000
   77       -4.068279   1.000000
   78       -4.018712   1.000000
   79       -3.943278   1.000000
   80       -3.853805   1.000000
   81       -3.813251   1.000000
   82       -3.717194   1.000000
   83       -3.662541   1.000000
   84       -3.621341   1.000000
   85       -3.521098   1.000000
   86       -3.442422   1.000000
   87       -3.402454   1.000000
   88       -3.360975   1.000000
   89       -3.306129   1.000000
   90       -3.264204   1.000000
   91       -3.224659   1.000000
   92       -3.149279   1.000000
   93       -2.993476   1.000000
   94       -2.923213   1.000000
   95       -2.852529   1.000000
   96       -2.750942   1.000000
   97       -2.741004   1.000000
   98       -2.642755   1.000000
   99       -2.626214   1.000000
  100       -2.567237   1.000000
  101       -2.504438   1.000000
  102       -2.456095   1.000000
  103       -2.412635   1.000000
  104       -2.371817   1.000000
  105       -2.336309   1.000000
  106       -2.269520   1.000000
  107       -2.164934   1.000000
  108       -2.088951   1.000000
  109       -2.057569   1.000000
  110       -1.975746   1.000000
  111       -1.933155   1.000000
  112       -1.893452   1.000000
  113       -1.828660   1.000000
  114       -1.646078   1.000000
  115       -1.577784   1.000000
  116       -1.528866   1.000000
  117       -1.395804   1.000000
  118       -1.276980   1.000000
  119       -1.227759   1.000000
  120       -1.108340   1.000000
  121       -1.049272   1.000000
  122       -0.986269   1.000000
  123       -0.840956   1.000001
  124       -0.739907   1.000016
  125       -0.590293   1.000943
  126       -0.536767   1.002949
  127       -0.464638   1.010354
  128       -0.415017   1.019919
  129       -0.380436   1.027827
  130       -0.316425   1.035067
  131       -0.244234   0.993799
  132       -0.146886   0.761933
  133       -0.063328   0.424608
  134        0.005040   0.169921
  135        0.045671   0.065115
  136        0.094771  -0.007774
  137        0.165924  -0.035440
  138        0.231209  -0.024817
  139        0.281024  -0.014003
  140        0.387049  -0.002284
  141        0.428525  -0.000929
  142        0.492203  -0.000193
  143        0.576388  -0.000017
  144        0.656470  -0.000001
  145        0.724106  -0.000000
  146        0.783991  -0.000000
  147        0.815829  -0.000000
  148        0.883820  -0.000000
  149        0.890851  -0.000000
  150        0.958787  -0.000000
  151        1.005512  -0.000000
  152        1.052116  -0.000000
  153        1.082972  -0.000000
  154        1.108384  -0.000000
  155        1.133771  -0.000000
  156        1.172925  -0.000000
  157        1.205294  -0.000000
  158        1.223262  -0.000000
  159        1.289449  -0.000000
  160        1.323426  -0.000000
  161        1.340717  -0.000000
  162        1.382142  -0.000000
  163        1.429019  -0.000000
  164        1.446682  -0.000000
  165        1.480008  -0.000000
  166        1.501064  -0.000000
  167        1.566973  -0.000000
  168        1.617495  -0.000000

  0.4000000E+00  0.1111111E+00  0.1262379E-14  0.4444444E-01
    1      -13.919806   1.000000
    2      -13.581481   1.000000
    3      -12.669245   1.000000
    4      -12.344458   1.000000
    5      -12.053908   1.000000
    6      -11.931671   1.000000
    7      -11.825447   1.000000
    8      -11.550984   1.000000
    9      -11.425794   1.000000
   10      -11.284002   1.000000
   11      -11.150501   1.000000
   12      -11.081215   1.000000
   13      -10.992910   1.000000
   14      -10.814212   1.000000
   15      -10.747518   1.000000
   16      -10.599008   1.000000
   17      -10.370422   1.000000
   18      -10.131678   1.000000
   19      -10.021418   1.000000
   20       -9.848208   1.000000
   21       -9.564116   1.000000
   22       -9.418893   1.000000
   23       -9.226524   1.000000
   24       -9.083855   1.000000
   25       -9.014755   1.000000
   26       -8.822829   1.000000
   27       -8.472618   1.000000
   28       -8.274501   1.000000
   29       -8.034018   1.000000
   30       -8.002858   1.000000
   31       -7.915182   1.000000
   32       -7.867186   1.000000
   33       -7.839605   1.000000
   34       -7.758754   1.000000
   35       -7.617959   1.000000
   36       -7.464500   1.000000
   37       -7.399575   1.000000
   38       -7.308118   1.000000
   39       -7.143526   1.000000
   40       -6.948847   1.000000
   41       -6.785615   1.000000
   42       -6.696184   1.000000
   43       -6.605385   1.000000
   44       -6.505737   1.000000
   45       -6.297537   1.000000
   46       -6.269313   1.000000
   47       -6.182497   1.000000
   48       -6.159462   1.000000
   49       -6.090700   1.000000
   50       -6.052319   1.000000
   51       -5.880418   1.000000