 running on   72 total cores
 distrk:  each k-point on   72 cores,    1 groups
 distr:  one band on    9 cores,    8 groups
 using from now: INCAR     
 vasp.5.4.4.18Apr17-6-g9f103f2a35 (build Dec  7 2020 12:43:57) complex           
 POSCAR found type information on POSCAR  Mo V  B 
 POSCAR found :  3 types and      69 ions
 scaLAPACK will be used
 LDA part: xc-table for Pade appr. of Perdew
 POSCAR, INCAR and KPOINTS ok, starting setup
 resort distribution
 resort distribution
 resort distribution
 resort distribution
 resort distribution
 resort distribution
 resort distribution
 resort distribution
 resort distribution
 resort distribution
 resort distribution
 resort distribution
 resort distribution
 resort distribution
 resort distribution
 resort distribution
 resort distribution
 resort distribution
 resort distribution
 resort distribution
 resort distribution
 resort distribution
 resort distribution
 resort distribution
 resort distribution
 resort distribution
 resort distribution
 resort distribution
 resort distribution
 resort distribution
 resort distribution
 resort distribution
 resort distribution
 resort distribution
 resort distribution
 resort distribution
 resort distribution
 resort distribution
 resort distribution
 resort distribution
 resort distribution
 resort distribution
 resort distribution
 resort distribution
 resort distribution
 resort distribution
 resort distribution
 resort distribution
 resort distribution
 resort distribution
 resort distribution
 resort distribution
 resort distribution
 resort distribution
 resort distribution
 resort distribution
 resort distribution
 resort distribution
 resort distribution
 resort distribution
 resort distribution
 resort distribution
 resort distribution
 resort distribution
 resort distribution
 resort distribution
 resort distribution
 resort distribution
 resort distribution
 resort distribution
 resort distribution
 resort distribution
 FFT: planning ...
 WAVECAR not read
 augmentation electrons   264.05176433950635     
 soft         electrons   0.0000000000000000     
 augmentation electrons   264.05176433950635     
 soft         electrons   0.0000000000000000     
 augmentation electrons   264.05176433950635     
 soft         electrons   0.0000000000000000     
 augmentation electrons   264.05176433950635     
 soft         electrons   0.0000000000000000     
 augmentation electrons   264.05176433950635     
 soft         electrons   0.0000000000000000     
 augmentation electrons   264.05176433950635     
 soft         electrons   0.0000000000000000     
 augmentation electrons   264.05176433950635     
 soft         electrons   0.0000000000000000     
 augmentation electrons   264.05176433950635     
 soft         electrons   0.0000000000000000     
 augmentation electrons   264.05176433950635     
 soft         electrons   0.0000000000000000     
 augmentation electrons   264.05176433950635     
 soft         electrons   0.0000000000000000     
 augmentation electrons   264.05176433950635     
 soft         electrons   0.0000000000000000     
 augmentation electrons   264.05176433950635     
 soft         electrons   0.0000000000000000     
 augmentation electrons   264.05176433950635     
 soft         electrons   0.0000000000000000     
 augmentation electrons   264.05176433950635     
 soft         electrons   0.0000000000000000     
 augmentation electrons   264.05176433950635     
 soft         electrons   0.0000000000000000     
 augmentation electrons   264.05176433950635     
 soft         electrons   0.0000000000000000     
 augmentation electrons   264.05176433950635     
 soft         electrons   0.0000000000000000     
 augmentation electrons   264.05176433950635     
 soft         electrons   0.0000000000000000     
 augmentation electrons   264.05176433950635     
 soft         electrons   0.0000000000000000     
 augmentation electrons   264.05176433950635     
 soft         electrons   0.0000000000000000     
 augmentation electrons   264.05176433950635     
 soft         electrons   0.0000000000000000     
 augmentation electrons   264.05176433950635     
 soft         electrons   0.0000000000000000     
 augmentation electrons   264.05176433950635     
 soft         electrons   0.0000000000000000     
 augmentation electrons   264.05176433950635     
 soft         electrons   0.0000000000000000     
 augmentation electrons   264.05176433950635     
 soft         electrons   0.0000000000000000     
 augmentation electrons   264.05176433950635     
 soft         electrons   0.0000000000000000     
 augmentation electrons   264.05176433950635     
 soft         electrons   0.0000000000000000     
 augmentation electrons   264.05176433950635     
 soft         electrons   0.0000000000000000     
 augmentation electrons   264.05176433950635     
 soft         electrons   0.0000000000000000     
 augmentation electrons   264.05176433950635     
 soft         electrons   0.0000000000000000     
 augmentation electrons   264.05176433950635     
 soft         electrons   0.0000000000000000     
 augmentation electrons   264.05176433950635     
 soft         electrons   0.0000000000000000     
 augmentation electrons   264.05176433950635     
 soft         electrons   0.0000000000000000     
 augmentation electrons   264.05176433950635     
 soft         electrons   0.0000000000000000     
 augmentation electrons   264.05176433950635     
 soft         electrons   0.0000000000000000     
 augmentation electrons   264.05176433950635     
 soft         electrons   0.0000000000000000     
 augmentation electrons   264.05176433950635     
 soft         electrons   0.0000000000000000     
 augmentation electrons   264.05176433950635     
 soft         electrons   0.0000000000000000     
 augmentation electrons   264.05176433950635     
 soft         electrons   0.0000000000000000     
 augmentation electrons   264.05176433950635     
 soft         electrons   0.0000000000000000     
 augmentation electrons   264.05176433950635     
 soft         electrons   0.0000000000000000     
 augmentation electrons   264.05176433950635     
 soft         electrons   0.0000000000000000     
 augmentation electrons   264.05176433950635     
 soft         electrons   0.0000000000000000     
 augmentation electrons   264.05176433950635     
 soft         electrons   0.0000000000000000     
 augmentation electrons   264.05176433950635     
 soft         electrons   0.0000000000000000     
 augmentation electrons   264.05176433950635     
 soft         electrons   0.0000000000000000     
 augmentation electrons   264.05176433950635     
 soft         electrons   0.0000000000000000     
 augmentation electrons   264.05176433950635     
 soft         electrons   0.0000000000000000     
 augmentation electrons   264.05176433950635     
 soft         electrons   0.0000000000000000     
 augmentation electrons   264.05176433950635     
 soft         electrons   0.0000000000000000     
 augmentation electrons   264.05176433950635     
 soft         electrons   0.0000000000000000     
 augmentation electrons   264.05176433950635     
 soft         electrons   0.0000000000000000     
 augmentation electrons   264.05176433950635     
 soft         electrons   0.0000000000000000     
 augmentation electrons   264.05176433950635     
 soft         electrons   0.0000000000000000     
 augmentation electrons   264.05176433950635     
 soft         electrons   0.0000000000000000     
 augmentation electrons   264.05176433950635     
 soft         electrons   0.0000000000000000     
 augmentation electrons   264.05176433950635     
 soft         electrons   0.0000000000000000     
 augmentation electrons   264.05176433950635     
 soft         electrons   0.0000000000000000     
 augmentation electrons   264.05176433950635     
 soft         electrons   0.0000000000000000     
 augmentation electrons   264.05176433950635     
 soft         electrons   0.0000000000000000     
 augmentation electrons   264.05176433950635     
 soft         electrons   0.0000000000000000     
 augmentation electrons   264.05176433950635     
 soft         electrons   0.0000000000000000     
 augmentation electrons   264.05176433950635     
 soft         electrons   0.0000000000000000     
 augmentation electrons   264.05176433950635     
 soft         electrons   0.0000000000000000     
 augmentation electrons   264.05176433950635     
 soft         electrons   0.0000000000000000     
 augmentation electrons   264.05176433950635     
 soft         electrons   0.0000000000000000     
 augmentation electrons   264.05176433950635     
 soft         electrons   0.0000000000000000     
 augmentation electrons   264.05176433950635     
 soft         electrons   0.0000000000000000     
 augmentation electrons   264.05176433950635     
 soft         electrons   0.0000000000000000     
 augmentation electrons   264.05176433950635     
 soft         electrons   0.0000000000000000     
 augmentation electrons   264.05176433950635     
 soft         electrons   0.0000000000000000     
 augmentation electrons   264.05176433950635     
 soft         electrons   0.0000000000000000     
 total        electrons   264.05176433950635     
 total        electrons   264.05176433950635     
 total        electrons   264.05176433950635     
 total        electrons   264.05176433950635     
 total        electrons   264.05176433950635     
 total        electrons   264.05176433950635     
 total        electrons   264.05176433950635     
 total        electrons   264.05176433950635     
 total        electrons   264.05176433950635     
 total        electrons   264.05176433950635     
 total        electrons   264.05176433950635     
 total        electrons   264.05176433950635     
 total        electrons   264.05176433950635     
 total        electrons   264.05176433950635     
 total        electrons   264.05176433950635     
 total        electrons   264.05176433950635     
 total        electrons   264.05176433950635     
 total        electrons   264.05176433950635     
 total        electrons   264.05176433950635     
 total        electrons   264.05176433950635     
 total        electrons   264.05176433950635     
 total        electrons   264.05176433950635     
 total        electrons   264.05176433950635     
 total        electrons   264.05176433950635     
 total        electrons   264.05176433950635     
 total        electrons   264.05176433950635     
 total        electrons   264.05176433950635     
 total        electrons   264.05176433950635     
 total        electrons   264.05176433950635     
 total        electrons   264.05176433950635     
 total        electrons   264.05176433950635     
 total        electrons   264.05176433950635     
 total        electrons   264.05176433950635     
 total        electrons   264.05176433950635     
 total        electrons   264.05176433950635     
 total        electrons   264.05176433950635     
 total        electrons   264.05176433950635     
 total        electrons   264.05176433950635     
 total        electrons   264.05176433950635     
 total        electrons   264.05176433950635     
 total        electrons   264.05176433950635     
 total        electrons   264.05176433950635     
 total        electrons   264.05176433950635     
 total        electrons   264.05176433950635     
 total        electrons   264.05176433950635     
 total        electrons   264.05176433950635     
 total        electrons   264.05176433950635     
 total        electrons   264.05176433950635     
 total        electrons   264.05176433950635     
 total        electrons   264.05176433950635     
 total        electrons   264.05176433950635     
 total        electrons   264.05176433950635     
 total        electrons   264.05176433950635     
 total        electrons   264.05176433950635     
 total        electrons   264.05176433950635     
 total        electrons   264.05176433950635     
 total        electrons   264.05176433950635     
 total        electrons   264.05176433950635     
 total        electrons   264.05176433950635     
 total        electrons   264.05176433950635     
 total        electrons   264.05176433950635     
 total        electrons   264.05176433950635     
 total        electrons   264.05176433950635     
 total        electrons   264.05176433950635     
 total        electrons   264.05176433950635     
 total        electrons   264.05176433950635     
 total        electrons   264.05176433950635     
 total        electrons   264.05176433950635     
 total        electrons   264.05176433950635     
 total        electrons   264.05176433950635     
 total        electrons   264.05176433950635     
 total        electrons   264.05176433950635     
 augmentation electrons   1070.5502341128736     
 soft         electrons   0.0000000000000000     
 total        electrons   1070.5502341128736     
 augmentation electrons   1070.5502341128736     
 soft         electrons   0.0000000000000000     
 total        electrons   1070.5502341128736     
 augmentation electrons   1070.5502341128736     
 soft         electrons   0.0000000000000000     
 augmentation electrons   1070.5502341128736     
 soft         electrons   0.0000000000000000     
 total        electrons   1070.5502341128736     
 augmentation electrons   1070.5502341128736     
 soft         electrons   0.0000000000000000     
 total        electrons   1070.5502341128736     
 augmentation electrons   1070.5502341128736     
 soft         electrons   0.0000000000000000     
 total        electrons   1070.5502341128736     
 augmentation electrons   1070.5502341128736     
 soft         electrons   0.0000000000000000     
 total        electrons   1070.5502341128736     
 augmentation electrons   1070.5502341128736     
 soft         electrons   0.0000000000000000     
 total        electrons   1070.5502341128736     
 augmentation electrons   1070.5502341128736     
 soft         electrons   0.0000000000000000     
 total        electrons   1070.5502341128736     
 augmentation electrons   1070.5502341128736     
 soft         electrons   0.0000000000000000     
 total        electrons   1070.5502341128736     
 augmentation electrons   1070.5502341128736     
 soft         electrons   0.0000000000000000     
 total        electrons   1070.5502341128736     
 augmentation electrons   1070.5502341128736     
 soft         electrons   0.0000000000000000     
 total        electrons   1070.5502341128736     
 augmentation electrons   1070.5502341128736     
 soft         electrons   0.0000000000000000     
 total        electrons   1070.5502341128736     
 augmentation electrons   1070.5502341128736     
 soft         electrons   0.0000000000000000     
 total        electrons   1070.5502341128736     
 augmentation electrons   1070.5502341128736     
 soft         electrons   0.0000000000000000     
 total        electrons   1070.5502341128736     
 augmentation electrons   1070.5502341128736     
 soft         electrons   0.0000000000000000     
 total        electrons   1070.5502341128736     
 augmentation electrons   1070.5502341128736     
 soft         electrons   0.0000000000000000     
 total        electrons   1070.5502341128736     
 augmentation electrons   1070.5502341128736     
 soft         electrons   0.0000000000000000     
 total        electrons   1070.5502341128736     
 augmentation electrons   1070.5502341128736     
 soft         electrons   0.0000000000000000     
 total        electrons   1070.5502341128736     
 augmentation electrons   1070.5502341128736     
 soft         electrons   0.0000000000000000     
 total        electrons   1070.5502341128736     
 augmentation electrons   1070.5502341128736     
 soft         electrons   0.0000000000000000     
 total        electrons   1070.5502341128736     
 augmentation electrons   1070.5502341128736     
 soft         electrons   0.0000000000000000     
 total        electrons   1070.5502341128736     
 augmentation electrons   1070.5502341128736     
 soft         electrons   0.0000000000000000     
 total        electrons   1070.5502341128736     
 augmentation electrons   1070.5502341128736     
 soft         electrons   0.0000000000000000     
 total        electrons   1070.5502341128736     
 augmentation electrons   1070.5502341128736     
 soft         electrons   0.0000000000000000     
 total        electrons   1070.5502341128736     
 augmentation electrons   1070.5502341128736     
 soft         electrons   0.0000000000000000     
 total        electrons   1070.5502341128736     
 augmentation electrons   1070.5502341128736     
 soft         electrons   0.0000000000000000     
 total        electrons   1070.5502341128736     
 augmentation electrons   1070.5502341128736     
 soft         electrons   0.0000000000000000     
 total        electrons   1070.5502341128736     
 augmentation electrons   1070.5502341128736     
 soft         electrons   0.0000000000000000     
 total        electrons   1070.5502341128736     
 augmentation electrons   1070.5502341128736     
 soft         electrons   0.0000000000000000     
 total        electrons   1070.5502341128736     
 augmentation electrons   1070.5502341128736     
 soft         electrons   0.0000000000000000     
 total        electrons   1070.5502341128736     
 augmentation electrons   1070.5502341128736     
 soft         electrons   0.0000000000000000     
 total        electrons   1070.5502341128736     
 augmentation electrons   1070.5502341128736     
 soft         electrons   0.0000000000000000     
 total        electrons   1070.5502341128736     
 augmentation electrons   1070.5502341128736     
 soft         electrons   0.0000000000000000     
 total        electrons   1070.5502341128736     
 augmentation electrons   1070.5502341128736     
 soft         electrons   0.0000000000000000     
 total        electrons   1070.5502341128736     
 augmentation electrons   1070.5502341128736     
 soft         electrons   0.0000000000000000     
 total        electrons   1070.5502341128736     
 augmentation electrons   1070.5502341128736     
 soft         electrons   0.0000000000000000     
 total        electrons   1070.5502341128736     
 augmentation electrons   1070.5502341128736     
 soft         electrons   0.0000000000000000     
 total        electrons   1070.5502341128736     
 augmentation electrons   1070.5502341128736     
 soft         electrons   0.0000000000000000     
 total        electrons   1070.5502341128736     
 augmentation electrons   1070.5502341128736     
 soft         electrons   0.0000000000000000     
 total        electrons   1070.5502341128736     
 augmentation electrons   1070.5502341128736     
 soft         electrons   0.0000000000000000     
 total        electrons   1070.5502341128736     
 augmentation electrons   1070.5502341128736     
 soft         electrons   0.0000000000000000     
 total        electrons   1070.5502341128736     
 augmentation electrons   1070.5502341128736     
 soft         electrons   0.0000000000000000     
 total        electrons   1070.5502341128736     
 augmentation electrons   1070.5502341128736     
 soft         electrons   0.0000000000000000     
 total        electrons   1070.5502341128736     
 augmentation electrons   1070.5502341128736     
 soft         electrons   0.0000000000000000     
 total        electrons   1070.5502341128736     
 augmentation electrons   1070.5502341128736     
 soft         electrons   0.0000000000000000     
 total        electrons   1070.5502341128736     
 augmentation electrons   1070.5502341128736     
 soft         electrons   0.0000000000000000     
 total        electrons   1070.5502341128736     
 augmentation electrons   1070.5502341128736     
 soft         electrons   0.0000000000000000     
 total        electrons   1070.5502341128736     
 augmentation electrons   1070.5502341128736     
 soft         electrons   0.0000000000000000     
 total        electrons   1070.5502341128736     
 augmentation electrons   1070.5502341128736     
 soft         electrons   0.0000000000000000     
 total        electrons   1070.5502341128736     
 augmentation electrons   1070.5502341128736     
 soft         electrons   0.0000000000000000     
 total        electrons   1070.5502341128736     
 augmentation electrons   1070.5502341128736     
 soft         electrons   0.0000000000000000     
 total        electrons   1070.5502341128736     
 augmentation electrons   1070.5502341128736     
 soft         electrons   0.0000000000000000     
 total        electrons   1070.5502341128736     
 augmentation electrons   1070.5502341128736     
 soft         electrons   0.0000000000000000     
 total        electrons   1070.5502341128736     
 augmentation electrons   1070.5502341128736     
 soft         electrons   0.0000000000000000     
 total        electrons   1070.5502341128736     
 augmentation electrons   1070.5502341128736     
 soft         electrons   0.0000000000000000     
 total        electrons   1070.5502341128736     
 augmentation electrons   1070.5502341128736     
 soft         electrons   0.0000000000000000     
 total        electrons   1070.5502341128736     
 augmentation electrons   1070.5502341128736     
 soft         electrons   0.0000000000000000     
 total        electrons   1070.5502341128736     
 augmentation electrons   1070.5502341128736     
 soft         electrons   0.0000000000000000     
 total        electrons   1070.5502341128736     
 augmentation electrons   1070.5502341128736     
 soft         electrons   0.0000000000000000     
 total        electrons   1070.5502341128736     
 augmentation electrons   1070.5502341128736     
 soft         electrons   0.0000000000000000     
 total        electrons   1070.5502341128736     
 augmentation electrons   1070.5502341128736     
 soft         electrons   0.0000000000000000     
 total        electrons   1070.5502341128736     
 augmentation electrons   1070.5502341128736     
 soft         electrons   0.0000000000000000     
 total        electrons   1070.5502341128736     
 augmentation electrons   1070.5502341128736     
 soft         electrons   0.0000000000000000     
 total        electrons   1070.5502341128736     
 augmentation electrons   1070.5502341128736     
 soft         electrons   0.0000000000000000     
 total        electrons   1070.5502341128736     
 augmentation electrons   1070.5502341128736     
 soft         electrons   0.0000000000000000     
 total        electrons   1070.5502341128736     
 augmentation electrons   1070.5502341128736     
 soft         electrons   0.0000000000000000     
 total        electrons   1070.5502341128736     
 augmentation electrons   1070.5502341128736     
 soft         electrons   0.0000000000000000     
 total        electrons   1070.5502341128736     
 augmentation electrons   1070.5502341128736     
 soft         electrons   0.0000000000000000     
 total        electrons   1070.5502341128736     
 augmentation electrons   1070.5502341128736     
 soft         electrons   0.0000000000000000     
 total        electrons   1070.5502341128736     
 augmentation electrons   1070.5502341128736     
 soft         electrons   0.0000000000000000     
 total        electrons   1070.5502341128736     
 augmentation electrons   1070.5502341128736     
 soft         electrons   0.0000000000000000     
 total        electrons   1070.5502341128736     
 total        electrons   1070.5502341128736     
 entering main loop
       N       E                     dE             d eps       ncg     rms          rms(c)
DAV:   1     0.231411028597E+04    0.23141E+04   -0.94718E+04  7728   0.128E+03
DAV:   2    -0.184762115296E+03   -0.24989E+04   -0.23340E+04  9000   0.310E+02
DAV:   3    -0.612379319332E+03   -0.42762E+03   -0.40935E+03 10944   0.149E+02
DAV:   4    -0.649617707372E+03   -0.37238E+02   -0.35789E+02 12480   0.490E+01
DAV:   5    -0.651991179025E+03   -0.23735E+01   -0.22882E+01 13120   0.121E+01    0.136E+02
RMM:   6    -0.597138316509E+03    0.54853E+02   -0.12100E+03 11138   0.935E+01    0.697E+01
RMM:   7    -0.649195942520E+03   -0.52058E+02   -0.46159E+02  9672   0.745E+01    0.468E+01
RMM:   8    -0.565738005362E+03    0.83458E+02   -0.10368E+02 10029   0.278E+01    0.323E+01
RMM:   9    -0.560951172052E+03    0.47868E+01   -0.54826E+01  8184   0.243E+01    0.259E+01
RMM:  10    -0.546502370420E+03    0.14449E+02   -0.23965E+01 10283   0.108E+01    0.203E+01
RMM:  11    -0.543507213294E+03    0.29952E+01   -0.61583E+00  7972   0.877E+00    0.164E+01
RMM:  12    -0.543858427503E+03   -0.35121E+00   -0.53702E+00 10610   0.365E+00    0.150E+01
RMM:  13    -0.543768565383E+03    0.89862E-01   -0.77894E-01 11067   0.969E-01    0.146E+01
RMM:  14    -0.543659916142E+03    0.10865E+00   -0.20975E-01 10501   0.874E-01    0.140E+01
RMM:  15    -0.543798115996E+03   -0.13820E+00   -0.58808E+00  9695   0.631E+00    0.949E+00
RMM:  16    -0.542920152705E+03    0.87796E+00   -0.21321E+00  8667   0.457E+00    0.555E+00
RMM:  17    -0.542469808998E+03    0.45034E+00   -0.11935E+00  9685   0.278E+00    0.339E+00
RMM:  18    -0.542372484306E+03    0.97325E-01   -0.57834E-01 10644   0.139E+00    0.211E+00
RMM:  19    -0.542340283057E+03    0.32201E-01   -0.15842E-01 11068   0.661E-01    0.146E+00
RMM:  20    -0.542324863047E+03    0.15420E-01   -0.91866E-02 10533   0.658E-01    0.115E+00
RMM:  21    -0.542318015128E+03    0.68479E-02   -0.73453E-02  8171   0.894E-01    0.103E+00
RMM:  22    -0.542306514553E+03    0.11501E-01   -0.51013E-02  9855   0.550E-01    0.563E-01
RMM:  23    -0.542306287167E+03    0.22739E-03   -0.28961E-02 11114   0.228E-01    0.345E-01
RMM:  24    -0.542307421628E+03   -0.11345E-02   -0.88045E-03  9531   0.249E-01    0.311E-01
RMM:  25    -0.542307947196E+03   -0.52557E-03   -0.52161E-03  9623   0.179E-01    0.282E-01
RMM:  26    -0.542307383674E+03    0.56352E-03   -0.21032E-03 10198   0.102E-01    0.167E-01
RMM:  27    -0.542307865123E+03   -0.48145E-03   -0.15078E-03 10765   0.730E-02    0.120E-01
RMM:  28    -0.542308301091E+03   -0.43597E-03   -0.91604E-04 10817   0.520E-02    0.391E-02
RMM:  29    -0.542309245139E+03   -0.94405E-03   -0.39581E-04 10521   0.326E-02    0.506E-02
RMM:  30    -0.542309591674E+03   -0.34653E-03   -0.15967E-04 10281   0.249E-02    0.306E-02
RMM:  31    -0.542310012808E+03   -0.42113E-03   -0.13353E-04  9334   0.163E-02    0.361E-02
RMM:  32    -0.542310136822E+03   -0.12401E-03   -0.53395E-05  8572   0.138E-02    0.262E-02
RMM:  33    -0.542310240106E+03   -0.10328E-03   -0.52995E-05  9641   0.122E-02    0.128E-02
RMM:  34    -0.542310335246E+03   -0.95139E-04   -0.55286E-05 10047   0.131E-02    0.148E-02
RMM:  35    -0.542310394328E+03   -0.59082E-04   -0.87837E-06  6527   0.631E-03    0.103E-02
RMM:  36    -0.542310494200E+03   -0.99872E-04   -0.45547E-06  5627   0.569E-03    0.110E-02
RMM:  37    -0.542310544344E+03   -0.50145E-04   -0.67545E-06  6465   0.697E-03    0.504E-03
RMM:  38    -0.542310590341E+03   -0.45997E-04   -0.30451E-06  5469   0.609E-03    0.439E-03
RMM:  39    -0.542310646197E+03   -0.55855E-04   -0.37940E-06  5524   0.341E-03    0.228E-03
RMM:  40    -0.542310666229E+03   -0.20032E-04   -0.18416E-06  5133   0.351E-03    0.331E-03
RMM:  41    -0.542310669206E+03   -0.29773E-05   -0.29085E-07  4517   0.258E-03    0.104E-03
RMM:  42    -0.542310674312E+03   -0.51064E-05   -0.30407E-07  3875   0.142E-03    0.109E-03
RMM:  43    -0.542310678135E+03   -0.38232E-05   -0.30392E-07  3915   0.183E-03    0.466E-04
RMM:  44    -0.542310679556E+03   -0.14208E-05   -0.14646E-07  3243   0.116E-03    0.499E-04
RMM:  45    -0.542310680139E+03   -0.58270E-06   -0.55695E-08  3168   0.118E-03
   1 F= -.54231068E+03 E0= -.54230801E+03  d E =-.542311E+03
 curvature:   0.00 expect dE= 0.000E+00 dE for cont linesearch  0.000E+00
 trial: gam= 0.00000 g(F)=  0.190E+01 g(S)=  0.000E+00 ort = 0.000E+00 (trialstep = 0.100E+01)
 search vector abs. value=  0.190E+01
 bond charge predicted
       N       E                     dE             d eps       ncg     rms          rms(c)
DAV:   1    -0.543224878265E+03   -0.91420E+00   -0.17900E+02  7728   0.275E+01    0.503E+00
RMM:   2    -0.544036642858E+03   -0.81176E+00   -0.30827E+00  8455   0.599E+00    0.718E+00
RMM:   3    -0.543682756078E+03    0.35389E+00   -0.11602E+00  9863   0.305E+00    0.496E+00
RMM:   4    -0.543880697445E+03   -0.19794E+00   -0.14103E+00  8551   0.375E+00    0.606E+00
RMM:   5    -0.543406201294E+03    0.47450E+00   -0.61550E-01  7873   0.312E+00    0.167E+00
RMM:   6    -0.543391201788E+03    0.15000E-01   -0.19107E-01 10062   0.984E-01    0.108E+00
RMM:   7    -0.543383863268E+03    0.73385E-02   -0.64361E-02  9067   0.642E-01    0.685E-01
RMM:   8    -0.543382494433E+03    0.13688E-02   -0.22767E-02  8630   0.441E-01    0.585E-01
RMM:   9    -0.543381919899E+03    0.57453E-03   -0.13393E-02  9094   0.307E-01    0.495E-01
RMM:  10    -0.543380880148E+03    0.10398E-02   -0.78551E-03  8522   0.276E-01    0.345E-01
RMM:  11    -0.543380184310E+03    0.69584E-03   -0.51485E-03  9601   0.173E-01    0.151E-01
RMM:  12    -0.543380250447E+03   -0.66137E-04   -0.26804E-03  9359   0.121E-01    0.123E-01
RMM:  13    -0.543380182618E+03    0.67829E-04   -0.87812E-04  9087   0.700E-02    0.453E-02
RMM:  14    -0.543380292578E+03   -0.10996E-03   -0.51291E-04  9944   0.461E-02    0.590E-02
RMM:  15    -0.543380288724E+03    0.38535E-05   -0.16382E-04  8453   0.348E-02    0.206E-02
RMM:  16    -0.543380323783E+03   -0.35059E-04   -0.10415E-04  9487   0.174E-02    0.199E-02
RMM:  17    -0.543380340387E+03   -0.16604E-04   -0.31607E-05  7275   0.143E-02    0.108E-02
RMM:  18    -0.543380371491E+03   -0.31104E-04   -0.15073E-05  7032   0.707E-03    0.462E-03
RMM:  19    -0.543380398625E+03   -0.27134E-04   -0.56423E-06  6023   0.442E-03    0.303E-03
RMM:  20    -0.543380430404E+03   -0.31779E-04   -0.37772E-06  5418   0.398E-03    0.243E-03
RMM:  21    -0.543380455341E+03   -0.24937E-04   -0.32853E-06  5331   0.302E-03    0.176E-03
RMM:  22    -0.543380489427E+03   -0.34085E-04   -0.66099E-06  5567   0.325E-03    0.119E-03
RMM:  23    -0.543380502881E+03   -0.13454E-04   -0.29968E-06  5187   0.302E-03    0.936E-04
RMM:  24    -0.543380509210E+03   -0.63297E-05   -0.12518E-06  4419   0.196E-03    0.599E-04
RMM:  25    -0.543380516604E+03   -0.73932E-05   -0.15616E-06  4375   0.195E-03    0.433E-04
RMM:  26    -0.543380517733E+03   -0.11297E-05   -0.35326E-07  3411   0.175E-03    0.255E-04
RMM:  27    -0.543380519148E+03   -0.14146E-05   -0.28662E-07  3048   0.112E-03    0.196E-04
RMM:  28    -0.543380520079E+03   -0.93094E-06   -0.20380E-07  2987   0.122E-03
   2 F= -.54338052E+03 E0= -.54338169E+03  d E =-.106984E+01
 trial-energy change:   -1.069840  1 .order   -1.014278   -1.900591   -0.127965
 step:   1.0602(harm=  1.0722)  dis= 0.05183  next Energy=  -543.384383 (dE=-0.107E+01)
 bond charge predicted
       N       E                     dE             d eps       ncg     rms          rms(c)
DAV:   1    -0.543384003394E+03   -0.34842E-02   -0.65474E-01  8352   0.167E+00    0.309E-01
RMM:   2    -0.543388539193E+03   -0.45358E-02   -0.14599E-02  9565   0.343E-01    0.517E-01
RMM:   3    -0.543385119332E+03    0.34199E-02   -0.33865E-03  9211   0.192E-01    0.290E-01
RMM:   4    -0.543386070776E+03   -0.95144E-03   -0.50044E-03  9114   0.207E-01    0.354E-01
RMM:   5    -0.543384893840E+03    0.11769E-02   -0.30042E-03  8127   0.201E-01    0.176E-01
RMM:   6    -0.543384534797E+03    0.35904E-03   -0.97298E-04  8621   0.103E-01    0.105E-01
RMM:   7    -0.543384502999E+03    0.31798E-04   -0.47413E-04  9225   0.620E-02    0.878E-02
RMM:   8    -0.543384438148E+03    0.64851E-04   -0.17465E-04  8799   0.398E-02    0.294E-02
RMM:   9    -0.543384434418E+03    0.37291E-05   -0.97733E-05  9389   0.171E-02    0.183E-02
RMM:  10    -0.543384432385E+03    0.20338E-05   -0.21649E-05  7089   0.104E-02    0.108E-02
RMM:  11    -0.543384432521E+03   -0.13588E-06   -0.10557E-05  6761   0.843E-03    0.884E-03
RMM:  12    -0.543384432326E+03    0.19490E-06   -0.48677E-06  5892   0.694E-03
   3 F= -.54338443E+03 E0= -.54338562E+03  d E =-.107375E+01
 curvature:  -0.52 expect dE=-0.133E+00 dE for cont linesearch -0.417E-09
 trial: gam= 0.13434 g(F)=  0.255E+00 g(S)=  0.000E+00 ort =-0.390E-04 (trialstep = 0.101E+01)
 search vector abs. value=  0.290E+00
 bond charge predicted
       N       E                     dE             d eps       ncg     rms          rms(c)
DAV:   1    -0.543527366175E+03   -0.14293E+00   -0.16467E+01  7744   0.943E+00    0.135E+00
RMM:   2    -0.543579577687E+03   -0.52212E-01   -0.51789E-01  8973   0.247E+00    0.201E+00
RMM:   3    -0.543558001353E+03    0.21576E-01   -0.12298E-01  9194   0.124E+00    0.131E+00
RMM:   4    -0.543573446980E+03   -0.15446E-01   -0.11449E-01  9871   0.825E-01    0.170E+00
RMM:   5    -0.543538526578E+03    0.34920E-01   -0.57900E-02  8866   0.802E-01    0.688E-01
RMM:   6    -0.543536145941E+03    0.23806E-02   -0.25563E-02  8948   0.507E-01    0.495E-01
RMM:   7    -0.543534521940E+03    0.16240E-02   -0.98492E-03  8783   0.338E-01    0.357E-01
RMM:   8    -0.543533587821E+03    0.93412E-03   -0.44243E-03  9438   0.184E-01    0.258E-01
RMM:   9    -0.543532998003E+03    0.58982E-03   -0.18246E-03  8987   0.113E-01    0.911E-02
RMM:  10    -0.543533029975E+03   -0.31973E-04   -0.10837E-03 10335   0.645E-02    0.667E-02
RMM:  11    -0.543533025756E+03    0.42198E-05   -0.39537E-04  9357   0.463E-02    0.510E-02
RMM:  12    -0.543533005653E+03    0.20102E-04   -0.14107E-04  8744   0.336E-02    0.270E-02
RMM:  13    -0.543533019846E+03   -0.14193E-04   -0.97503E-05  9222   0.251E-02    0.271E-02
RMM:  14    -0.543533014669E+03    0.51770E-05   -0.33759E-05  8038   0.145E-02    0.927E-03
RMM:  15    -0.543533019571E+03   -0.49017E-05   -0.17367E-05  6973   0.692E-03    0.866E-03
RMM:  16    -0.543533021734E+03   -0.21629E-05   -0.43596E-06  5540   0.699E-03    0.523E-03
RMM:  17    -0.543533025169E+03   -0.34351E-05   -0.19637E-06  5173   0.418E-03    0.222E-03
RMM:  18    -0.543533028909E+03   -0.37400E-05   -0.10351E-06  4719   0.300E-03    0.166E-03
RMM:  19    -0.543533031485E+03   -0.25767E-05   -0.54969E-07  4540   0.229E-03    0.862E-04
RMM:  20    -0.543533033289E+03   -0.18036E-05   -0.35553E-07  4423   0.180E-03    0.795E-04
RMM:  21    -0.543533036088E+03   -0.27994E-05   -0.37482E-07  3889   0.144E-03    0.394E-04
RMM:  22    -0.543533038636E+03   -0.25482E-05   -0.35628E-07  3605   0.134E-03    0.408E-04
RMM:  23    -0.543533040360E+03   -0.17236E-05   -0.28625E-07  3167   0.126E-03    0.292E-04
RMM:  24    -0.543533041752E+03   -0.13915E-05   -0.25216E-07  2980   0.114E-03    0.297E-04
RMM:  25    -0.543533043018E+03   -0.12665E-05   -0.27003E-07  2898   0.109E-03    0.209E-04
RMM:  26    -0.543533043612E+03   -0.59421E-06   -0.18935E-07  2739   0.103E-03
   4 F= -.54353304E+03 E0= -.54353392E+03  d E =-.148611E+00
 trial-energy change:   -0.148611  1 .order   -0.149949   -0.258355   -0.041544
 step:   1.2150(harm=  1.2060)  dis= 0.03228  next Energy=  -543.537198 (dE=-0.153E+00)
 bond charge predicted
       N       E                     dE             d eps       ncg     rms          rms(c)
DAV:   1    -0.543536982030E+03   -0.39390E-02   -0.66010E-01  7968   0.188E+00    0.268E-01
RMM:   2    -0.543539481627E+03   -0.24996E-02   -0.21815E-02  8796   0.518E-01    0.443E-01
RMM:   3    -0.543538107023E+03    0.13746E-02   -0.49761E-03  9255   0.252E-01    0.261E-01
RMM:   4    -0.543538491105E+03   -0.38408E-03   -0.41845E-03  9850   0.157E-01    0.303E-01
RMM:   5    -0.543537432062E+03    0.10590E-02   -0.21987E-03  8957   0.153E-01    0.142E-01
RMM:   6    -0.543537345576E+03    0.86486E-04   -0.10396E-03  8830   0.105E-01    0.110E-01
RMM:   7    -0.543537274045E+03    0.71531E-04   -0.45140E-04  8567   0.740E-02    0.827E-02
RMM:   8    -0.543537213684E+03    0.60361E-04   -0.18160E-04  9150   0.397E-02    0.516E-02
RMM:   9    -0.543537189416E+03    0.24268E-04   -0.79491E-05  8747   0.228E-02    0.175E-02
RMM:  10    -0.543537190399E+03   -0.98313E-06   -0.41591E-05  8693   0.123E-02    0.119E-02
RMM:  11    -0.543537190813E+03   -0.41390E-06   -0.15824E-05  7119   0.970E-03    0.108E-02
RMM:  12    -0.543537189674E+03    0.11385E-05   -0.49689E-06  5666   0.778E-03    0.541E-03
RMM:  13    -0.543537190149E+03   -0.47421E-06   -0.31937E-06  5416   0.598E-03
   5 F= -.54353719E+03 E0= -.54353795E+03  d E =-.152758E+00
 curvature:  -0.68 expect dE=-0.275E-01 dE for cont linesearch -0.239E-06
 trial: gam= 0.16561 g(F)=  0.403E-01 g(S)=  0.000E+00 ort =-0.319E-03 (trialstep = 0.105E+01)
 search vector abs. value=  0.481E-01
 bond charge predicted
       N       E                     dE             d eps       ncg     rms          rms(c)
DAV:   1    -0.543562502061E+03   -0.25312E-01   -0.31898E+00  7728   0.400E+00    0.744E-01
RMM:   2    -0.543565785869E+03   -0.32838E-02   -0.76841E-02  8690   0.972E-01    0.603E-01
RMM:   3    -0.543569776414E+03   -0.39905E-02   -0.28794E-02  9748   0.511E-01    0.704E-01
RMM:   4    -0.543571020113E+03   -0.12437E-02   -0.23750E-02  8410   0.519E-01    0.801E-01
RMM:   5    -0.543565708922E+03    0.53112E-02   -0.12308E-02  8727   0.376E-01    0.414E-01
RMM:   6    -0.543563978202E+03    0.17307E-02   -0.41421E-03  8157   0.234E-01    0.164E-01
RMM:   7    -0.543564076139E+03   -0.97937E-04   -0.18661E-03 10317   0.912E-02    0.178E-01
RMM:   8    -0.543563853672E+03    0.22247E-03   -0.78514E-04  9287   0.756E-02    0.144E-01
RMM:   9    -0.543563621731E+03    0.23194E-03   -0.36678E-04  8920   0.596E-02    0.423E-02
RMM:  10    -0.543563628484E+03   -0.67525E-05   -0.24042E-04  9933   0.344E-02    0.360E-02
RMM:  11    -0.543563626153E+03    0.23302E-05   -0.96087E-05  9408   0.233E-02    0.259E-02
RMM:  12    -0.543563621089E+03    0.50644E-05   -0.33331E-05  7670   0.178E-02    0.135E-02
RMM:  13    -0.543563621045E+03    0.44087E-07   -0.19238E-05  7795   0.849E-03    0.607E-03
RMM:  14    -0.543563621684E+03   -0.63876E-06   -0.64973E-06  5934   0.691E-03
   6 F= -.54356362E+03 E0= -.54356429E+03  d E =-.264315E-01
 trial-energy change:   -0.026432  1 .order   -0.026440   -0.042344   -0.010536
 step:   1.4013(harm=  1.4013)  dis= 0.01512  next Energy=  -543.565375 (dE=-0.282E-01)
 bond charge predicted
       N       E                     dE             d eps       ncg     rms          rms(c)
DAV:   1    -0.543565242629E+03   -0.16216E-02   -0.34967E-01  7920   0.132E+00    0.245E-01
RMM:   2    -0.543565601222E+03   -0.35859E-03   -0.84166E-03  8772   0.318E-01    0.197E-01
RMM:   3    -0.543566055767E+03   -0.45454E-03   -0.31510E-03  9767   0.167E-01    0.233E-01
RMM:   4    -0.543566192276E+03   -0.13651E-03   -0.25820E-03  8433   0.171E-01    0.266E-01
RMM:   5    -0.543565580282E+03    0.61199E-03   -0.12951E-03  8768   0.122E-01    0.132E-01
RMM:   6    -0.543565424219E+03    0.15606E-03   -0.44620E-04  8175   0.761E-02    0.635E-02
RMM:   7    -0.543565443614E+03   -0.19395E-04   -0.23088E-04 10169   0.320E-02    0.792E-02
RMM:   8    -0.543565379080E+03    0.64534E-04   -0.97798E-05  8622   0.300E-02    0.353E-02
RMM:   9    -0.543565366613E+03    0.12467E-04   -0.41203E-05  8894   0.177E-02    0.120E-02
RMM:  10    -0.543565368452E+03   -0.18398E-05   -0.26076E-05  7812   0.113E-02    0.125E-02
RMM:  11    -0.543565368310E+03    0.14231E-06   -0.87221E-06  6320   0.845E-03
   7 F= -.54356537E+03 E0= -.54356600E+03  d E =-.281782E-01
 curvature:  -0.84 expect dE=-0.125E-01 dE for cont linesearch -0.519E-07
 trial: gam= 0.36642 g(F)=  0.149E-01 g(S)=  0.000E+00 ort =-0.546E-04 (trialstep = 0.112E+01)
 search vector abs. value=  0.213E-01
 bond charge predicted
       N       E                     dE             d eps       ncg     rms          rms(c)
DAV:   1    -0.543574224923E+03   -0.88565E-02   -0.16428E+00  7744   0.290E+00    0.439E-01
RMM:   2    -0.543577828187E+03   -0.36033E-02   -0.42169E-02  8379   0.762E-01    0.484E-01
RMM:   3    -0.543576839213E+03    0.98897E-03   -0.11686E-02  9095   0.393E-01    0.391E-01
RMM:   4    -0.543580332634E+03   -0.34934E-02   -0.10591E-02  9252   0.302E-01    0.672E-01
RMM:   5    -0.543576449791E+03    0.38828E-02   -0.50271E-03  8318   0.262E-01    0.254E-01
RMM:   6    -0.543575925064E+03    0.52473E-03   -0.25868E-03 10015   0.120E-01    0.197E-01
RMM:   7    -0.543575552829E+03    0.37223E-03   -0.11081E-03  8841   0.101E-01    0.106E-01
RMM:   8    -0.543575438037E+03    0.11479E-03   -0.41413E-04  8624   0.645E-02    0.568E-02
RMM:   9    -0.543575418684E+03    0.19353E-04   -0.24123E-04  9274   0.398E-02    0.371E-02
RMM:  10    -0.543575406145E+03    0.12539E-04   -0.10049E-04  9333   0.237E-02    0.171E-02
RMM:  11    -0.543575407302E+03   -0.11562E-05   -0.40548E-05  7877   0.158E-02    0.158E-02
RMM:  12    -0.543575404819E+03    0.24825E-05   -0.14036E-05  6488   0.100E-02    0.742E-03
RMM:  13    -0.543575405210E+03   -0.39090E-06   -0.71160E-06  6042   0.675E-03
   8 F= -.54357541E+03 E0= -.54357596E+03  d E =-.100369E-01
 trial-energy change:   -0.010037  1 .order   -0.010048   -0.016722   -0.003374
 step:   1.4060(harm=  1.4060)  dis= 0.01212  next Energy=  -543.575842 (dE=-0.105E-01)
 bond charge predicted
       N       E                     dE             d eps       ncg     rms          rms(c)
DAV:   1    -0.543575755817E+03   -0.35100E-03   -0.10497E-01  8080   0.734E-01    0.111E-01
RMM:   2    -0.543575985778E+03   -0.22996E-03   -0.27004E-03  8245   0.198E-01    0.123E-01
RMM:   3    -0.543575920002E+03    0.65777E-04   -0.75039E-04  9114   0.994E-02    0.958E-02
RMM:   4    -0.543576165089E+03   -0.24509E-03   -0.68783E-04  9307   0.759E-02    0.176E-01
RMM:   5    -0.543575897288E+03    0.26780E-03   -0.32571E-04  8335   0.662E-02    0.638E-02
RMM:   6    -0.543575863335E+03    0.33953E-04   -0.17060E-04  9974   0.301E-02    0.484E-02
RMM:   7    -0.543575841502E+03    0.21833E-04   -0.70059E-05  8697   0.249E-02    0.257E-02
RMM:   8    -0.543575834459E+03    0.70434E-05   -0.24765E-05  7564   0.150E-02    0.140E-02
RMM:   9    -0.543575833388E+03    0.10703E-05   -0.14902E-05  6846   0.101E-02    0.952E-03
RMM:  10    -0.543575832521E+03    0.86742E-06   -0.57513E-06  5755   0.717E-03
   9 F= -.54357583E+03 E0= -.54357637E+03  d E =-.104642E-01
 curvature:  -1.01 expect dE=-0.439E-02 dE for cont linesearch -0.398E-09
 trial: gam= 0.29235 g(F)=  0.436E-02 g(S)=  0.000E+00 ort = 0.291E-05 (trialstep = 0.118E+01)
 search vector abs. value=  0.618E-02
 bond charge predicted
       N       E                     dE             d eps       ncg     rms          rms(c)
DAV:   1    -0.543578395870E+03   -0.25625E-02   -0.52764E-01  7728   0.161E+00    0.284E-01
RMM:   2    -0.543581636665E+03   -0.32408E-02   -0.21224E-02  8475   0.531E-01    0.507E-01
RMM:   3    -0.543579520681E+03    0.21160E-02   -0.46903E-03  8871   0.259E-01    0.278E-01
RMM:   4    -0.543579453005E+03    0.67676E-04   -0.28255E-03  9589   0.144E-01    0.262E-01
RMM:   5    -0.543579189684E+03    0.26332E-03   -0.25003E-03  9124   0.154E-01    0.220E-01
RMM:   6    -0.543578842474E+03    0.34721E-03   -0.13641E-03  8616   0.124E-01    0.155E-01
RMM:   7    -0.543578705194E+03    0.13728E-03   -0.63327E-04  8798   0.807E-02    0.101E-01
RMM:   8    -0.543578601106E+03    0.10409E-03   -0.23926E-04  8652   0.504E-02    0.460E-02
RMM:   9    -0.543578580106E+03    0.21000E-04   -0.98698E-05  8961   0.254E-02    0.210E-02
RMM:  10    -0.543578578972E+03    0.11337E-05   -0.45657E-05  8917   0.155E-02    0.141E-02
RMM:  11    -0.543578578096E+03    0.87634E-06   -0.18137E-05  7241   0.113E-02    0.113E-02
RMM:  12    -0.543578576496E+03    0.16000E-05   -0.58357E-06  5896   0.792E-03    0.509E-03
RMM:  13    -0.543578576766E+03   -0.27017E-06   -0.31692E-06  5400   0.544E-03
  10 F= -.54357858E+03 E0= -.54357909E+03  d E =-.274424E-02
 trial-energy change:   -0.002744  1 .order   -0.002729   -0.005140   -0.000317
 step:   1.2550(harm=  1.2566)  dis= 0.00579  next Energy=  -543.578587 (dE=-0.275E-02)
 bond charge predicted
       N       E                     dE             d eps       ncg     rms          rms(c)
DAV:   1    -0.543578587505E+03   -0.11010E-04   -0.22092E-03  8416   0.105E-01    0.187E-02
RMM:   2    -0.543578599304E+03   -0.11799E-04   -0.86806E-05  8347   0.344E-02    0.299E-02
RMM:   3    -0.543578593501E+03    0.58033E-05   -0.20378E-05  7859   0.169E-02    0.185E-02
RMM:   4    -0.543578593814E+03   -0.31295E-06   -0.13303E-05  6743   0.104E-02    0.192E-02
RMM:   5    -0.543578590964E+03    0.28498E-05   -0.98533E-06  6350   0.116E-02    0.122E-02
RMM:   6    -0.543578590594E+03    0.36991E-06   -0.53581E-06  5711   0.859E-03
  11 F= -.54357859E+03 E0= -.54357909E+03  d E =-.275807E-02
 curvature:  -0.89 expect dE=-0.744E-03 dE for cont linesearch -0.226E-06
 trial: gam= 0.18747 g(F)=  0.836E-03 g(S)=  0.000E+00 ort = 0.396E-04 (trialstep = 0.119E+01)
 search vector abs. value=  0.107E-02
 bond charge predicted
       N       E                     dE             d eps       ncg     rms          rms(c)
DAV:   1    -0.543579208763E+03   -0.61780E-03   -0.90248E-02  7824   0.658E-01    0.115E-01
RMM:   2    -0.543579569536E+03   -0.36077E-03   -0.31841E-03  8502   0.195E-01    0.177E-01
RMM:   3    -0.543579326994E+03    0.24254E-03   -0.77413E-04  8621   0.106E-01    0.101E-01
RMM:   4    -0.543579541317E+03   -0.21432E-03   -0.65906E-04  9980   0.613E-02    0.152E-01
RMM:   5    -0.543579315501E+03    0.22582E-03   -0.43347E-04  9061   0.641E-02    0.758E-02
RMM:   6    -0.543579295627E+03    0.19874E-04   -0.25647E-04  8318   0.514E-02    0.741E-02
RMM:   7    -0.543579248423E+03    0.47204E-04   -0.10127E-04  8945   0.313E-02    0.282E-02
RMM:   8    -0.543579244257E+03    0.41665E-05   -0.51353E-05  8530   0.184E-02    0.220E-02
RMM:   9    -0.543579237845E+03    0.64118E-05   -0.12788E-05  6507   0.109E-02    0.893E-03
RMM:  10    -0.543579237636E+03    0.20865E-06   -0.74922E-06  6211   0.717E-03
  12 F= -.54357924E+03 E0= -.54357972E+03  d E =-.647042E-03
 trial-energy change:   -0.000647  1 .order   -0.000639   -0.001007   -0.000271
 step:   1.5986(harm=  1.6342)  dis= 0.00369  next Energy=  -543.579284 (dE=-0.693E-03)
 reached required accuracy - stopping structural energy minimisation
 augmentation electrons   27.632383265668459     
 soft         electrons   236.48792994440001     
 total        electrons   264.12031321006845     
 augmentation electrons   27.632383265668459     
 soft         electrons   236.48792994440001     
 total        electrons   264.12031321006845     
 augmentation electrons   27.632383265668459     
 soft         electrons   236.48792994440001     
 total        electrons   264.12031321006845     
 augmentation electrons   27.632383265668459     
 soft         electrons   236.48792994440001     
 total        electrons   264.12031321006845     
 augmentation electrons   27.632383265668459     
 soft         electrons   236.48792994440001     
 total        electrons   264.12031321006845     
 augmentation electrons   27.632383265668459     
 soft         electrons   236.48792994440001     
 total        electrons   264.12031321006845     
 augmentation electrons   27.632383265668459     
 soft         electrons   236.48792994440001     
 total        electrons   264.12031321006845     
 augmentation electrons   27.632383265668459     
 soft         electrons   236.48792994440001     
 total        electrons   264.12031321006845     
 augmentation electrons   27.632383265668459     
 soft         electrons   236.48792994440001     
 total        electrons   264.12031321006845     
 augmentation electrons   27.632383265668459     
 soft         electrons   236.48792994440001     
 total        electrons   264.12031321006845     
 augmentation electrons   27.632383265668459     
 soft         electrons   236.48792994440001     
 total        electrons   264.12031321006845     
 augmentation electrons   27.632383265668459     
 soft         electrons   236.48792994440001     
 total        electrons   264.12031321006845     
 augmentation electrons   27.632383265668459     
 soft         electrons   236.48792994440001     
 total        electrons   264.12031321006845     
 augmentation electrons   27.632383265668459     
 soft         electrons   236.48792994440001     
 total        electrons   264.12031321006845     
 augmentation electrons   27.632383265668459     
 soft         electrons   236.48792994440001     
 total        electrons   264.12031321006845     
 augmentation electrons   27.632383265668459     
 soft         electrons   236.48792994440001     
 total        electrons   264.12031321006845     
 augmentation electrons   27.632383265668459     
 soft         electrons   236.48792994440001     
 total        electrons   264.12031321006845     
 augmentation electrons   27.632383265668459     
 soft         electrons   236.48792994440001     
 total        electrons   264.12031321006845     
 augmentation electrons   27.632383265668459     
 soft         electrons   236.48792994440001     
 total        electrons   264.12031321006845     
 augmentation electrons   27.632383265668459     
 soft         electrons   236.48792994440001     
 total        electrons   264.12031321006845     
 augmentation electrons   27.632383265668459     
 soft         electrons   236.48792994440001     
 total        electrons   264.12031321006845     
 augmentation electrons   27.632383265668459     
 soft         electrons   236.48792994440001     
 total        electrons   264.12031321006845     
 augmentation electrons   27.632383265668459     
 soft         electrons   236.48792994440001     
 total        electrons   264.12031321006845     
 augmentation electrons   27.632383265668459     
 soft         electrons   236.48792994440001     
 total        electrons   264.12031321006845     
 augmentation electrons   27.632383265668459     
 soft         electrons   236.48792994440001     
 total        electrons   264.12031321006845     
 augmentation electrons   27.632383265668459     
 soft         electrons   236.48792994440001     
 total        electrons   264.12031321006845     
 augmentation electrons   27.632383265668459     
 soft         electrons   236.48792994440001     
 total        electrons   264.12031321006845     
 augmentation electrons   27.632383265668459     
 soft         electrons   236.48792994440001     
 total        electrons   264.12031321006845     
 augmentation electrons   27.632383265668459     
 soft         electrons   236.48792994440001     
 total        electrons   264.12031321006845     
 augmentation electrons   27.632383265668459     
 soft         electrons   236.48792994440001     
 total        electrons   264.12031321006845     
 augmentation electrons   27.632383265668459     
 soft         electrons   236.48792994440001     
 total        electrons   264.12031321006845     
 augmentation electrons   27.632383265668459     
 soft         electrons   236.48792994440001     
 total        electrons   264.12031321006845     
 augmentation electrons   27.632383265668459     
 soft         electrons   236.48792994440001     
 total        electrons   264.12031321006845     
 augmentation electrons   27.632383265668459     
 soft         electrons   236.48792994440001     
 total        electrons   264.12031321006845     
 augmentation electrons   27.632383265668459     
 soft         electrons   236.48792994440001     
 total        electrons   264.12031321006845     
 augmentation electrons   27.632383265668459     
 soft         electrons   236.48792994440001     
 total        electrons   264.12031321006845     
 augmentation electrons   27.632383265668459     
 soft         electrons   236.48792994440001     
 total        electrons   264.12031321006845     
 augmentation electrons   27.632383265668459     
 soft         electrons   236.48792994440001     
 total        electrons   264.12031321006845     
 augmentation electrons   27.632383265668459     
 soft         electrons   236.48792994440001     
 total        electrons   264.12031321006845     
 augmentation electrons   27.632383265668459     
 soft         electrons   236.48792994440001     
 total        electrons   264.12031321006845     
 augmentation electrons   27.632383265668459     
 soft         electrons   236.48792994440001     
 total        electrons   264.12031321006845     
 augmentation electrons   27.632383265668459     
 soft         electrons   236.48792994440001     
 total        electrons   264.12031321006845     
 augmentation electrons   27.632383265668459     
 soft         electrons   236.48792994440001     
 total        electrons   264.12031321006845     
 augmentation electrons   27.632383265668459     
 soft         electrons   236.48792994440001     
 total        electrons   264.12031321006845     
 augmentation electrons   27.632383265668459     
 soft         electrons   236.48792994440001     
 total        electrons   264.12031321006845     
 augmentation electrons   27.632383265668459     
 soft         electrons   236.48792994440001     
 total        electrons   264.12031321006845     
 augmentation electrons   27.632383265668459     
 soft         electrons   236.48792994440001     
 total        electrons   264.12031321006845     
 augmentation electrons   27.632383265668459     
 soft         electrons   236.48792994440001     
 total        electrons   264.12031321006845     
 augmentation electrons   27.632383265668459     
 soft         electrons   236.48792994440001     
 total        electrons   264.12031321006845     
 augmentation electrons   27.632383265668459     
 soft         electrons   236.48792994440001     
 total        electrons   264.12031321006845     
 augmentation electrons   27.632383265668459     
 soft         electrons   236.48792994440001     
 total        electrons   264.12031321006845     
 augmentation electrons   27.632383265668459     
 soft         electrons   236.48792994440001     
 total        electrons   264.12031321006845     
 augmentation electrons   27.632383265668459     
 soft         electrons   236.48792994440001     
 total        electrons   264.12031321006845     
 augmentation electrons   27.632383265668459     
 soft         electrons   236.48792994440001     
 total        electrons   264.12031321006845     
 augmentation electrons   27.632383265668459     
 soft         electrons   236.48792994440001     
 total        electrons   264.12031321006845     
 augmentation electrons   27.632383265668459     
 soft         electrons   236.48792994440001     
 total        electrons   264.12031321006845     
 augmentation electrons   27.632383265668459     
 soft         electrons   236.48792994440001     
 total        electrons   264.12031321006845     
 augmentation electrons   27.632383265668459     
 soft         electrons   236.48792994440001     
 total        electrons   264.12031321006845     
 augmentation electrons   27.632383265668459     
 soft         electrons   236.48792994440001     
 total        electrons   264.12031321006845     
 augmentation electrons   27.632383265668459     
 soft         electrons   236.48792994440001     
 total        electrons   264.12031321006845     
 augmentation electrons   27.632383265668459     
 soft         electrons   236.48792994440001     
 total        electrons   264.12031321006845     
 augmentation electrons   27.632383265668459     
 soft         electrons   236.48792994440001     
 total        electrons   264.12031321006845     
 augmentation electrons   27.632383265668459     
 soft         electrons   236.48792994440001     
 total        electrons   264.12031321006845     
 augmentation electrons   27.632383265668459     
 soft         electrons   236.48792994440001     
 total        electrons   264.12031321006845     
 augmentation electrons   27.632383265668459     
 soft         electrons   236.48792994440001     
 total        electrons   264.12031321006845     
 augmentation electrons   27.632383265668459     
 soft         electrons   236.48792994440001     
 total        electrons   264.12031321006845     
 augmentation electrons   27.632383265668459     
 soft         electrons   236.48792994440001     
 total        electrons   264.12031321006845     
 augmentation electrons   27.632383265668459     
 soft         electrons   236.48792994440001     
 total        electrons   264.12031321006845     
 augmentation electrons   27.632383265668459     
 soft         electrons   236.48792994440001     
 augmentation electrons   27.632383265668459     
 soft         electrons   236.48792994440001     
 total        electrons   264.12031321006845     
 augmentation electrons   27.632383265668459     
 soft         electrons   236.48792994440001     
 total        electrons   264.12031321006845     
 augmentation electrons   27.632383265668459     
 soft         electrons   236.48792994440001     
 total        electrons   264.12031321006845     
 total        electrons   264.12031321006845     
Note: The following floating-point exceptions are signalling: IEEE_OVERFLOW_FLAG
Note: The following floating-point exceptions are signalling: IEEE_OVERFLOW_FLAG
Note: The following floating-point exceptions are signalling: IEEE_OVERFLOW_FLAG
Note: The following floating-point exceptions are signalling: IEEE_OVERFLOW_FLAG
Note: The following floating-point exceptions are signalling: IEEE_OVERFLOW_FLAG
Note: The following floating-point exceptions are signalling: IEEE_OVERFLOW_FLAG
Note: The following floating-point exceptions are signalling: IEEE_OVERFLOW_FLAG
Note: The following floating-point exceptions are signalling: IEEE_OVERFLOW_FLAG
Note: The following floating-point exceptions are signalling: IEEE_OVERFLOW_FLAG
Note: The following floating-point exceptions are signalling: IEEE_OVERFLOW_FLAG
Note: The following floating-point exceptions are signalling: IEEE_INVALID_FLAG IEEE_OVERFLOW_FLAG
Note: The following floating-point exceptions are signalling: IEEE_OVERFLOW_FLAG
Note: The following floating-point exceptions are signalling: IEEE_OVERFLOW_FLAG
Note: The following floating-point exceptions are signalling: IEEE_OVERFLOW_FLAG
Note: The following floating-point exceptions are signalling: IEEE_OVERFLOW_FLAG
Note: The following floating-point exceptions are signalling: IEEE_OVERFLOW_FLAG
Note: The following floating-point exceptions are signalling: IEEE_OVERFLOW_FLAG
Note: The following floating-point exceptions are signalling: IEEE_OVERFLOW_FLAG
Note: The following floating-point exceptions are signalling: IEEE_OVERFLOW_FLAG
Note: The following floating-point exceptions are signalling: IEEE_OVERFLOW_FLAG
Note: The following floating-point exceptions are signalling: IEEE_OVERFLOW_FLAG
Note: The following floating-point exceptions are signalling: IEEE_OVERFLOW_FLAG
Note: The following floating-point exceptions are signalling: IEEE_OVERFLOW_FLAG
Note: The following floating-point exceptions are signalling: IEEE_OVERFLOW_FLAG
Note: The following floating-point exceptions are signalling: IEEE_OVERFLOW_FLAG
Note: The following floating-point exceptions are signalling: IEEE_OVERFLOW_FLAG
Note: The following floating-point exceptions are signalling: IEEE_OVERFLOW_FLAG
Note: The following floating-point exceptions are signalling: IEEE_OVERFLOW_FLAG
Note: The following floating-point exceptions are signalling: IEEE_OVERFLOW_FLAG
Note: The following floating-point exceptions are signalling: IEEE_OVERFLOW_FLAG
Note: The following floating-point exceptions are signalling: IEEE_OVERFLOW_FLAG
Note: The following floating-point exceptions are signalling: IEEE_OVERFLOW_FLAG
Note: The following floating-point exceptions are signalling: IEEE_OVERFLOW_FLAG
Note: The following floating-point exceptions are signalling: IEEE_OVERFLOW_FLAG
Note: The following floating-point exceptions are signalling: IEEE_OVERFLOW_FLAG
Note: The following floating-point exceptions are signalling: IEEE_OVERFLOW_FLAG
Note: The following floating-point exceptions are signalling: IEEE_OVERFLOW_FLAG
Note: The following floating-point exceptions are signalling: IEEE_OVERFLOW_FLAG
Note: The following floating-point exceptions are signalling: IEEE_OVERFLOW_FLAG
Note: The following floating-point exceptions are signalling: IEEE_OVERFLOW_FLAG
Note: The following floating-point exceptions are signalling: IEEE_OVERFLOW_FLAG
Note: The following floating-point exceptions are signalling: IEEE_OVERFLOW_FLAG
Note: The following floating-point exceptions are signalling: IEEE_OVERFLOW_FLAG
Note: The following floating-point exceptions are signalling: IEEE_OVERFLOW_FLAG
Note: The following floating-point exceptions are signalling: IEEE_OVERFLOW_FLAG
Note: The following floating-point exceptions are signalling: IEEE_OVERFLOW_FLAG
Note: The following floating-point exceptions are signalling: IEEE_OVERFLOW_FLAG
Note: The following floating-point exceptions are signalling: IEEE_OVERFLOW_FLAG
Note: The following floating-point exceptions are signalling: IEEE_OVERFLOW_FLAG
Note: The following floating-point exceptions are signalling: IEEE_OVERFLOW_FLAG
Note: The following floating-point exceptions are signalling: IEEE_OVERFLOW_FLAG
Note: The following floating-point exceptions are signalling: IEEE_OVERFLOW_FLAG
Note: The following floating-point exceptions are signalling: IEEE_OVERFLOW_FLAG
Note: The following floating-point exceptions are signalling: IEEE_OVERFLOW_FLAG
Note: The following floating-point exceptions are signalling: IEEE_OVERFLOW_FLAG
Note: The following floating-point exceptions are signalling: IEEE_OVERFLOW_FLAG
Note: The following floating-point exceptions are signalling: IEEE_OVERFLOW_FLAG
Note: The following floating-point exceptions are signalling: IEEE_OVERFLOW_FLAG
Note: The following floating-point exceptions are signalling: IEEE_OVERFLOW_FLAG
Note: The following floating-point exceptions are signalling: IEEE_OVERFLOW_FLAG
Note: The following floating-point exceptions are signalling: IEEE_OVERFLOW_FLAG
Note: The following floating-point exceptions are signalling: IEEE_OVERFLOW_FLAG
Note: The following floating-point exceptions are signalling: IEEE_OVERFLOW_FLAG
Note: The following floating-point exceptions are signalling: IEEE_OVERFLOW_FLAG
Note: The following floating-point exceptions are signalling: IEEE_OVERFLOW_FLAG
Note: The following floating-point exceptions are signalling: IEEE_OVERFLOW_FLAG
Note: The following floating-point exceptions are signalling: IEEE_OVERFLOW_FLAG
Note: The following floating-point exceptions are signalling: IEEE_OVERFLOW_FLAG
Note: The following floating-point exceptions are signalling: IEEE_OVERFLOW_FLAG
Note: The following floating-point exceptions are signalling: IEEE_OVERFLOW_FLAG
Note: The following floating-point exceptions are signalling: IEEE_OVERFLOW_FLAG
Note: The following floating-point exceptions are signalling: IEEE_OVERFLOW_FLAG
