    3    3   60    1
  0.8144830E+01  0.3039000E-09  0.3039000E-09  0.3055000E-09  0.5000000E-15
   1.0000000000000000E-004
  CAR 
 Name                                    
     12    216     10

  0.3742002E-15  0.3742002E-15  0.3742002E-15  0.2962963E-03
    1       -5.774228   1.000000
    2        4.065775   1.000000
    3        4.521843   1.000000
    4        4.521845   1.000000
    5        5.190049   1.000000
    6        9.035249  -0.033914
    7        9.035250  -0.033915
    8       11.132122  -0.000000
    9       11.132125  -0.000000
   10       13.749018   0.000000

  0.6666667E-01  0.3766815E-15  0.3742002E-15  0.1777778E-02
    1       -5.686883   1.000000
    2        4.136494   1.000000
    3        4.303800   1.000000
    4        4.556347   1.000000
    5        5.020777   1.000000
    6        8.995284   0.029750
    7        9.285599  -0.000002
    8       10.732910  -0.000000
    9       10.818577  -0.000000
   10       14.022391   0.000000

  0.1333333E+00  0.3754153E-15  0.3742002E-15  0.1777778E-02
    1       -5.428443   1.000000
    2        3.705414   1.000000
    3        4.333283   1.000000
    4        4.627462   1.000000
    5        4.641534   1.000000
    6        8.884595   0.794521
    7        9.893400  -0.000000
    8        9.976433  -0.000000
    9       10.297052  -0.000000
   10       14.416646   0.000000

  0.2000000E+00  0.3870416E-15  0.3742002E-15  0.1777778E-02
    1       -5.009147   1.000000
    2        2.886306   1.000000
    3        4.181628   1.000000
    4        4.530645   1.000000
    5        4.729416   1.000000
    6        8.727072   1.009334
    7        9.373836  -0.000000
    8        9.936081  -0.000000
    9       10.580675  -0.000000
   10       14.659192   0.000000

  0.2666667E+00  0.4120044E-15  0.3742002E-15  0.1777778E-02
    1       -4.444260   1.000000
    2        1.948668   1.000000
    3        3.779496   1.000000
    4        4.577464   1.000000
    5        4.770180   1.000000
    6        8.553726   1.000001
    7        9.233645  -0.000048
    8        9.836738  -0.000000
    9       11.039013  -0.000000
   10       14.783636   0.000000

  0.3333333E+00  0.4025434E-15  0.3742002E-15  0.1777778E-02
    1       -3.752776   1.000000
    2        0.957363   1.000000
    3        3.462744   1.000000
    4        4.422626   1.000000
    5        4.750372   1.000000
    6        8.394761   1.000000
    7        9.635378  -0.000000
    8        9.967174  -0.000000
    9       11.090463  -0.000000
   10       14.845190   0.000000

  0.4000000E+00  0.3732510E-15  0.3742002E-15  0.1777778E-02
    1       -2.958262   1.000000
    2       -0.045250   1.000000
    3        3.247705   1.000000
    4        4.199987   1.000000
    5        4.700355   1.000000
    6        8.274774   1.000000
    7       10.200739  -0.000000
    8       10.359503  -0.000000
    9       10.921255  -0.000000
   10       14.880515   0.000000

  0.4666667E+00  0.3915456E-15  0.3742002E-15  0.1777778E-02
    1       -2.114915   1.000000
    2       -0.995302   1.000000
    3        3.139616   1.000000
    4        4.054723   1.000000
    5        4.662404   1.000000
    6        8.210583   1.000000
    7       10.375382  -0.000000
    8       10.781359  -0.000000
    9       10.980110  -0.000000
   10       14.909271   0.000000

  0.6666667E-01  0.6666667E-01  0.3742002E-15  0.1777778E-02
    1       -5.513961   1.000000
    2        3.912498   1.000000
    3        4.250775   1.000000
    4        4.618732   1.000000
    5        4.745291   1.000000
    6        8.897500   0.701960
    7        9.733835  -0.000000
    8       10.216180  -0.000000
    9       10.389004  -0.000000
   10       14.431131   0.000000

  0.1333333E+00  0.6666667E-01  0.3742002E-15  0.3555556E-02
    1       -5.174920   1.000000
    2        3.244265   1.000000
    3        4.326741   1.000000
    4        4.346169   1.000000
    5        4.788644   1.000000
    6        8.702584   1.004037
    7        9.541994  -0.000000
    8       10.029169  -0.000000
    9       10.442731  -0.000000
   10       14.787518   0.000000

  0.2000000E+00  0.6666667E-01  0.3742002E-15  0.3555556E-02
    1       -4.682305   1.000000
    2        2.404206   1.000000
    3        3.950020   1.000000
    4        4.229579   1.000000
    5        5.050444   1.000000
    6        8.449727   1.000000
    7        9.066796  -0.029970
    8        9.959031  -0.000000
    9       11.133658  -0.000000
   10       15.121083   0.000000

  0.2666667E+00  0.6666667E-01  0.3742002E-15  0.3555556E-02
    1       -4.052910   1.000000
    2        1.468886   1.000000
    3        3.619083   1.000000
    4        4.001483   1.000000
    5        5.226328   1.000000
    6        8.181767   1.000000
    7        9.022220  -0.025171
    8       10.175063  -0.000000
    9       11.506251  -0.000000
   10       15.156228   0.000000

  0.3333333E+00  0.6666667E-01  0.3742002E-15  0.3555556E-02
    1       -3.307101   1.000000
    2        0.487460   1.000000
    3        3.377962   1.000000
    4        3.740674   1.000000
    5        5.247424   1.000000
    6        7.944221   1.000000
    7        9.402251  -0.000000
    8       10.547911  -0.000000
    9       11.508360  -0.000000
   10       15.064356   0.000000

  0.4000000E+00  0.6666667E-01  0.3742002E-15  0.3555556E-02
    1       -2.473905   1.000000
    2       -0.494553   1.000000
    3        3.233476   1.000000
    4        3.543954   1.000000
    5        5.199481   1.000000
    6        7.780168   1.000000
    7        9.930573  -0.000000
    8       10.875434  -0.000000
    9       11.392632  -0.000000
   10       15.145114   0.000000

  0.4666667E+00  0.6666667E-01  0.3742002E-15  0.1777778E-02
    1       -1.775944   1.000000
    2       -1.243475   1.000000
    3        3.185571   1.000000
    4        3.471941   1.000000
    5        5.173400   1.000000
    6        7.721508   1.000000
    7       10.192519  -0.000000
    8       10.993892  -0.000000
    9       11.338136  -0.000000
   10       15.228079   0.000000

  0.1333333E+00  0.1333333E+00  0.3742002E-15  0.1777778E-02
    1       -4.762161   1.000000
    2        2.629936   1.000000
    3        4.025067   1.000000
    4        4.025824   1.000000
    5        5.153235   1.000000
    6        8.334263   1.000000
    7        8.995925   0.027722
    8       10.029043  -0.000000
    9       11.257710  -0.000000
   10       15.096361   0.000000

  0.2000000E+00  0.1333333E+00  0.3742002E-15  0.3555556E-02
    1       -4.203686   1.000000
    2        1.889122   1.000000
    3        3.573181   1.000000
    4        3.747792   1.000000
    5        5.579991   1.000000
    6        7.877517   1.000000
    7        8.583195   1.000009
    8       10.338204  -0.000000
    9       12.059059   0.000000
   10       14.825002   0.000000

  0.2666667E+00  0.1333333E+00  0.3742002E-15  0.3555556E-02
    1       -3.516869   1.000000
    2        1.034633   1.000000
    3        3.133135   1.000000
    4        3.546019   1.000000
    5        5.875732   1.000000
    6        7.426038   1.000000
    7        8.570116   1.000004
    8       10.735603  -0.000000
    9       12.494147   0.000000
   10       15.106547   0.000000

  0.3333333E+00  0.1333333E+00  0.3742002E-15  0.3555556E-02
    1       -2.723432   1.000000
    2        0.102680   1.000000
    3        2.808492   1.000000
    4        3.424072   1.000000
    5        5.945631   1.000000
    6        7.065047   1.000000
    7        9.013091  -0.012946
    8       10.933503  -0.000000
    9       12.544672   0.000000
   10       15.820453   0.000000

  0.4000000E+00  0.1333333E+00  0.3742002E-15  0.3555556E-02
    1       -1.864650   1.000000
    2       -0.835696   1.000000
    3        2.640442   1.000000
    4        3.369554   1.000000
    5        5.921380   1.000000
    6        6.864104   1.000000
    7        9.588509  -0.000000
    8       10.800000  -0.000000
    9       12.502442   0.000000
   10       15.957294   0.000000

  0.2000000E+00  0.2000000E+00  0.3742002E-15  0.1777778E-02
    1       -3.586800   1.000000
    2        1.335269   1.000000
    3        2.810447   1.000000
    4        3.627360   1.000000
    5        6.188136   1.000000
    6        7.205937   1.000000
    7        8.175385   1.000000
    8       10.801583  -0.000000
    9       13.091985   0.000000
   10       14.667570   0.000000

  0.2666667E+00  0.2000000E+00  0.3742002E-15  0.3555556E-02
    1       -2.849353   1.000000
    2        0.659524   1.000000
    3        2.174808   1.000000
    4        3.598872   1.000000
    5        6.583419   1.000000
    6        6.650166   1.000000
    7        8.151991   1.000000
    8       10.980801  -0.000000
    9       13.715271   0.000000
   10       15.035287   0.000000

  0.3333333E+00  0.2000000E+00  0.3742002E-15  0.3555556E-02
    1       -2.015398   1.000000
    2       -0.179825   1.000000
    3        1.810109   1.000000
    4        3.630886   1.000000
    5        6.130498   1.000000
    6        6.742878   1.000000
    7        8.689278   1.002402
    8       10.691744  -0.000000
    9       13.782316   0.000000
   10       15.860505   0.000000

  0.4000000E+00  0.2000000E+00  0.3742002E-15  0.1777778E-02
    1       -1.212790   1.000000
    2       -0.997357   1.000000
    3        1.697757   1.000000
    4        3.655937   1.000000
    5        5.960444   1.000000
    6        6.726455   1.000000
    7        9.155041  -0.002406
    8       10.333817  -0.000000
    9       13.769958   0.000000
   10       16.267970   0.000000

  0.2666667E+00  0.2666667E+00  0.3742002E-15  0.1777778E-02
    1       -2.069923   1.000000
    2        0.277584   1.000000
    3        1.296182   1.000000
    4        3.779425   1.000000
    5        5.817207   1.000000
    6        7.463635   1.000000
    7        7.914846   1.000000
    8       10.661072  -0.000000
    9       14.929405   0.000000
   10       14.984952   0.000000

  0.3333333E+00  0.2666667E+00  0.3742002E-15  0.3555556E-02
    1       -1.211428   1.000000
    2       -0.354241   1.000000
    3        0.818969   1.000000
    4        4.010542   1.000000
    5        5.278395   1.000000
    6        7.599894   1.000000
    7        8.470137   1.000000
    8       10.008686  -0.000000
    9       14.931058   0.000000
   10       15.832855   0.000000

  0.3333333E+00  0.3333333E+00  0.3742002E-15  0.5925926E-03
    1       -0.496064   1.000000
    2       -0.496061   1.000000
    3        0.122086   1.000000
    4        4.563264   1.000000
    5        4.563266   1.000000
    6        8.265314   1.000000
    7        8.265315   1.000000
    8        9.499974  -0.000000
    9       15.631805   0.000000
   10       15.631805   0.000000

  0.3742002E-15  0.3742002E-15  0.6666667E-01  0.5925926E-03
    1       -5.715219   1.000000
    2        3.733014   1.000000
    3        4.569720   1.000000
    4        4.569723   1.000000
    5        5.466534   1.000000
    6        8.872100   0.870528
    7        8.872101   0.870522
    8       11.006671  -0.000000
    9       11.006674  -0.000000
   10       14.613439   0.000000

  0.6666667E-01  0.3766815E-15  0.6666667E-01  0.3555556E-02
    1       -5.628822   1.000000
    2        3.782708   1.000000
    3        4.343053   1.000000
    4        4.599312   1.000000
    5        5.314565   1.000000
    6        8.809058   1.033932
    7        9.090581  -0.019248
    8       10.721510  -0.000000
    9       10.802445  -0.000000
   10       14.195285   0.000000

  0.1333333E+00  0.3754153E-15  0.6666667E-01  0.3555556E-02
    1       -5.373295   1.000000
    2        3.728032   1.000000
    3        3.883004   1.000000
    4        4.667309   1.000000
    5        5.015877   1.000000
    6        8.659772   1.000654
    7        9.401928  -0.000000
    8       10.368318  -0.000000
    9       10.437486  -0.000000
   10       14.450427   0.000000

  0.2000000E+00  0.3870416E-15  0.6666667E-01  0.3555556E-02
    1       -4.958920   1.000000
    2        2.882852   1.000000
    3        3.876720   1.000000
    4        4.721668   1.000000
    5        4.792366   1.000000
    6        8.521752   1.000000
    7        9.194091  -0.000412
    8       10.153317  -0.000000
    9       10.717771  -0.000000
   10       14.561648   0.000000

  0.2666667E+00  0.4120044E-15  0.6666667E-01  0.3555556E-02
    1       -4.400999   1.000000
    2        1.925930   1.000000
    3        3.701753   1.000000
    4        4.645719   1.000000
    5        4.714785   1.000000
    6        8.463982   1.000000
    7        9.132098  -0.005727
    8       10.023284  -0.000000
    9       11.100251  -0.000000
   10       14.697739   0.000000

  0.3333333E+00  0.4025434E-15  0.6666667E-01  0.3555556E-02
    1       -3.718019   1.000000
    2        0.925670   1.000000
    3        3.486685   1.000000
    4        4.435253   1.000000
    5        4.646944   1.000000
    6        8.458202   1.000000
    7        9.497624  -0.000000
    8       10.070831  -0.000000
    9       11.164767  -0.000000
   10       15.059904   0.000000

  0.4000000E+00  0.3732510E-15  0.6666667E-01  0.3555556E-02
    1       -2.931507   1.000000
    2       -0.078567   1.000000
    3        3.322045   1.000000
    4        4.202814   1.000000
    5        4.561922   1.000000
    6        8.449808   1.000000
    7       10.011167  -0.000000
    8       10.240659  -0.000000
    9       11.204383  -0.000000
   10       14.925843   0.000000

  0.4666667E+00  0.3915456E-15  0.6666667E-01  0.3555556E-02
    1       -2.082141   1.000000
    2       -1.038595   1.000000
    3        3.236362   1.000000
    4        4.057202   1.000000
    5        4.506505   1.000000
    6        8.436938   1.000000
    7       10.214401  -0.000000
    8       10.387409  -0.000000
    9       11.510498  -0.000000
   10       14.717345   0.000000

  0.6666667E-01  0.6666667E-01  0.6666667E-01  0.3555556E-02
    1       -5.457834   1.000000
    2        3.856727   1.000000
    3        3.949026   1.000000
    4        4.586553   1.000000
    5        5.136128   1.000000
    6        8.643217   1.000288
    7        9.449329  -0.000000
    8       10.329050  -0.000000
    9       10.572749  -0.000000
   10       14.526314   0.000000

  0.1333333E+00  0.6666667E-01  0.6666667E-01  0.7111111E-02
    1       -5.122729   1.000000
    2        3.263970   1.000000
    3        3.898124   1.000000
    4        4.429628   1.000000
    5        5.094558   1.000000
    6        8.356281   1.000000
    7        9.577916  -0.000000
    8       10.022770  -0.000000
    9       10.658002  -0.000000
   10       14.782791   0.000000

  0.2000000E+00  0.6666667E-01  0.6666667E-01  0.7111111E-02
    1       -4.636128   1.000000
    2        2.399175   1.000000
    3        3.776259   1.000000
    4        4.228486   1.000000
    5        5.185748   1.000000
    6        8.105217   1.000000
    7        9.316938  -0.000000
    8        9.999072  -0.000000
    9       11.177240  -0.000000
   10       14.763806   0.000000

  0.2666667E+00  0.6666667E-01  0.6666667E-01  0.7111111E-02
    1       -4.014675   1.000000
    2        1.445966   1.000000
    3        3.571776   1.000000
    4        3.994646   1.000000
    5        5.220351   1.000000
    6        8.024215   1.000000
    7        9.262323  -0.000008
    8       10.153304  -0.000000
    9       11.506762  -0.000000
   10       14.941782   0.000000

  0.3333333E+00  0.6666667E-01  0.6666667E-01  0.7111111E-02
    1       -3.277809   1.000000
    2        0.457330   1.000000
    3        3.402789   1.000000
    4        3.739197   1.000000
    5        5.136288   1.000000
    6        8.034317   1.000000
    7        9.509527  -0.000000
    8       10.426885  -0.000000
    9       11.573262  -0.000000
   10       15.129909   0.000000

  0.4000000E+00  0.6666667E-01  0.6666667E-01  0.7111111E-02
    1       -2.450253   1.000000
    2       -0.526888   1.000000
    3        3.306754   1.000000
    4        3.538065   1.000000
    5        5.028229   1.000000
    6        8.008167   1.000000
    7        9.951253  -0.000000
    8       10.577259  -0.000000
    9       11.663693   0.000000
   10       15.008833   0.000000

  0.4666667E+00  0.6666667E-01  0.6666667E-01  0.3555556E-02
    1       -1.714206   1.000000
    2       -1.316118   1.000000
    3        3.280031   1.000000
    4        3.459270   1.000000
    5        4.983178   1.000000
    6        7.987947   1.000000
    7       10.209596  -0.000000
    8       10.557819  -0.000000
    9       11.753983   0.000000
   10       14.934095   0.000000

  0.1333333E+00  0.1333333E+00  0.6666667E-01  0.3555556E-02
    1       -4.715036   1.000000
    2        2.649173   1.000000
    3        3.756461   1.000000
    4        4.039524   1.000000
    5        5.393382   1.000000
    6        7.850308   1.000000
    7        9.460965  -0.000000
    8        9.954174  -0.000000
    9       11.276068  -0.000000
   10       14.979961   0.000000

  0.2000000E+00  0.1333333E+00  0.6666667E-01  0.7111111E-02
    1       -4.163760   1.000000
    2        1.891915   1.000000
    3        3.397688   1.000000
    4        3.792421   1.000000
    5        5.716472   1.000000
    6        7.428797   1.000000
    7        9.081891  -0.023198
    8       10.301641  -0.000000
    9       11.982429   0.000000
   10       14.717953   0.000000

  0.2666667E+00  0.1333333E+00  0.6666667E-01  0.7111111E-02
    1       -3.485980   1.000000
    2        1.018153   1.000000
    3        3.040086   1.000000
    4        3.611111   1.000000
    5        5.810821   1.000000
    6        7.315525   1.000000
    7        8.911608   0.588902
    8       10.679809  -0.000000
    9       12.401704   0.000000
   10       14.922748   0.000000

  0.3333333E+00  0.1333333E+00  0.6666667E-01  0.7111111E-02
    1       -2.701986   1.000000
    2        0.077788   1.000000
    3        2.773824   1.000000
    4        3.497299   1.000000
    5        5.657897   1.000000
    6        7.356206   1.000000
    7        9.153097  -0.002602
    8       10.844954  -0.000000
    9       12.526472   0.000000
   10       15.290395   0.000000

  0.4000000E+00  0.1333333E+00  0.6666667E-01  0.7111111E-02
    1       -1.842985   1.000000
    2       -0.867936   1.000000
    3        2.632939   1.000000
    4        3.447918   1.000000
    5        5.519991   1.000000
    6        7.337122   1.000000
    7        9.636771  -0.000000
    8       10.702616  -0.000000
    9       12.550282   0.000000
   10       15.475859   0.000000

  0.2000000E+00  0.2000000E+00  0.6666667E-01  0.3555556E-02
    1       -3.555367   1.000000
    2        1.337832   1.000000
    3        2.704225   1.000000
    4        3.665276   1.000000
    5        6.328290   1.000000
    6        6.765318   1.000000
    7        8.672179   1.001158
    8       10.763963  -0.000000
    9       12.915384   0.000000
   10       14.586224   0.000000

  0.2666667E+00  0.2000000E+00  0.6666667E-01  0.7111111E-02
    1       -2.828407   1.000000
    2        0.647750   1.000000
    3        2.127792   1.000000
    4        3.641931   1.000000
    5        6.121540   1.000000
    6        6.971397   1.000000
    7        8.483874   1.000000
    8       10.940031  -0.000000
    9       13.551351   0.000000
   10       14.872065   0.000000

  0.3333333E+00  0.2000000E+00  0.6666667E-01  0.7111111E-02
    1       -2.005155   1.000000
    2       -0.199626   1.000000
    3        1.802444   1.000000
    4        3.679790   1.000000
    5        5.697916   1.000000
    6        7.221096   1.000000
    7        8.817120   1.029611
    8       10.666032  -0.000000
    9       13.704784   0.000000
   10       15.525190   0.000000

  0.4000000E+00  0.2000000E+00  0.6666667E-01  0.3555556E-02
    1       -1.167447   1.000000
    2       -1.057220   1.000000
    3        1.701883   1.000000
    4        3.708847   1.000000
    5        5.536007   1.000000
    6        7.239709   1.000000
    7        9.222205  -0.000093
    8       10.326230  -0.000000
    9       13.716086   0.000000
   10       15.857128   0.000000

  0.2666667E+00  0.2666667E+00  0.6666667E-01  0.3555556E-02
    1       -2.061748   1.000000
    2        0.260715   1.000000
    3        1.287179   1.000000
    4        3.806953   1.000000
    5        5.609125   1.000000
    6        7.573861   1.000000
    7        8.217330   1.000000
    8       10.647850  -0.000000
    9       14.698189   0.000000
   10       14.905516   0.000000

  0.3333333E+00  0.2666667E+00  0.6666667E-01  0.7111111E-02
    1       -1.219647   1.000000
    2       -0.372650   1.000000
    3        0.837389   1.000000
    4        4.026121   1.000000
    5        5.134050   1.000000
    6        7.829231   1.000000
    7        8.591178   1.000015
    8       10.022745  -0.000000
    9       14.835778   0.000000
   10       15.642299   0.000000

  0.3333333E+00  0.3333333E+00  0.6666667E-01  0.1185185E-02
    1       -0.535151   1.000000
    2       -0.535148   1.000000
    3        0.194745   1.000000
    4        4.523714   1.000000
    5        4.523716   1.000000
    6        8.419093   1.000000
    7        8.419094   1.000000
    8        9.519138  -0.000000
    9       15.515180   0.000000
   10       15.515180   0.000000

  0.3742002E-15  0.3742002E-15  0.1333333E+00  0.5925926E-03
    1       -5.541859   1.000000
    2        3.083536   1.000000
    3        4.712916   1.000000
    4        4.712919   1.000000
    5        5.961964   1.000000
    6        8.477543   1.000000
    7        8.477544   1.000000
    8       10.652393  -0.000000
    9       10.652396  -0.000000
   10       14.562511   0.000000

  0.6666667E-01  0.3766815E-15  0.1333333E+00  0.3555556E-02
    1       -5.458423   1.000000
    2        3.129947   1.000000
    3        4.470613   1.000000
    4        4.726497   1.000000
    5        5.789961   1.000000
    6        8.382857   1.000000
    7        8.662068   1.000728
    8       10.558010  -0.000000
    9       10.647979  -0.000000
   10       14.831530   0.000000

  0.1333333E+00  0.3754153E-15  0.1333333E+00  0.3555556E-02
    1       -5.211876   1.000000
    2        3.222090   1.000000
    3        3.841245   1.000000
    4        4.739763   1.000000
    5        5.460309   1.000000
    6        8.215391   1.000000
    7        8.859769   0.930530
    8       10.573391  -0.000000
    9       10.607902  -0.000000
   10       14.632717   0.000000

  0.2000000E+00  0.3870416E-15  0.1333333E+00  0.3555556E-02
    1       -4.812869   1.000000
    2        2.817885   1.000000
    3        3.482331   1.000000
    4        4.693040   1.000000
    5        5.126186   1.000000
    6        8.170182   1.000000
    7        8.806276   1.034731
    8       10.520708  -0.000000
    9       10.954728  -0.000000
   10       14.401823   0.000000

  0.2666667E+00  0.4120044E-15  0.1333333E+00  0.3555556E-02
    1       -4.276709   1.000000
    2        1.860670   1.000000
    3        3.526633   1.000000
    4        4.560030   1.000000
    5        4.795570   1.000000
    6        8.327229   1.000000
    7        8.858621   0.935339
    8       10.421793  -0.000000
    9       11.297650  -0.000000
   10       14.350775   0.000000

  0.3333333E+00  0.4025434E-15  0.1333333E+00  0.3555556E-02
    1       -3.620955   1.000000
    2        0.853713   1.000000
    3        3.532058   1.000000
    4        4.382753   1.000000
    5        4.469955   1.000000
    6        8.611369   1.000050
    7        9.165697  -0.001539
    8       10.361933  -0.000000
    9       11.395878  -0.000000
   10       14.660118   0.000000

  0.4000000E+00  0.3732510E-15  0.1333333E+00  0.3555556E-02
    1       -2.863278   1.000000
    2       -0.144131   1.000000
    3        3.511682   1.000000
    4        4.199936   1.000000
    5        4.226405   1.000000
    6        8.873469   0.862928
    7        9.492849  -0.000000
    8       10.374966  -0.000000
    9       11.596727  -0.000000
   10       14.681179   0.000000

  0.4666667E+00  0.3915456E-15  0.1333333E+00  0.3555556E-02
    1       -2.020997   1.000000
    2       -1.107563   1.000000
    3        3.495116   1.000000
    4        4.047568   1.000000
    5        4.137506   1.000000
    6        9.010695  -0.008745
    7        9.612835  -0.000000
    8       10.424903  -0.000000
    9       12.031539   0.000000
   10       14.287706   0.000000

  0.6666667E-01  0.6666667E-01  0.1333333E+00  0.3555556E-02
    1       -5.293420   1.000000
    2        3.206226   1.000000
    3        4.056451   1.000000
    4        4.666094   1.000000
    5        5.615244   1.000000
    6        8.131584   1.000000
    7        8.977312   0.103018
    8       10.395580  -0.000000
    9       10.716514  -0.000000
   10       15.292029   0.000000

  0.1333333E+00  0.6666667E-01  0.1333333E+00  0.7111111E-02
    1       -4.970549   1.000000
    2        3.200749   1.000000
    3        3.440776   1.000000
    4        4.462064   1.000000
    5        5.533515   1.000000
    6        7.794304   1.000000
    7        9.225204  -0.000079
    8       10.310472  -0.000000
    9       10.925131  -0.000000
   10       14.794272   0.000000

  0.2000000E+00  0.6666667E-01  0.1333333E+00  0.7111111E-02
    1       -4.502668   1.000000
    2        2.368157   1.000000
    3        3.437909   1.000000
    4        4.210366   1.000000
    5        5.426908   1.000000
    6        7.663203   1.000000
    7        9.305152  -0.000000
    8       10.299141  -0.000000
    9       11.316079  -0.000000
   10       14.489059   0.000000

  0.2666667E+00  0.6666667E-01  0.1333333E+00  0.7111111E-02
    1       -3.906180   1.000000
    2        1.388295   1.000000
    3        3.451950   1.000000
    4        3.959151   1.000000
    5        5.182641   1.000000
    6        7.859055   1.000000
    7        9.477562  -0.000000
    8       10.271853  -0.000000
    9       11.593400  -0.000000
   10       14.523058   0.000000

  0.3333333E+00  0.6666667E-01  0.1333333E+00  0.7111111E-02
    1       -3.198731   1.000000
    2        0.393099   1.000000
    3        3.435452   1.000000
    4        3.734789   1.000000
    5        4.889984   1.000000
    6        8.228052   1.000000
    7        9.713499  -0.000000
    8       10.283095  -0.000000
    9       11.745922   0.000000
   10       14.746722   0.000000

  0.4000000E+00  0.6666667E-01  0.1333333E+00  0.7111111E-02
    1       -2.397860   1.000000
    2       -0.583864   1.000000
    3        3.415018   1.000000
    4        3.582225   1.000000
    5        4.669192   1.000000
    6        8.501857   1.000000
    7        9.949237  -0.000000
    8       10.285176  -0.000000
    9       12.022755   0.000000
   10       14.596112   0.000000

  0.4666667E+00  0.6666667E-01  0.1333333E+00  0.3555556E-02
    1       -1.533528   1.000000
    2       -1.507349   1.000000
    3        3.402581   1.000000
    4        3.533382   1.000000
    5        4.588135   1.000000
    6        8.583279   1.000009
    7       10.081690  -0.000000
    8       10.259515  -0.000000
    9       12.224629   0.000000
   10       14.404567   0.000000

  0.1333333E+00  0.1333333E+00  0.1333333E+00  0.3555556E-02
    1       -4.578578   1.000000
    2        2.704445   1.000000
    3        3.260259   1.000000
    4        4.039157   1.000000
    5        5.853676   1.000000
    6        7.184134   1.000000
    7        9.727900  -0.000000
    8       10.029498  -0.000000
    9       11.362617  -0.000000
   10       14.811168   0.000000

  0.2000000E+00  0.1333333E+00  0.1333333E+00  0.7111111E-02
    1       -4.049729   1.000000
    2        1.896676   1.000000
    3        3.082990   1.000000
    4        3.806217   1.000000
    5        5.955038   1.000000
    6        6.935326   1.000000
    7        9.744709  -0.000000
    8       10.191808  -0.000000
    9       11.884875   0.000000
   10       14.504606   0.000000

  0.2666667E+00  0.1333333E+00  0.1333333E+00  0.7111111E-02
    1       -3.400530   1.000000
    2        0.978995   1.000000
    3        2.872923   1.000000
    4        3.697834   1.000000
    5        5.573223   1.000000
    6        7.344014   1.000000
    7        9.568607  -0.000000
    8       10.514190  -0.000000
    9       12.272341   0.000000
   10       14.573506   0.000000

  0.3333333E+00  0.1333333E+00  0.1333333E+00  0.7111111E-02
    1       -2.648849   1.000000
    2        0.028053   1.000000
    3        2.702441   1.000000
    4        3.655223   1.000000
    5        5.176274   1.000000
    6        7.846767   1.000000
    7        9.557922  -0.000000
    8       10.620581  -0.000000
    9       12.519532   0.000000
   10       14.786966   0.000000

  0.4000000E+00  0.1333333E+00  0.1333333E+00  0.7111111E-02
    1       -1.813626   1.000000
    2       -0.911835   1.000000
    3        2.607984   1.000000
    4        3.652482   1.000000
    5        4.943287   1.000000
    6        8.106139   1.000000
    7        9.786633  -0.000000
    8       10.486353  -0.000000
    9       12.667029   0.000000
   10       14.852299   0.000000

  0.2000000E+00  0.2000000E+00  0.1333333E+00  0.3555556E-02
    1       -3.467815   1.000000
    2        1.343994   1.000000
    3        2.482583   1.000000
    4        3.717824   1.000000
    5        6.123475   1.000000
    6        6.703872   1.000000
    7        9.461361  -0.000000
    8       10.635066  -0.000000
    9       12.607875   0.000000
   10       14.406522   0.000000

  0.2666667E+00  0.2000000E+00  0.1333333E+00  0.7111111E-02
    1       -2.773977   1.000000
    2        0.618022   1.000000
    3        2.031545   1.000000
    4        3.731564   1.000000
    5        5.573159   1.000000
    6        7.350312   1.000000
    7        9.194077  -0.000412
    8       10.817254  -0.000000
    9       13.231453   0.000000
   10       14.578745   0.000000
