 running on    4 total cores
 distrk:  each k-point on    4 cores,    1 groups
 distr:  one band on    2 cores,    2 groups
 using from now: INCAR     
 vasp.5.4.4.18Apr17-6-g9f103f2a35 (build Dec  7 2020 12:43:57) complex           
 POSCAR found type information on POSCAR  Mo B 
 POSCAR found :  2 types and       3 ions
 scaLAPACK will be used
 LDA part: xc-table for Pade appr. of Perdew
 POSCAR, INCAR and KPOINTS ok, starting setup
 FFT: planning ...
 WAVECAR not read
 augmentation electrons   12.018373587906812     
 soft         electrons   0.0000000000000000     
 augmentation electrons   12.018373587906812     
 soft         electrons   0.0000000000000000     
 augmentation electrons   12.018373587906812     
 soft         electrons   0.0000000000000000     
 augmentation electrons   12.018373587906812     
 soft         electrons   0.0000000000000000     
 total        electrons   12.018373587906812     
 total        electrons   12.018373587906812     
 total        electrons   12.018373587906812     
 total        electrons   12.018373587906812     
 augmentation electrons   169.75791458332097     
 soft         electrons   0.0000000000000000     
 augmentation electrons   169.75791458332097     
 soft         electrons   0.0000000000000000     
 total        electrons   169.75791458332097     
 augmentation electrons   169.75791458332097     
 soft         electrons   0.0000000000000000     
 total        electrons   169.75791458332097     
 augmentation electrons   169.75791458332097     
 soft         electrons   0.0000000000000000     
 total        electrons   169.75791458332097     
 total        electrons   169.75791458332097     
 entering main loop
       N       E                     dE             d eps       ncg     rms          rms(c)
DAV:   1     0.325974980407E+02    0.32597E+02   -0.57162E+03  4320   0.105E+03
DAV:   2    -0.241234065125E+02   -0.56721E+02   -0.53813E+02  5142   0.219E+02
DAV:   3    -0.263148488011E+02   -0.21914E+01   -0.21012E+01  6008   0.381E+01
DAV:   4    -0.263413928150E+02   -0.26544E-01   -0.26297E-01  5456   0.319E+00
DAV:   5    -0.263417610282E+02   -0.36821E-03   -0.36770E-03  5584   0.287E-01    0.362E+01
RMM:   6    -0.225334360571E+02    0.38083E+01   -0.13320E+01  4336   0.228E+01    0.915E+00
RMM:   7    -0.225154597696E+02    0.17976E-01   -0.35111E-01  4329   0.370E+00    0.543E+00
RMM:   8    -0.225287936064E+02   -0.13334E-01   -0.24954E-01  4320   0.493E+00    0.198E+00
RMM:   9    -0.224983326604E+02    0.30461E-01   -0.60829E-02  4320   0.179E+00    0.162E-01
RMM:  10    -0.224984297628E+02   -0.97102E-04   -0.32553E-03  4376   0.336E-01    0.204E-01
RMM:  11    -0.224979027533E+02    0.52701E-03   -0.66493E-04  4322   0.173E-01    0.356E-02
RMM:  12    -0.224979032941E+02   -0.54076E-06   -0.18962E-05  4078   0.244E-02    0.682E-03
RMM:  13    -0.224979028383E+02    0.45581E-06   -0.87147E-06  3983   0.195E-02
   1 F= -.22497903E+02 E0= -.22497847E+02  d E =-.224979E+02
 curvature:   0.00 expect dE= 0.000E+00 dE for cont linesearch  0.000E+00
 trial: gam= 0.00000 g(F)=  0.547E-43 g(S)=  0.994E+00 ort = 0.000E+00 (trialstep = 0.100E+01)
 search vector abs. value=  0.994E+00
 bond charge predicted
       N       E                     dE             d eps       ncg     rms          rms(c)
DAV:   1    -0.229070776782E+02   -0.40917E+00   -0.24376E+01  4364   0.471E+01    0.148E+01
RMM:   2    -0.224345900977E+02    0.47249E+00   -0.12553E+00  4320   0.775E+00    0.577E+00
RMM:   3    -0.223509198227E+02    0.83670E-01   -0.10543E-01  4322   0.214E+00    0.369E+00
RMM:   4    -0.223353004810E+02    0.15619E-01   -0.53594E-02  4320   0.157E+00    0.389E-01
RMM:   5    -0.223358029017E+02   -0.50242E-03   -0.58445E-03  4355   0.450E-01    0.155E-01
RMM:   6    -0.223352088974E+02    0.59400E-03   -0.20726E-03  4321   0.329E-01    0.477E-02
RMM:   7    -0.223351757224E+02    0.33175E-04   -0.42197E-05  4356   0.517E-02    0.120E-02
RMM:   8    -0.223351742366E+02    0.14858E-05   -0.75742E-06  4184   0.207E-02    0.510E-03
RMM:   9    -0.223351747430E+02   -0.50639E-06   -0.66632E-07  2835   0.653E-03
   2 F= -.22335175E+02 E0= -.22335019E+02  d E =0.162728E+00
 trial-energy change:    0.162728  1 .order    0.079477   -0.993556    1.152510
 step:   0.4068(harm=  0.4630)  dis= 0.00000  next Energy=   -22.694387 (dE=-0.196E+00)
 bond charge predicted
       N       E                     dE             d eps       ncg     rms          rms(c)
DAV:   1    -0.228754242963E+02   -0.54025E+00   -0.89559E+00  4348   0.299E+01    0.864E+00
RMM:   2    -0.227126164078E+02    0.16281E+00   -0.26433E-01  4320   0.390E+00    0.298E+00
RMM:   3    -0.226883731028E+02    0.24243E-01   -0.30203E-02  4320   0.126E+00    0.135E+00
RMM:   4    -0.226846241140E+02    0.37490E-02   -0.13695E-02  4320   0.829E-01    0.148E-01
RMM:   5    -0.226848601528E+02   -0.23604E-03   -0.61182E-04  4341   0.182E-01    0.425E-02
RMM:   6    -0.226848521900E+02    0.79627E-05   -0.29459E-04  4321   0.134E-01    0.527E-02
RMM:   7    -0.226848277668E+02    0.24423E-04   -0.47818E-05  4321   0.549E-02    0.435E-03
RMM:   8    -0.226848274254E+02    0.34144E-06   -0.11061E-06  2872   0.637E-03
   3 F= -.22684827E+02 E0= -.22684868E+02  d E =-.186925E+00
 curvature:  -0.23 expect dE=-0.967E-02 dE for cont linesearch -0.142E-03
 ZBRENT: interpolating
 opt :   0.3969  next Energy=   -22.684950 (dE=-0.187E+00)
 bond charge predicted
       N       E                     dE             d eps       ncg     rms          rms(c)
DAV:   1    -0.226850269121E+02   -0.19915E-03   -0.25064E-03  4744   0.498E-01    0.162E-01
RMM:   2    -0.226849840116E+02    0.42900E-04   -0.79050E-05  4319   0.666E-02    0.601E-02
RMM:   3    -0.226849792962E+02    0.47155E-05   -0.83037E-06  4263   0.208E-02    0.287E-02
RMM:   4    -0.226849798519E+02   -0.55578E-06   -0.35924E-06  3596   0.135E-02    0.273E-03
RMM:   5    -0.226849801247E+02   -0.27274E-06   -0.19814E-07  2381   0.397E-03
   4 F= -.22684980E+02 E0= -.22685019E+02  d E =-.187077E+00
 curvature:  -0.20 expect dE=-0.789E-02 dE for cont linesearch -0.149E-05
 trial: gam= 0.04276 g(F)=  0.193E-44 g(S)=  0.398E-01 ort =-0.273E-02 (trialstep = 0.879E+00)
 search vector abs. value=  0.413E-01
 bond charge predicted
       N       E                     dE             d eps       ncg     rms          rms(c)
DAV:   1    -0.227161806684E+02   -0.31201E-01   -0.10439E+00  4360   0.855E+00    0.473E-01
RMM:   2    -0.227121841779E+02    0.39965E-02   -0.23256E-02  4328   0.130E+00    0.456E-01
RMM:   3    -0.227118352757E+02    0.34890E-03   -0.74026E-04  4346   0.177E-01    0.259E-01
RMM:   4    -0.227118691610E+02   -0.33885E-04   -0.38526E-04  4320   0.175E-01    0.454E-02
RMM:   5    -0.227119076814E+02   -0.38520E-04   -0.11909E-04  4327   0.880E-02    0.406E-02
RMM:   6    -0.227119054908E+02    0.21906E-05   -0.31510E-05  4315   0.445E-02    0.913E-03
RMM:   7    -0.227119063771E+02   -0.88625E-06   -0.12702E-06  2929   0.138E-02
   5 F= -.22711906E+02 E0= -.22711815E+02  d E =-.269263E-01
 trial-energy change:   -0.026926  1 .order   -0.028817   -0.034854   -0.022780
 step:   2.5385(harm=  2.5385)  dis= 0.00000  next Energy=   -22.735287 (dE=-0.503E-01)
 bond charge predicted
       N       E                     dE             d eps       ncg     rms          rms(c)
DAV:   1    -0.227460815437E+02   -0.34176E-01   -0.37230E+00  4368   0.160E+01    0.867E-01
RMM:   2    -0.227357061839E+02    0.10375E-01   -0.73601E-02  4329   0.236E+00    0.830E-01
RMM:   3    -0.227348724308E+02    0.83375E-03   -0.23422E-03  4344   0.346E-01    0.474E-01
RMM:   4    -0.227355638970E+02   -0.69147E-03   -0.14454E-03  4320   0.375E-01    0.969E-02
RMM:   5    -0.227357500091E+02   -0.18611E-03   -0.36867E-04  4324   0.169E-01    0.714E-02
RMM:   6    -0.227357858909E+02   -0.35882E-04   -0.11702E-04  4324   0.104E-01    0.235E-02
RMM:   7    -0.227357827145E+02    0.31764E-05   -0.83136E-06  4069   0.250E-02    0.606E-03
RMM:   8    -0.227357826958E+02    0.18691E-07   -0.18477E-06  3134   0.103E-02
   6 F= -.22735783E+02 E0= -.22735779E+02  d E =-.508026E-01
 curvature:  -1.32 expect dE=-0.946E-02 dE for cont linesearch -0.252E-04
 trial: gam= 0.24715 g(F)=  0.775E-44 g(S)=  0.715E-02 ort = 0.888E-03 (trialstep = 0.121E+01)
 search vector abs. value=  0.101E-01
 bond charge predicted
       N       E                     dE             d eps       ncg     rms          rms(c)
DAV:   1    -0.227372830611E+02   -0.15003E-02   -0.42646E-01  4400   0.612E+00    0.169E+00
RMM:   2    -0.227329970201E+02    0.42860E-02   -0.70979E-03  4320   0.691E-01    0.745E-01
RMM:   3    -0.227319899552E+02    0.10071E-02   -0.14658E-03  4326   0.283E-01    0.295E-01
RMM:   4    -0.227319271499E+02    0.62805E-04   -0.37054E-04  4325   0.145E-01    0.344E-02
RMM:   5    -0.227319406893E+02   -0.13539E-04   -0.25705E-05  4347   0.596E-02    0.625E-03
RMM:   6    -0.227319410479E+02   -0.35863E-06   -0.16637E-06  3013   0.927E-03
   7 F= -.22731941E+02 E0= -.22732046E+02  d E =0.384165E-02
 trial-energy change:    0.003842  1 .order    0.003742   -0.008922    0.016407
 step:   0.4202(harm=  0.4267)  dis= 0.00000  next Energy=   -22.737326 (dE=-0.154E-02)
 bond charge predicted
       N       E                     dE             d eps       ncg     rms          rms(c)
DAV:   1    -0.227394987589E+02   -0.75581E-02   -0.18293E-01  4344   0.404E+00    0.110E+00
RMM:   2    -0.227377204847E+02    0.17783E-02   -0.29098E-03  4320   0.448E-01    0.483E-01
RMM:   3    -0.227373111835E+02    0.40930E-03   -0.62451E-04  4325   0.186E-01    0.186E-01
RMM:   4    -0.227372976697E+02    0.13514E-04   -0.15127E-04  4324   0.927E-02    0.219E-02
RMM:   5    -0.227373063339E+02   -0.86642E-05   -0.10471E-05  4310   0.380E-02    0.427E-03
RMM:   6    -0.227373060385E+02    0.29534E-06   -0.46856E-07  2700   0.555E-03
   8 F= -.22737306E+02 E0= -.22737390E+02  d E =-.152334E-02
 curvature:  -0.29 expect dE=-0.232E-05 dE for cont linesearch -0.126E-07
 trial: gam=-0.01758 g(F)=  0.116E-42 g(S)=  0.791E-05 ort = 0.209E-04 (trialstep = 0.105E+01)
 search vector abs. value=  0.103E-04
 reached required accuracy - stopping structural energy minimisation
 writing wavefunctions
 augmentation electrons   1.1729817839096304     
 soft         electrons   10.849320398107359     
 augmentation electrons   1.1729817839096304     
 soft         electrons   10.849320398107359     
 augmentation electrons   1.1729817839096304     
 soft         electrons   10.849320398107359     
 augmentation electrons   1.1729817839096304     
 soft         electrons   10.849320398107359     
 total        electrons   12.022302182016990     
 total        electrons   12.022302182016990     
 total        electrons   12.022302182016990     
 total        electrons   12.022302182016990     
