   52   52    1    1
  0.2272233E+02  0.8645320E-09  0.6085000E-09  0.2593596E-08  0.5000000E-15
   1.0000000000000000E-004
  CAR 
 Name                                    
    192    149    128

  0.3742002E-15  0.3742002E-15  0.3742002E-15  0.3367003E-02
    1      -13.857785   1.000000
    2      -12.581629   1.000000
    3      -12.339787   1.000000
    4      -11.894256   1.000000
    5      -11.643796   1.000000
    6      -11.090639   1.000000
    7      -11.082973   1.000000
    8      -10.999637   1.000000
    9      -10.989347   1.000000
   10      -10.549348   1.000000
   11      -10.547007   1.000000
   12      -10.321145   1.000000
   13      -10.154903   1.000000
   14      -10.064105   1.000000
   15       -9.748344   1.000000
   16       -9.693954   1.000000
   17       -9.204594   1.000000
   18       -8.957825   1.000000
   19       -8.745715   1.000000
   20       -8.699227   1.000000
   21       -8.685433   1.000000
   22       -8.547207   1.000000
   23       -8.413933   1.000000
   24       -8.044961   1.000000
   25       -7.887040   1.000000
   26       -7.871399   1.000000
   27       -7.365169   1.000000
   28       -7.192043   1.000000
   29       -7.042079   1.000000
   30       -6.765227   1.000000
   31       -6.377223   1.000000
   32       -6.363909   1.000000
   33       -6.351410   1.000000
   34       -6.040164   1.000000
   35       -5.885888   1.000000
   36       -5.758124   1.000000
   37       -5.561471   1.000000
   38       -5.453751   1.000000
   39       -5.394750   1.000000
   40       -5.304035   1.000000
   41       -5.152094   1.000000
   42       -5.122373   1.000000
   43       -4.998242   1.000000
   44       -4.943979   1.000000
   45       -4.927260   1.000000
   46       -4.895166   1.000000
   47       -4.710922   1.000000
   48       -4.611923   1.000000
   49       -4.458501   1.000000
   50       -4.407481   1.000000
   51       -4.396316   1.000000
   52       -4.361183   1.000000
   53       -4.350520   1.000000
   54       -4.313084   1.000000
   55       -4.266036   1.000000
   56       -4.220959   1.000000
   57       -4.053319   1.000000
   58       -3.992918   1.000000
   59       -3.941786   1.000000
   60       -3.907329   1.000000
   61       -3.903552   1.000000
   62       -3.750487   1.000000
   63       -3.589440   1.000000
   64       -3.437951   1.000000
   65       -3.328488   1.000000
   66       -3.258289   1.000000
   67       -3.218747   1.000000
   68       -3.191913   1.000000
   69       -3.172391   1.000000
   70       -3.141325   1.000000
   71       -3.115336   1.000000
   72       -3.080622   1.000000
   73       -2.867109   1.000000
   74       -2.598312   1.000000
   75       -2.557171   1.000000
   76       -2.398424   1.000000
   77       -2.154745   1.000000
   78       -2.110710   1.000000
   79       -2.097540   1.000000
   80       -2.066355   1.000000
   81       -2.038188   1.000000
   82       -1.615072   1.000000
   83       -1.466318   1.000000
   84       -1.369242   1.000000
   85       -1.097743   1.000000
   86       -0.970958   1.000000
   87       -0.912160   1.000000
   88       -0.846634   1.000000
   89       -0.736902   1.000000
   90       -0.233344   1.000000
   91       -0.146254   1.000000
   92        0.031142   1.005153
   93        0.035415   1.005988
   94        0.177180   0.948481
   95        0.210142   0.769508
   96        0.318258   0.026298
   97        0.358866  -0.034456
   98        0.673079  -0.000000
   99        0.680838  -0.000000
  100        0.731373  -0.000000
  101        0.754969  -0.000000
  102        0.772086  -0.000000
  103        0.931493  -0.000000
  104        0.977757  -0.000000
  105        1.029819  -0.000000
  106        1.164629  -0.000000
  107        1.193673  -0.000000
  108        1.427111  -0.000000
  109        1.466034  -0.000000
  110        1.562166  -0.000000
  111        1.565204  -0.000000
  112        1.602838  -0.000000
  113        1.648835  -0.000000
  114        1.725477  -0.000000
  115        1.764337  -0.000000
  116        1.848775  -0.000000
  117        1.854389  -0.000000
  118        1.914819  -0.000000
  119        1.915723  -0.000000
  120        2.045642  -0.000000
  121        2.108986  -0.000000
  122        2.242000  -0.000000
  123        2.274710  -0.000000
  124        2.304978  -0.000000
  125        2.404621  -0.000000
  126        2.481603  -0.000000
  127        2.642597  -0.000000
  128        3.417875   0.000000

  0.1111111E+00  0.3729374E-15  0.3860503E-15  0.6734007E-02
    1      -13.830689   1.000000
    2      -12.557549   1.000000
    3      -12.464899   1.000000
    4      -11.833027   1.000000
    5      -11.625378   1.000000
    6      -11.132586   1.000000
    7      -11.066376   1.000000
    8      -10.996825   1.000000
    9      -10.981625   1.000000
   10      -10.551146   1.000000
   11      -10.546770   1.000000
   12      -10.335420   1.000000
   13      -10.141681   1.000000
   14      -10.060044   1.000000
   15       -9.734669   1.000000
   16       -9.676063   1.000000
   17       -9.188667   1.000000
   18       -8.977585   1.000000
   19       -8.755838   1.000000
   20       -8.681588   1.000000
   21       -8.673891   1.000000
   22       -8.547301   1.000000
   23       -8.457531   1.000000
   24       -8.028333   1.000000
   25       -7.919739   1.000000
   26       -7.915592   1.000000
   27       -7.365346   1.000000
   28       -7.346279   1.000000
   29       -6.941556   1.000000
   30       -6.702328   1.000000
   31       -6.408440   1.000000
   32       -6.340228   1.000000
   33       -6.334552   1.000000
   34       -6.036390   1.000000
   35       -5.869421   1.000000
   36       -5.784483   1.000000
   37       -5.557328   1.000000
   38       -5.451395   1.000000
   39       -5.315523   1.000000
   40       -5.313775   1.000000
   41       -5.203580   1.000000
   42       -5.107290   1.000000
   43       -4.972285   1.000000
   44       -4.935053   1.000000
   45       -4.925029   1.000000
   46       -4.856328   1.000000
   47       -4.686188   1.000000
   48       -4.631248   1.000000
   49       -4.497184   1.000000
   50       -4.375497   1.000000
   51       -4.372357   1.000000
   52       -4.361167   1.000000
   53       -4.353889   1.000000
   54       -4.280581   1.000000
   55       -4.260145   1.000000
   56       -4.199896   1.000000
   57       -4.042583   1.000000
   58       -3.988345   1.000000
   59       -3.958094   1.000000
   60       -3.911837   1.000000
   61       -3.902122   1.000000
   62       -3.737065   1.000000
   63       -3.586599   1.000000
   64       -3.445544   1.000000
   65       -3.338557   1.000000
   66       -3.253567   1.000000
   67       -3.229361   1.000000
   68       -3.203943   1.000000
   69       -3.170861   1.000000
   70       -3.126323   1.000000
   71       -3.114118   1.000000
   72       -3.056278   1.000000
   73       -2.886303   1.000000
   74       -2.682727   1.000000
   75       -2.551667   1.000000
   76       -2.375931   1.000000
   77       -2.191517   1.000000
   78       -2.141029   1.000000
   79       -2.129200   1.000000
   80       -2.092284   1.000000
   81       -2.048284   1.000000
   82       -1.513406   1.000000
   83       -1.452133   1.000000
   84       -1.402122   1.000000
   85       -1.105777   1.000000
   86       -0.968788   1.000000
   87       -0.900006   1.000000
   88       -0.826939   1.000000
   89       -0.638609   1.000000
   90       -0.297945   1.000000
   91       -0.217213   1.000000
   92       -0.026729   1.000435
   93        0.064893   1.014756
   94        0.223818   0.667419
   95        0.239674   0.537022
   96        0.318660   0.025064
   97        0.363325  -0.035293
   98        0.609744  -0.000001
   99        0.685262  -0.000000
  100        0.687725  -0.000000
  101        0.774354  -0.000000
  102        0.823423  -0.000000
  103        0.948830  -0.000000
  104        0.997263  -0.000000
  105        1.026399  -0.000000
  106        1.193064  -0.000000
  107        1.240187  -0.000000
  108        1.442893  -0.000000
  109        1.451414  -0.000000
  110        1.556692  -0.000000
  111        1.603524  -0.000000
  112        1.617948  -0.000000
  113        1.663535  -0.000000
  114        1.726761  -0.000000
  115        1.777688  -0.000000
  116        1.829478  -0.000000
  117        1.832855  -0.000000
  118        1.913796  -0.000000
  119        1.918603  -0.000000
  120        2.045220  -0.000000
  121        2.117232  -0.000000
  122        2.196839  -0.000000
  123        2.269460  -0.000000
  124        2.302335  -0.000000
  125        2.456239  -0.000000
  126        2.573918  -0.000000
  127        2.646920  -0.000000
  128        3.732614   0.000000

  0.2222222E+00  0.3922785E-15  0.3630220E-15  0.6734007E-02
    1      -13.750165   1.000000
    2      -12.708932   1.000000
    3      -12.486444   1.000000
    4      -11.798461   1.000000
    5      -11.572534   1.000000
    6      -11.209847   1.000000
    7      -11.022666   1.000000
    8      -10.983952   1.000000
    9      -10.956392   1.000000
   10      -10.553193   1.000000
   11      -10.545070   1.000000
   12      -10.405333   1.000000
   13      -10.107470   1.000000
   14      -10.054543   1.000000
   15       -9.689588   1.000000
   16       -9.621306   1.000000
   17       -9.138621   1.000000
   18       -9.024118   1.000000
   19       -8.760543   1.000000
   20       -8.688518   1.000000
   21       -8.665436   1.000000
   22       -8.549420   1.000000
   23       -8.524209   1.000000
   24       -8.078738   1.000000
   25       -8.041337   1.000000
   26       -7.867765   1.000000
   27       -7.588557   1.000000
   28       -7.316318   1.000000
   29       -6.855006   1.000000
   30       -6.584290   1.000000
   31       -6.541739   1.000000
   32       -6.293830   1.000000
   33       -6.289381   1.000000
   34       -5.997659   1.000000
   35       -5.929263   1.000000
   36       -5.747316   1.000000
   37       -5.482469   1.000000
   38       -5.473818   1.000000
   39       -5.386431   1.000000
   40       -5.195262   1.000000
   41       -5.103931   1.000000
   42       -5.064727   1.000000
   43       -5.000295   1.000000
   44       -4.941494   1.000000
   45       -4.832101   1.000000
   46       -4.789943   1.000000
   47       -4.774278   1.000000
   48       -4.653634   1.000000
   49       -4.481815   1.000000
   50       -4.361380   1.000000
   51       -4.359737   1.000000
   52       -4.326864   1.000000
   53       -4.293064   1.000000
   54       -4.261124   1.000000
   55       -4.211531   1.000000
   56       -4.143958   1.000000
   57       -4.044865   1.000000
   58       -3.958119   1.000000
   59       -3.955016   1.000000
   60       -3.932850   1.000000
   61       -3.894923   1.000000
   62       -3.696483   1.000000
   63       -3.578791   1.000000
   64       -3.494181   1.000000
   65       -3.418602   1.000000
   66       -3.270203   1.000000
   67       -3.231016   1.000000
   68       -3.221244   1.000000
   69       -3.183721   1.000000
   70       -3.076352   1.000000
   71       -3.075959   1.000000
   72       -2.972555   1.000000
   73       -2.961535   1.000000
   74       -2.798567   1.000000
   75       -2.554953   1.000000
   76       -2.350433   1.000000
   77       -2.314723   1.000000
   78       -2.285279   1.000000
   79       -2.266676   1.000000
   80       -2.046194   1.000000
   81       -1.991070   1.000000
   82       -1.493272   1.000000
   83       -1.452295   1.000000
   84       -1.292978   1.000000
   85       -1.139717   1.000000
   86       -0.913282   1.000000
   87       -0.864072   1.000000
   88       -0.770238   1.000000
   89       -0.428777   1.000000
   90       -0.409005   1.000000
   91       -0.373913   1.000000
   92       -0.163184   1.000000
   93        0.159713   1.000333
   94        0.195979   0.859336
   95        0.236035   0.567615
   96        0.363108  -0.035269
   97        0.475026  -0.002596
   98        0.553677  -0.000054
   99        0.610483  -0.000001
  100        0.658974  -0.000000
  101        0.783321  -0.000000
  102        0.878367  -0.000000
  103        0.980423  -0.000000
  104        0.997743  -0.000000
  105        1.069966  -0.000000
  106        1.321258  -0.000000
  107        1.358214  -0.000000
  108        1.364404  -0.000000
  109        1.537580  -0.000000
  110        1.556206  -0.000000
  111        1.630537  -0.000000
  112        1.647717  -0.000000
  113        1.701281  -0.000000
  114        1.722399  -0.000000
  115        1.754870  -0.000000
  116        1.803517  -0.000000
  117        1.857436  -0.000000
  118        1.899431  -0.000000
  119        1.911462  -0.000000
  120        2.068495  -0.000000
  121        2.093183  -0.000000
  122        2.155354  -0.000000
  123        2.245909  -0.000000
  124        2.392539  -0.000000
  125        2.562906  -0.000000
  126        2.622984  -0.000000
  127        2.858177  -0.000000
  128        3.662817   0.000000

  0.3333333E+00  0.3713828E-15  0.3468587E-15  0.6734007E-02
    1      -13.618564   1.000000
    2      -12.972075   1.000000
    3      -12.372030   1.000000
    4      -11.888006   1.000000
    5      -11.493106   1.000000
    6      -11.262953   1.000000
    7      -10.980152   1.000000
    8      -10.967781   1.000000
    9      -10.896245   1.000000
   10      -10.558652   1.000000
   11      -10.541296   1.000000
   12      -10.518125   1.000000
   13      -10.080182   1.000000
   14      -10.056677   1.000000
   15       -9.609438   1.000000
   16       -9.537443   1.000000
   17       -9.081462   1.000000
   18       -9.075629   1.000000
   19       -8.854594   1.000000
   20       -8.750625   1.000000
   21       -8.618577   1.000000
   22       -8.557134   1.000000
   23       -8.463533   1.000000
   24       -8.196785   1.000000
   25       -8.190033   1.000000
   26       -7.846204   1.000000
   27       -7.693144   1.000000
   28       -7.171733   1.000000
   29       -6.878064   1.000000
   30       -6.736876   1.000000
   31       -6.517875   1.000000
   32       -6.291888   1.000000
   33       -6.229556   1.000000
   34       -6.070522   1.000000
   35       -5.876304   1.000000
   36       -5.634190   1.000000
   37       -5.529160   1.000000
   38       -5.363138   1.000000
   39       -5.315811   1.000000
   40       -5.141182   1.000000
   41       -5.066229   1.000000
   42       -5.044461   1.000000
   43       -5.004583   1.000000
   44       -4.967566   1.000000
   45       -4.862152   1.000000
   46       -4.761667   1.000000
   47       -4.676011   1.000000
   48       -4.639123   1.000000
   49       -4.461769   1.000000
   50       -4.354400   1.000000
   51       -4.324595   1.000000
   52       -4.307497   1.000000
   53       -4.243190   1.000000
   54       -4.223441   1.000000
   55       -4.192078   1.000000
   56       -4.065878   1.000000
   57       -4.048471   1.000000
   58       -4.010765   1.000000
   59       -3.890297   1.000000
   60       -3.880371   1.000000
   61       -3.843322   1.000000
   62       -3.700409   1.000000
   63       -3.583525   1.000000
   64       -3.535268   1.000000
   65       -3.528317   1.000000
   66       -3.267702   1.000000
   67       -3.257716   1.000000
   68       -3.222349   1.000000
   69       -3.211603   1.000000
   70       -3.176163   1.000000
   71       -3.007828   1.000000
   72       -2.958119   1.000000
   73       -2.863421   1.000000
   74       -2.783372   1.000000
   75       -2.619067   1.000000
   76       -2.501157   1.000000
   77       -2.458502   1.000000
   78       -2.410907   1.000000
   79       -2.299158   1.000000
   80       -2.059773   1.000000
   81       -1.813307   1.000000
   82       -1.570191   1.000000
   83       -1.507635   1.000000
   84       -1.311397   1.000000
   85       -1.004873   1.000000
   86       -0.811858   1.000000
   87       -0.780988   1.000000
   88       -0.659680   1.000000
   89       -0.570189   1.000000
   90       -0.536268   1.000000
   91       -0.330335   1.000000
   92       -0.101446   1.000006
   93        0.115785   1.034980
   94        0.131493   1.033731
   95        0.269134   0.294967
   96        0.418199  -0.016779
   97        0.467375  -0.003506
   98        0.490229  -0.001371
   99        0.538602  -0.000126
  100        0.740089  -0.000000
  101        0.842239  -0.000000
  102        0.982085  -0.000000
  103        0.994191  -0.000000
  104        1.023474  -0.000000
  105        1.177193  -0.000000
  106        1.199428  -0.000000
  107        1.481878  -0.000000
  108        1.503929  -0.000000
  109        1.560666  -0.000000
  110        1.608862  -0.000000
  111        1.655853  -0.000000
  112        1.677271  -0.000000
  113        1.684868  -0.000000
  114        1.704443  -0.000000
  115        1.747880  -0.000000
  116        1.804644  -0.000000
  117        1.843287  -0.000000
  118        1.890214  -0.000000
  119        1.926837  -0.000000
  120        1.998307  -0.000000
  121        2.155020  -0.000000
  122        2.206569  -0.000000
  123        2.337719  -0.000000
  124        2.363463  -0.000000
  125        2.385469  -0.000000
  126        2.699029  -0.000000
  127        3.243648   0.000000
  128        3.762519   0.000000

  0.4444444E+00  0.3870091E-15  0.3932070E-15  0.6734007E-02
    1      -13.440068   1.000000
    2      -13.221230   1.000000
    3      -12.221753   1.000000
    4      -12.050118   1.000000
    5      -11.401875   1.000000
    6      -11.320070   1.000000
    7      -10.960503   1.000000
    8      -10.957790   1.000000
    9      -10.793766   1.000000
   10      -10.668055   1.000000
   11      -10.539416   1.000000
   12      -10.538233   1.000000
   13      -10.069691   1.000000
   14      -10.063852   1.000000
   15       -9.513972   1.000000
   16       -9.474123   1.000000
   17       -9.114893   1.000000
   18       -9.066228   1.000000
   19       -8.926108   1.000000
   20       -8.860073   1.000000
   21       -8.504379   1.000000
   22       -8.497905   1.000000
   23       -8.412225   1.000000
   24       -8.329279   1.000000
   25       -8.241282   1.000000
   26       -8.085933   1.000000
   27       -7.441039   1.000000
   28       -7.140778   1.000000
   29       -6.973932   1.000000
   30       -6.822963   1.000000
   31       -6.485201   1.000000
   32       -6.397310   1.000000
   33       -6.179190   1.000000
   34       -6.144815   1.000000
   35       -5.709510   1.000000
   36       -5.593672   1.000000
   37       -5.459524   1.000000
   38       -5.314719   1.000000
   39       -5.263139   1.000000
   40       -5.227148   1.000000
   41       -5.092576   1.000000
   42       -5.074249   1.000000
   43       -5.006606   1.000000
   44       -4.984352   1.000000
   45       -4.759977   1.000000
   46       -4.724816   1.000000
   47       -4.619541   1.000000
   48       -4.536059   1.000000
   49       -4.516945   1.000000
   50       -4.402552   1.000000
   51       -4.310962   1.000000
   52       -4.288440   1.000000
   53       -4.212798   1.000000
   54       -4.166161   1.000000
   55       -4.150993   1.000000
   56       -4.126200   1.000000
   57       -3.981749   1.000000
   58       -3.965063   1.000000
   59       -3.887148   1.000000
   60       -3.882799   1.000000
   61       -3.766014   1.000000
   62       -3.686307   1.000000
   63       -3.669106   1.000000
   64       -3.542140   1.000000
   65       -3.513146   1.000000
   66       -3.455007   1.000000
   67       -3.221714   1.000000
   68       -3.210374   1.000000
   69       -3.196190   1.000000
   70       -3.188824   1.000000
   71       -2.948278   1.000000
   72       -2.937084   1.000000
   73       -2.786973   1.000000
   74       -2.773563   1.000000
   75       -2.724172   1.000000
   76       -2.620278   1.000000
   77       -2.540902   1.000000
   78       -2.538414   1.000000
   79       -2.210944   1.000000
   80       -2.118296   1.000000
   81       -1.639909   1.000000
   82       -1.609782   1.000000
   83       -1.552248   1.000000
   84       -1.435267   1.000000
   85       -0.868539   1.000000
   86       -0.798391   1.000000
   87       -0.747305   1.000000
   88       -0.698174   1.000000
   89       -0.564774   1.000000
   90       -0.471235   1.000000
   91       -0.363515   1.000000
   92       -0.027312   1.000423
   93        0.077878   1.020243
   94        0.100684   1.030478
   95        0.205748   0.799307
   96        0.392693  -0.028254
   97        0.433331  -0.011129
   98        0.462582  -0.004200
   99        0.715593  -0.000000
  100        0.753577  -0.000000
  101        0.786119  -0.000000
  102        0.966874  -0.000000
  103        1.013352  -0.000000
  104        1.017738  -0.000000
  105        1.337949  -0.000000
  106        1.358209  -0.000000
  107        1.484653  -0.000000
  108        1.564345  -0.000000
  109        1.588088  -0.000000
  110        1.608014  -0.000000
  111        1.612667  -0.000000
  112        1.633735  -0.000000
  113        1.710202  -0.000000
  114        1.725180  -0.000000
  115        1.763144  -0.000000
  116        1.810905  -0.000000
  117        1.812661  -0.000000
  118        1.847887  -0.000000
  119        1.890629  -0.000000
  120        2.023415  -0.000000
  121        2.045181  -0.000000
  122        2.091995  -0.000000
  123        2.122785  -0.000000
  124        2.201708  -0.000000
  125        2.283781  -0.000000
  126        2.377826  -0.000000
  127        2.466572  -0.000000
  128        2.675019  -0.000000

  0.3742002E-15  0.9090909E-01  0.3596334E-15  0.6734007E-02
    1      -13.824284   1.000000
    2      -12.551899   1.000000
    3      -12.347469   1.000000
    4      -11.860749   1.000000
    5      -11.621786   1.000000
    6      -11.198871   1.000000
    7      -11.164364   1.000000
    8      -11.073551   1.000000
    9      -11.029470   1.000000
   10      -10.594112   1.000000
   11      -10.542435   1.000000
   12      -10.309250   1.000000
   13      -10.078865   1.000000
   14       -9.997436   1.000000
   15       -9.744404   1.000000
   16       -9.708927   1.000000
   17       -9.174435   1.000000
   18       -8.979810   1.000000
   19       -8.933500   1.000000
   20       -8.721394   1.000000
   21       -8.618032   1.000000
   22       -8.427031   1.000000
   23       -8.271658   1.000000
   24       -7.964882   1.000000
   25       -7.778201   1.000000
   26       -7.725934   1.000000
   27       -7.332727   1.000000
   28       -7.270615   1.000000
   29       -7.006985   1.000000
   30       -6.723026   1.000000
   31       -6.411856   1.000000
   32       -6.367099   1.000000
   33       -6.356818   1.000000
   34       -6.025907   1.000000
   35       -5.896724   1.000000
   36       -5.804546   1.000000
   37       -5.542317   1.000000
   38       -5.477180   1.000000
   39       -5.345401   1.000000
   40       -5.253714   1.000000
   41       -5.176357   1.000000
   42       -5.138555   1.000000
   43       -5.044727   1.000000
   44       -4.975843   1.000000
   45       -4.930035   1.000000
   46       -4.900450   1.000000
   47       -4.800012   1.000000
   48       -4.698824   1.000000
   49       -4.603644   1.000000
   50       -4.469355   1.000000
   51       -4.407323   1.000000
   52       -4.381171   1.000000
   53       -4.335073   1.000000
   54       -4.271531   1.000000
   55       -4.261097   1.000000
   56       -4.223528   1.000000
   57       -4.141478   1.000000
   58       -4.056923   1.000000
   59       -3.938746   1.000000
   60       -3.877596   1.000000
   61       -3.761700   1.000000
   62       -3.747103   1.000000
   63       -3.604643   1.000000
   64       -3.450805   1.000000
   65       -3.338790   1.000000
   66       -3.315801   1.000000
   67       -3.286263   1.000000
   68       -3.198144   1.000000
   69       -3.179795   1.000000
   70       -3.088784   1.000000
   71       -3.086800   1.000000
   72       -3.022573   1.000000
   73       -2.898972   1.000000
   74       -2.673426   1.000000
   75       -2.565782   1.000000
   76       -2.376271   1.000000
   77       -2.125643   1.000000
   78       -2.105782   1.000000
   79       -2.075656   1.000000
   80       -2.070398   1.000000
   81       -1.916131   1.000000
   82       -1.635951   1.000000
   83       -1.485361   1.000000
   84       -1.335178   1.000000
   85       -1.170980   1.000000
   86       -0.970365   1.000000
   87       -0.903218   1.000000
   88       -0.894003   1.000000
   89       -0.776386   1.000000
   90       -0.408018   1.000000
   91       -0.169478   1.000000
   92       -0.030469   1.000361
   93        0.012288   1.002515
   94        0.107975   1.033104
   95        0.163761   0.990793
   96        0.302709   0.086109
   97        0.325069   0.007398
   98        0.531054  -0.000190
   99        0.554944  -0.000050
  100        0.725356  -0.000000
  101        0.842670  -0.000000
  102        0.894633  -0.000000
  103        0.975846  -0.000000
  104        1.085649  -0.000000
  105        1.091891  -0.000000
  106        1.209523  -0.000000
  107        1.241900  -0.000000
  108        1.383557  -0.000000
  109        1.481564  -0.000000
  110        1.551126  -0.000000
  111        1.576634  -0.000000
  112        1.632657  -0.000000
  113        1.656377  -0.000000
  114        1.738126  -0.000000
  115        1.789972  -0.000000
  116        1.816713  -0.000000
  117        1.850641  -0.000000
  118        1.891045  -0.000000
  119        1.912499  -0.000000
  120        2.088651  -0.000000
  121        2.118992  -0.000000
  122        2.151427  -0.000000
  123        2.275824  -0.000000
  124        2.341542  -0.000000
  125        2.435623  -0.000000
  126        2.585526  -0.000000
  127        2.854004  -0.000000
  128        3.861571   0.000000

  0.1111111E+00  0.9090909E-01  0.4822234E-15  0.6734007E-02
    1      -13.775213   1.000000
    2      -12.539026   1.000000
    3      -12.507938   1.000000
    4      -11.789177   1.000000
    5      -11.587405   1.000000
    6      -11.243736   1.000000
    7      -11.145250   1.000000
    8      -11.111637   1.000000
    9      -10.994634   1.000000
   10      -10.607623   1.000000
   11      -10.474134   1.000000
   12      -10.343382   1.000000
   13      -10.110194   1.000000
   14      -10.014394   1.000000
   15       -9.697917   1.000000
   16       -9.667572   1.000000
   17       -9.149932   1.000000
   18       -8.976638   1.000000
   19       -8.960958   1.000000
   20       -8.730456   1.000000
   21       -8.605169   1.000000
   22       -8.421079   1.000000
   23       -8.338845   1.000000
   24       -7.959870   1.000000
   25       -7.823636   1.000000
   26       -7.762271   1.000000
   27       -7.464433   1.000000
   28       -7.321397   1.000000
   29       -6.917217   1.000000
   30       -6.629701   1.000000
   31       -6.453407   1.000000
   32       -6.426393   1.000000
   33       -6.253060   1.000000
   34       -6.004287   1.000000
   35       -5.906588   1.000000
   36       -5.839083   1.000000
   37       -5.500896   1.000000
   38       -5.414003   1.000000
   39       -5.367492   1.000000
   40       -5.259304   1.000000
   41       -5.167899   1.000000
   42       -5.113935   1.000000
   43       -5.019612   1.000000
   44       -4.941146   1.000000
   45       -4.912115   1.000000
   46       -4.863952   1.000000
   47       -4.849711   1.000000
   48       -4.653805   1.000000
   49       -4.578121   1.000000
   50       -4.409778   1.000000
   51       -4.397619   1.000000
   52       -4.352368   1.000000
   53       -4.340928   1.000000
   54       -4.280185   1.000000
   55       -4.231121   1.000000
   56       -4.196811   1.000000
   57       -4.148267   1.000000
   58       -4.037689   1.000000
   59       -3.974008   1.000000
   60       -3.884435   1.000000
   61       -3.767468   1.000000
   62       -3.711695   1.000000
   63       -3.581151   1.000000
   64       -3.469808   1.000000
   65       -3.376262   1.000000
   66       -3.358296   1.000000
   67       -3.252376   1.000000
   68       -3.221552   1.000000
   69       -3.148388   1.000000
   70       -3.106106   1.000000
   71       -3.089285   1.000000
   72       -2.987373   1.000000
   73       -2.885955   1.000000
   74       -2.762751   1.000000
   75       -2.583263   1.000000
   76       -2.358444   1.000000
   77       -2.257992   1.000000
   78       -2.180656   1.000000
   79       -2.140584   1.000000
   80       -2.022444   1.000000
   81       -1.964212   1.000000
   82       -1.528472   1.000000
   83       -1.523372   1.000000
   84       -1.322143   1.000000
   85       -1.203599   1.000000
   86       -0.942409   1.000000
   87       -0.875198   1.000000
   88       -0.821108   1.000000
   89       -0.630733   1.000000
   90       -0.465063   1.000000
   91       -0.214045   1.000000
   92       -0.090562   1.000012
   93        0.018120   1.003169
   94        0.190792   0.887480
   95        0.211158   0.762387
   96        0.330944  -0.005638
   97        0.334740  -0.012569
   98        0.466860  -0.003575
   99        0.477102  -0.002387
  100        0.706746  -0.000000
  101        0.894719  -0.000000
  102        0.970035  -0.000000
  103        0.980539  -0.000000
  104        1.021731  -0.000000
  105        1.122545  -0.000000
  106        1.178439  -0.000000
  107        1.382437  -0.000000
  108        1.430258  -0.000000
  109        1.437429  -0.000000
  110        1.502618  -0.000000
  111        1.596633  -0.000000
  112        1.676924  -0.000000
  113        1.687958  -0.000000
  114        1.714141  -0.000000
  115        1.789775  -0.000000
  116        1.796126  -0.000000
  117        1.870391  -0.000000
  118        1.911019  -0.000000
  119        1.915204  -0.000000
  120        2.075358  -0.000000
  121        2.105363  -0.000000
  122        2.164024  -0.000000