   24   24    1    1
  0.2443449E+02  0.6078000E-09  0.6078000E-09  0.1833000E-08  0.5000000E-15
   1.0000000000000000E-004
  CAR 
 Name                                    
     90     41     60

  0.3742002E-15  0.3742002E-15  0.1262379E-14  0.1234568E-01
    1      -13.868223   1.000000
    2      -12.127548   1.000000
    3      -11.376910   1.000000
    4      -10.935276   1.000000
    5      -10.875825   1.000000
    6      -10.219431   1.000000
    7      -10.084155   1.000000
    8       -9.883486   1.000000
    9       -9.742157   1.000000
   10       -8.842475   1.000000
   11       -8.619463   1.000000
   12       -8.052901   1.000000
   13       -7.738651   1.000000
   14       -7.601409   1.000000
   15       -7.432651   1.000000
   16       -6.349416   1.000000
   17       -6.024713   1.000000
   18       -5.894836   1.000000
   19       -5.620089   1.000000
   20       -4.996218   1.000000
   21       -4.989544   1.000000
   22       -4.741637   1.000000
   23       -4.593787   1.000000
   24       -4.468175   1.000000
   25       -4.322165   1.000000
   26       -4.085548   1.000000
   27       -4.043710   1.000000
   28       -4.027991   1.000000
   29       -3.784688   1.000000
   30       -3.666985   1.000000
   31       -3.629112   1.000000
   32       -3.389393   1.000000
   33       -3.255528   1.000000
   34       -2.994829   1.000000
   35       -1.803661   1.000000
   36       -1.776251   1.000000
   37       -1.730890   1.000000
   38       -1.586804   1.000000
   39       -1.552946   1.000000
   40       -1.116329   1.000166
   41       -0.901107   1.013697
   42       -0.891473   1.015562
   43       -0.648095   0.898469
   44       -0.547430   0.543109
   45       -0.527037   0.456940
   46        0.159140  -0.000005
   47        0.311645  -0.000000
   48        0.578292  -0.000000
   49        0.630572  -0.000000
   50        0.635833  -0.000000
   51        0.652751  -0.000000
   52        0.703577  -0.000000
   53        0.723264  -0.000000
   54        0.832740  -0.000000
   55        1.164028  -0.000000
   56        1.183617  -0.000000
   57        1.240356  -0.000000
   58        1.354612  -0.000000
   59        2.933189  -0.000000
   60        3.076482  -0.000000

  0.1111111E+00  0.3756941E-15  0.1262379E-14  0.2469136E-01
    1      -13.818734   1.000000
    2      -12.096299   1.000000
    3      -11.477645   1.000000
    4      -11.068369   1.000000
    5      -10.987463   1.000000
    6      -10.251558   1.000000
    7      -10.037022   1.000000
    8       -9.703216   1.000000
    9       -9.556394   1.000000
   10       -8.866362   1.000000
   11       -8.743466   1.000000
   12       -8.024354   1.000000
   13       -7.622083   1.000000
   14       -7.446508   1.000000
   15       -7.279738   1.000000
   16       -6.380629   1.000000
   17       -6.116176   1.000000
   18       -5.912042   1.000000
   19       -5.590283   1.000000
   20       -5.057703   1.000000
   21       -4.970178   1.000000
   22       -4.741222   1.000000
   23       -4.611771   1.000000
   24       -4.514533   1.000000
   25       -4.265441   1.000000
   26       -4.179606   1.000000
   27       -4.088959   1.000000
   28       -4.033097   1.000000
   29       -3.936562   1.000000
   30       -3.780541   1.000000
   31       -3.519146   1.000000
   32       -3.333151   1.000000
   33       -3.158449   1.000000
   34       -2.963215   1.000000
   35       -1.939286   1.000000
   36       -1.833463   1.000000
   37       -1.778102   1.000000
   38       -1.687768   1.000000
   39       -1.421511   1.000000
   40       -1.215831   1.000009
   41       -1.032775   1.001278
   42       -0.789066   1.035283
   43       -0.707308   1.001841
   44       -0.686854   0.975562
   45       -0.657392   0.920382
   46        0.028370  -0.000237
   47        0.175842  -0.000003
   48        0.557327  -0.000000
   49        0.578944  -0.000000
   50        0.612691  -0.000000
   51        0.663283  -0.000000
   52        0.700124  -0.000000
   53        0.768176  -0.000000
   54        0.956800  -0.000000
   55        1.040465  -0.000000
   56        1.152586  -0.000000
   57        1.229182  -0.000000
   58        1.571937  -0.000000
   59        2.294281  -0.000000
   60        2.623926  -0.000000

  0.2222222E+00  0.3431732E-15  0.1262379E-14  0.2469136E-01
    1      -13.673091   1.000000
    2      -12.008855   1.000000
    3      -11.814222   1.000000
    4      -11.249138   1.000000
    5      -11.110815   1.000000
    6      -10.446227   1.000000
    7       -9.807265   1.000000
    8       -9.500733   1.000000
    9       -9.256414   1.000000
   10       -8.891726   1.000000
   11       -8.703721   1.000000
   12       -7.892412   1.000000
   13       -7.407980   1.000000
   14       -7.223614   1.000000
   15       -6.825590   1.000000
   16       -6.504936   1.000000
   17       -6.343979   1.000000
   18       -5.884552   1.000000
   19       -5.525777   1.000000
   20       -5.279582   1.000000
   21       -4.946391   1.000000
   22       -4.806427   1.000000
   23       -4.737754   1.000000
   24       -4.613251   1.000000
   25       -4.410429   1.000000
   26       -4.328249   1.000000
   27       -4.136890   1.000000
   28       -4.069971   1.000000
   29       -4.000557   1.000000
   30       -3.778411   1.000000
   31       -3.359637   1.000000
   32       -3.311538   1.000000
   33       -2.968464   1.000000
   34       -2.822774   1.000000
   35       -2.287497   1.000000
   36       -1.981640   1.000000
   37       -1.883597   1.000000
   38       -1.660597   1.000000
   39       -1.493797   1.000000
   40       -1.374064   1.000000
   41       -1.145699   1.000074
   42       -1.061767   1.000658
   43       -0.992245   1.002980
   44       -0.933239   1.008522
   45       -0.616243   0.807168
   46       -0.181083  -0.015183
   47        0.047747  -0.000141
   48        0.333413  -0.000000
   49        0.447413  -0.000000
   50        0.490926  -0.000000
   51        0.581927  -0.000000
   52        0.631561  -0.000000
   53        0.676822  -0.000000
   54        0.903175  -0.000000
   55        0.962184  -0.000000
   56        1.044663  -0.000000
   57        1.192739  -0.000000
   58        1.358901  -0.000000
   59        1.886882  -0.000000
   60        2.303934  -0.000000

  0.3333333E+00  0.3568756E-15  0.1262379E-14  0.2469136E-01
    1      -13.440884   1.000000
    2      -12.255799   1.000000
    3      -11.876341   1.000000
    4      -11.342557   1.000000
    5      -11.213553   1.000000
    6      -10.678136   1.000000
    7       -9.601806   1.000000
    8       -9.436174   1.000000
    9       -9.098201   1.000000
   10       -8.915548   1.000000
   11       -8.135780   1.000000
   12       -7.699937   1.000000
   13       -7.201047   1.000000
   14       -6.921825   1.000000
   15       -6.761355   1.000000
   16       -6.606023   1.000000
   17       -6.361266   1.000000
   18       -5.768235   1.000000
   19       -5.678740   1.000000
   20       -5.485593   1.000000
   21       -5.183560   1.000000
   22       -4.965190   1.000000
   23       -4.915208   1.000000
   24       -4.694047   1.000000
   25       -4.515685   1.000000
   26       -4.421753   1.000000
   27       -4.152266   1.000000
   28       -4.013282   1.000000
   29       -3.933445   1.000000
   30       -3.730235   1.000000
   31       -3.329569   1.000000
   32       -3.136423   1.000000
   33       -2.813150   1.000000
   34       -2.742983   1.000000
   35       -2.424265   1.000000
   36       -2.143490   1.000000
   37       -2.021465   1.000000
   38       -1.752514   1.000000
   39       -1.643653   1.000000
   40       -1.590800   1.000000
   41       -1.433210   1.000000
   42       -1.351907   1.000000
   43       -1.252561   1.000003
   44       -0.883226   1.017260
   45       -0.789011   1.035286
   46       -0.210513  -0.021521
   47       -0.061918  -0.001975
   48        0.098366  -0.000033
   49        0.186984  -0.000002
   50        0.309694  -0.000000
   51        0.393180  -0.000000
   52        0.428271  -0.000000
   53        0.553528  -0.000000
   54        0.717587  -0.000000
   55        0.861502  -0.000000
   56        1.017402  -0.000000
   57        1.210225  -0.000000
   58        1.485725  -0.000000
   59        2.142975  -0.000000
   60        2.433583  -0.000000

  0.4444444E+00  0.3276888E-15  0.1262379E-14  0.2469136E-01
    1      -13.154790   1.000000
    2      -12.655027   1.000000
    3      -11.762689   1.000000
    4      -11.391554   1.000000
    5      -11.268477   1.000000
    6      -10.853503   1.000000
    7       -9.585894   1.000000
    8       -9.336845   1.000000
    9       -9.003469   1.000000
   10       -8.853584   1.000000
   11       -7.579510   1.000000
   12       -7.405430   1.000000
   13       -7.131366   1.000000
   14       -6.975856   1.000000
   15       -6.758402   1.000000
   16       -6.690260   1.000000
   17       -6.405512   1.000000
   18       -5.989649   1.000000
   19       -5.610040   1.000000
   20       -5.497507   1.000000
   21       -5.274629   1.000000
   22       -5.230210   1.000000
   23       -4.916136   1.000000
   24       -4.748777   1.000000
   25       -4.576029   1.000000
   26       -4.419816   1.000000
   27       -4.191795   1.000000
   28       -4.000409   1.000000
   29       -3.937211   1.000000
   30       -3.642288   1.000000
   31       -3.274623   1.000000
   32       -2.988478   1.000000
   33       -2.899770   1.000000
   34       -2.633498   1.000000
   35       -2.286817   1.000000
   36       -2.205797   1.000000
   37       -2.071597   1.000000
   38       -1.957803   1.000000
   39       -1.913359   1.000000
   40       -1.714183   1.000000
   41       -1.647606   1.000000
   42       -1.453412   1.000000
   43       -1.399875   1.000000
   44       -0.989054   1.003172
   45       -0.588724   0.710094
   46       -0.355035  -0.013250
   47       -0.211506  -0.021748
   48       -0.036994  -0.001152
   49        0.042972  -0.000161
   50        0.150018  -0.000007
   51        0.242138  -0.000000
   52        0.311220  -0.000000
   53        0.454829  -0.000000
   54        0.703769  -0.000000
   55        0.838840  -0.000000
   56        0.955203  -0.000000
   57        1.131392  -0.000000
   58        1.554682  -0.000000
   59        2.420588  -0.000000
   60        2.482589  -0.000000

  0.3742002E-15  0.1111111E+00  0.1262379E-14  0.2469136E-01
    1      -13.818736   1.000000
    2      -12.096304   1.000000
    3      -11.477726   1.000000
    4      -11.068269   1.000000
    5      -10.987464   1.000000
    6      -10.251407   1.000000
    7      -10.036920   1.000000
    8       -9.703534   1.000000
    9       -9.556399   1.000000
   10       -8.866564   1.000000
   11       -8.743504   1.000000
   12       -8.024420   1.000000
   13       -7.620966   1.000000
   14       -7.446403   1.000000
   15       -7.280545   1.000000
   16       -6.380669   1.000000
   17       -6.116034   1.000000
   18       -5.912152   1.000000
   19       -5.590248   1.000000
   20       -5.058091   1.000000
   21       -4.969829   1.000000
   22       -4.741067   1.000000
   23       -4.611775   1.000000
   24       -4.514497   1.000000
   25       -4.265811   1.000000
   26       -4.179149   1.000000
   27       -4.088850   1.000000
   28       -4.033276   1.000000
   29       -3.936801   1.000000
   30       -3.780417   1.000000
   31       -3.519249   1.000000
   32       -3.333037   1.000000
   33       -3.158854   1.000000
   34       -2.962988   1.000000
   35       -1.939950   1.000000
   36       -1.833546   1.000000
   37       -1.777727   1.000000
   38       -1.686972   1.000000
   39       -1.421853   1.000000
   40       -1.216466   1.000009
   41       -1.032215   1.001294
   42       -0.789080   1.035283
   43       -0.707400   1.001939
   44       -0.686709   0.975343
   45       -0.657471   0.920559
   46        0.028060  -0.000238
   47        0.175986  -0.000003
   48        0.557024  -0.000000
   49        0.578985  -0.000000
   50        0.612796  -0.000000
   51        0.663315  -0.000000
   52        0.699674  -0.000000
   53        0.768625  -0.000000
   54        0.956905  -0.000000
   55        1.040645  -0.000000
   56        1.151297  -0.000000
   57        1.229465  -0.000000
   58        1.279107  -0.000000
   59        1.718421  -0.000000
   60        2.219699  -0.000000

  0.1111111E+00  0.1111111E+00  0.1262379E-14  0.2469136E-01
    1      -13.721222   1.000000
    2      -12.034771   1.000000
    3      -11.654250   1.000000
    4      -11.384227   1.000000
    5      -10.939719   1.000000
    6      -10.384417   1.000000
    7       -9.971932   1.000000
    8       -9.473942   1.000000
    9       -9.299528   1.000000
   10       -8.837453   1.000000
   11       -8.741188   1.000000
   12       -8.136359   1.000000
   13       -7.373555   1.000000
   14       -7.246978   1.000000
   15       -6.978437   1.000000
   16       -6.502561   1.000000
   17       -6.223591   1.000000
   18       -5.921435   1.000000
   19       -5.528458   1.000000
   20       -5.217419   1.000000
   21       -4.964923   1.000000
   22       -4.747395   1.000000
   23       -4.623411   1.000000
   24       -4.609339   1.000000
   25       -4.402799   1.000000
   26       -4.256268   1.000000
   27       -4.147396   1.000000
   28       -4.067352   1.000000
   29       -4.015918   1.000000
   30       -3.802981   1.000000
   31       -3.408008   1.000000
   32       -3.269648   1.000000
   33       -3.061828   1.000000
   34       -2.860201   1.000000
   35       -2.153378   1.000000
   36       -1.944036   1.000000
   37       -1.793943   1.000000
   38       -1.754589   1.000000
   39       -1.405647   1.000000
   40       -1.353682   1.000000
   41       -1.123325   1.000137
   42       -1.021391   1.001637
   43       -0.900694   1.013774
   44       -0.888168   1.016232
   45       -0.535769   0.493825
   46       -0.089247  -0.003417
   47        0.012652  -0.000354
   48        0.346007  -0.000000
   49        0.437684  -0.000000
   50        0.552575  -0.000000
   51        0.611987  -0.000000
   52        0.657552  -0.000000
   53        0.774638  -0.000000
   54        0.938278  -0.000000
   55        1.101822  -0.000000
   56        1.170676  -0.000000
   57        1.202987  -0.000000
   58        1.207702  -0.000000
   59        1.995276  -0.000000
   60        2.268736  -0.000000

  0.2222222E+00  0.1111111E+00  0.1262379E-14  0.2469136E-01
    1      -13.531886   1.000000
    2      -12.020561   1.000000
    3      -11.916748   1.000000
    4      -11.624201   1.000000
    5      -10.916166   1.000000
    6      -10.553754   1.000000
    7       -9.861541   1.000000
    8       -9.550336   1.000000
    9       -8.925477   1.000000
   10       -8.714966   1.000000
   11       -8.440327   1.000000
   12       -8.040087   1.000000
   13       -7.198719   1.000000
   14       -6.935288   1.000000
   15       -6.822077   1.000000
   16       -6.435749   1.000000
   17       -6.328995   1.000000
   18       -5.927146   1.000000
   19       -5.565531   1.000000
   20       -5.468286   1.000000
   21       -5.041109   1.000000
   22       -4.908982   1.000000
   23       -4.861328   1.000000
   24       -4.718078   1.000000
   25       -4.568641   1.000000
   26       -4.350377   1.000000
   27       -4.150749   1.000000
   28       -4.060505   1.000000
   29       -3.894097   1.000000
   30       -3.769955   1.000000
   31       -3.305845   1.000000
   32       -3.162023   1.000000
   33       -2.964410   1.000000
   34       -2.659020   1.000000
   35       -2.427634   1.000000
   36       -2.039467   1.000000
   37       -1.989208   1.000000
   38       -1.736867   1.000000
   39       -1.590871   1.000000
   40       -1.476699   1.000000
   41       -1.397494   1.000000
   42       -1.207032   1.000012
   43       -1.174215   1.000032
   44       -1.065233   1.000606
   45       -0.488590   0.300791
   46       -0.202497  -0.019709
   47       -0.091479  -0.003566
   48        0.056100  -0.000112
   49        0.135124  -0.000011
   50        0.421511  -0.000000
   51        0.482490  -0.000000
   52        0.557859  -0.000000
   53        0.685760  -0.000000
   54        0.831246  -0.000000
   55        0.906047  -0.000000
   56        1.038025  -0.000000
   57        1.302850  -0.000000
   58        1.341517  -0.000000
   59        1.446049  -0.000000
   60        2.272114  -0.000000

  0.3333333E+00  0.1111111E+00  0.1262379E-14  0.2469136E-01
    1      -13.266147   1.000000
    2      -12.440497   1.000000
    3      -11.802989   1.000000
    4      -11.725172   1.000000
    5      -10.924996   1.000000
    6      -10.739284   1.000000
    7       -9.846397   1.000000
    8       -9.472305   1.000000
    9       -8.884754   1.000000
   10       -8.570419   1.000000
   11       -7.868784   1.000000
   12       -7.692259   1.000000
   13       -7.312160   1.000000
   14       -6.796994   1.000000
   15       -6.623839   1.000000
   16       -6.487884   1.000000
   17       -6.356381   1.000000
   18       -5.905440   1.000000
   19       -5.754752   1.000000
   20       -5.493216   1.000000
   21       -5.342984   1.000000
   22       -5.159718   1.000000
   23       -4.969077   1.000000
   24       -4.840615   1.000000
   25       -4.537694   1.000000
   26       -4.436361   1.000000
   27       -4.127179   1.000000
   28       -4.010145   1.000000
   29       -3.877874   1.000000
   30       -3.624214   1.000000
   31       -3.271989   1.000000
   32       -3.020050   1.000000
   33       -2.909880   1.000000
   34       -2.622951   1.000000
   35       -2.377852   1.000000
   36       -2.218172   1.000000
   37       -2.104361   1.000000
   38       -1.833663   1.000000
   39       -1.821064   1.000000
   40       -1.618423   1.000000
   41       -1.500964   1.000000
   42       -1.436111   1.000000
   43       -1.382589   1.000000
   44       -1.030645   1.001340
   45       -0.606764   0.775445
   46       -0.410078   0.064588
   47       -0.251200  -0.030620
   48        0.008035  -0.000397
   49        0.078893  -0.000059
   50        0.175309  -0.000003
   51        0.317574  -0.000000
   52        0.441588  -0.000000
   53        0.533796  -0.000000
   54        0.647548  -0.000000
   55        0.860980  -0.000000
   56        0.966069  -0.000000
   57        1.279121  -0.000000
   58        1.425652  -0.000000
   59        1.593399  -0.000000
   60        2.313628  -0.000000

  0.4444444E+00  0.1111111E+00  0.1262379E-14  0.2469136E-01
    1      -13.035451   1.000000
    2      -12.729819   1.000000
    3      -11.804411   1.000000
    4      -11.691520   1.000000
    5      -10.916106   1.000000
    6      -10.841547   1.000000
    7       -9.878319   1.000000
    8       -9.353978   1.000000
    9       -8.981084   1.000000
   10       -8.440606   1.000000
   11       -7.658569   1.000000
   12       -7.366621   1.000000
   13       -7.123277   1.000000
   14       -7.015774   1.000000
   15       -6.763047   1.000000
   16       -6.604084   1.000000
   17       -6.187868   1.000000
   18       -6.068972   1.000000
   19       -5.661050   1.000000
   20       -5.536416   1.000000
   21       -5.471037   1.000000
   22       -5.200409   1.000000
   23       -4.918248   1.000000
   24       -4.895479   1.000000
   25       -4.734695   1.000000
   26       -4.423683   1.000000
   27       -4.057626   1.000000
   28       -3.983513   1.000000
   29       -3.875963   1.000000
   30       -3.546306   1.000000
   31       -3.255229   1.000000
   32       -3.040132   1.000000
   33       -2.912751   1.000000
   34       -2.561792   1.000000
   35       -2.358552   1.000000
   36       -2.265338   1.000000
   37       -2.042317   1.000000
   38       -1.945180   1.000000
   39       -1.872772   1.000000
   40       -1.733193   1.000000
   41       -1.668230   1.000000
   42       -1.494880   1.000000
   43       -1.394024   1.000000
   44       -0.958665   1.005569
   45       -0.549984   0.553856
   46       -0.477095   0.257858
   47       -0.453390   0.177453
   48       -0.160849  -0.011488
   49        0.134613  -0.000011
   50        0.195834  -0.000001
   51        0.229129  -0.000000
   52        0.325637  -0.000000
   53        0.481952  -0.000000
   54        0.642794  -0.000000
   55        0.834396  -0.000000
   56        0.926060  -0.000000
   57        1.220611  -0.000000
   58        1.472232  -0.000000
   59        1.659932  -0.000000
   60        2.332497  -0.000000

 -0.4444444E+00  0.1111111E+00  0.1262379E-14  0.2469136E-01
    1      -13.264686   1.000000
    2      -12.447416   1.000000
    3      -11.847010   1.000000
    4      -11.671438   1.000000
    5      -10.914317   1.000000
    6      -10.734893   1.000000
    7       -9.863733   1.000000
    8       -9.478376   1.000000
    9       -8.946395   1.000000
   10       -8.539716   1.000000
   11       -7.797017   1.000000
   12       -7.746291   1.000000
   13       -7.123644   1.000000
   14       -6.895167   1.000000
   15       -6.679750   1.000000
   16       -6.505859   1.000000
   17       -6.374345   1.000000
   18       -5.863032   1.000000
   19       -5.734327   1.000000
   20       -5.568303   1.000000
   21       -5.299392   1.000000
   22       -5.137958   1.000000
   23       -5.004581   1.000000
   24       -4.874218   1.000000
   25       -4.593220   1.000000
   26       -4.397635   1.000000
   27       -4.117962   1.000000
   28       -4.012401   1.000000
   29       -3.801015   1.000000
   30       -3.605815   1.000000
   31       -3.316585   1.000000
   32       -3.098226   1.000000
   33       -2.920577   1.000000
   34       -2.583710   1.000000
   35       -2.389641   1.000000
   36       -2.170444   1.000000
   37       -2.107670   1.000000
   38       -1.818111   1.000000
   39       -1.774334   1.000000
   40       -1.703998   1.000000
   41       -1.563476   1.000000
   42       -1.435574   1.000000
   43       -1.328840   1.000000
   44       -0.962221   1.005230
   45       -0.644862   0.890338
   46       -0.343498  -0.021560
   47       -0.267619  -0.033488
   48        0.005754  -0.000420
   49        0.030818  -0.000222
   50        0.168165  -0.000004
   51        0.319620  -0.000000
   52        0.456559  -0.000000
   53        0.554618  -0.000000
   54        0.691063  -0.000000
   55        0.804515  -0.000000
   56        0.971868  -0.000000
   57        1.257145  -0.000000
   58        1.454785  -0.000000
   59        1.596924  -0.000000
   60        2.299171  -0.000000

 -0.3333333E+00  0.1111111E+00  0.1262379E-14  0.2469136E-01
    1      -13.531120   1.000000
    2      -12.032211   1.000000
    3      -11.944526   1.000000
    4      -11.581137   1.000000
    5      -10.912680   1.000000
    6      -10.507096   1.000000
    7       -9.876648   1.000000
    8       -9.620149   1.000000
    9       -9.007897   1.000000
   10       -8.715161   1.000000
   11       -8.423216   1.000000
   12       -7.811029   1.000000
   13       -7.295625   1.000000
   14       -6.964157   1.000000
   15       -6.725694   1.000000
   16       -6.496549   1.000000
   17       -6.345079   1.000000
   18       -5.959341   1.000000
   19       -5.580163   1.000000
   20       -5.439097   1.000000
   21       -5.003420   1.000000
   22       -4.976262   1.000000
   23       -4.905053   1.000000
   24       -4.778263   1.000000
   25       -4.498062   1.000000
   26       -4.306677   1.000000
   27       -4.158156   1.000000
   28       -4.068993   1.000000
   29       -3.907625   1.000000
   30       -3.726410   1.000000
   31       -3.364402   1.000000
   32       -3.160276   1.000000
   33       -2.909443   1.000000
   34       -2.652297   1.000000
   35       -2.505007   1.000000
   36       -2.065543   1.000000
   37       -1.922547   1.000000
   38       -1.766860   1.000000
   39       -1.581751   1.000000
   40       -1.485923   1.000000
   41       -1.356575   1.000000
   42       -1.273656   1.000001
   43       -1.156348   1.000054
   44       -0.979060   1.003841
   45       -0.555040   0.575038
   46       -0.195581  -0.018190
   47       -0.047179  -0.001442
   48        0.044314  -0.000155
   49        0.164138  -0.000004
   50        0.416417  -0.000000
   51        0.489262  -0.000000
   52        0.599321  -0.000000
   53        0.676834  -0.000000
   54        0.770650  -0.000000
   55        0.904316  -0.000000
   56        1.080473  -0.000000
   57        1.267431  -0.000000
   58        1.388617  -0.000000
   59        1.461560  -0.000000
   60        2.176846  -0.000000

 -0.2222222E+00  0.1111111E+00  0.1262379E-14  0.2469136E-01
    1      -13.720873   1.000000
    2      -12.043526   1.000000
    3      -11.677374   1.000000
    4      -11.354745   1.000000
    5      -10.930363   1.000000
    6      -10.293470   1.000000
    7       -9.985767   1.000000
    8       -9.640789   1.000000
    9       -9.309919   1.000000
   10       -8.902108   1.000000
   11       -8.688855   1.000000
   12       -7.808817   1.000000
   13       -7.565047   1.000000
   14       -7.235504   1.000000
   15       -7.028883   1.000000
   16       -6.460787   1.000000
   17       -6.147691   1.000000
   18       -6.017715   1.000000
   19       -5.587863   1.000000
   20       -5.149396   1.000000
   21       -4.937095   1.000000
   22       -4.865895   1.000000
   23       -4.652571   1.000000
   24       -4.595372   1.000000
   25       -4.383955   1.000000
   26       -4.228456   1.000000
   27       -4.155186   1.000000
   28       -4.072605   1.000000
   29       -3.995590   1.000000
   30       -3.781591   1.000000
   31       -3.423277   1.000000
   32       -3.236404   1.000000
   33       -3.071217   1.000000
   34       -2.878571   1.000000
   35       -2.157103   1.000000
   36       -1.965680   1.000000
   37       -1.802792   1.000000
   38       -1.720494   1.000000
   39       -1.458323   1.000000
   40       -1.384355   1.000000
   41       -1.042995   1.001017
   42       -0.986678   1.003321
   43       -0.948731   1.006610
   44       -0.835967   1.027932
   45       -0.592767   0.725261
   46       -0.145894  -0.009173
   47        0.096835  -0.000035
   48        0.378874  -0.000000
   49        0.436421  -0.000000
   50        0.572477  -0.000000
   51        0.628616  -0.000000
   52        0.639936  -0.000000
   53        0.773989  -0.000000
   54        0.885193  -0.000000
   55        1.126038  -0.000000
   56        1.178815  -0.000000
   57        1.238940  -0.000000
   58        1.272582  -0.000000
   59        1.944937  -0.000000
   60        2.206381  -0.000000

 -0.1111111E+00  0.1111111E+00  0.1262379E-14  0.2469136E-01
    1      -13.818636   1.000000
    2      -12.098919   1.000000
    3      -11.484132   1.000000
    4      -11.099157   1.000000
    5      -10.936212   1.000000
    6      -10.225534   1.000000
    7       -9.985934   1.000000
    8       -9.801291   1.000000
    9       -9.583860   1.000000
   10       -8.947852   1.000000
   11       -8.649995   1.000000
   12       -7.890932   1.000000
   13       -7.674541   1.000000
   14       -7.428431   1.000000
   15       -7.358665   1.000000
   16       -6.374134   1.000000
   17       -6.019084   1.000000
   18       -6.001778   1.000000
   19       -5.610476   1.000000
   20       -5.024354   1.000000
   21       -4.968636   1.000000
   22       -4.806917   1.000000
   23       -4.589947   1.000000
   24       -4.467469   1.000000
   25       -4.380343   1.000000
   26       -4.187169   1.000000
   27       -4.047310   1.000000
   28       -3.998038   1.000000
   29       -3.891086   1.000000
   30       -3.793592   1.000000
   31       -3.545568   1.000000
   32       -3.297133   1.000000
   33       -3.182972   1.000000
   34       -2.967752   1.000000
   35       -1.938875   1.000000
   36       -1.851887   1.000000
   37       -1.787991   1.000000
   38       -1.593811   1.000000
   39       -1.508335   1.000000
   40       -1.282567   1.000001
   41       -0.903896   1.013183
   42       -0.792443   1.035080
   43       -0.762340   1.033730
   44       -0.674228   0.954527
   45       -0.660211   0.926594
   46       -0.012727  -0.000658
   47        0.244408  -0.000000
   48        0.544176  -0.000000
   49        0.589052  -0.000000
   50        0.615478  -0.000000
   51        0.641466  -0.000000
   52        0.678707  -0.000000
   53        0.793880  -0.000000
   54        0.957598  -0.000000
   55        1.086757  -0.000000
   56        1.101076  -0.000000
   57        1.268200  -0.000000
   58        1.394935  -0.000000
   59        1.604905  -0.000000
   60        2.871019  -0.000000

  0.3742002E-15  0.2222222E+00  0.1262379E-14  0.2469136E-01
    1      -13.673095   1.000000
    2      -12.008930   1.000000
    3      -11.814303   1.000000
    4      -11.249019   1.000000
    5      -11.110735   1.000000
    6      -10.445923   1.000000
    7       -9.807214   1.000000
    8       -9.501169   1.000000
    9       -9.256974   1.000000
   10       -8.891786   1.000000
   11       -8.703654   1.000000
   12       -7.892393   1.000000
   13       -7.406384   1.000000
   14       -7.223590   1.000000
   15       -6.826394   1.000000
   16       -6.505007   1.000000
   17       -6.343896   1.000000
   18       -5.884672   1.000000
   19       -5.525456   1.000000
   20       -5.279775   1.000000
   21       -4.945894   1.000000
   22       -4.806366   1.000000
   23       -4.737539   1.000000
   24       -4.613452   1.000000
   25       -4.410537   1.000000
   26       -4.328973   1.000000
   27       -4.136106   1.000000
   28       -4.070468   1.000000
   29       -4.000750   1.000000
   30       -3.778536   1.000000
   31       -3.359647   1.000000
   32       -3.311655   1.000000
   33       -2.968477   1.000000
   34       -2.822796   1.000000
   35       -2.288162   1.000000