   50   50   40    1
  0.2363123E+02  0.8645320E-09  0.6085000E-09  0.2593596E-08  0.5000000E-15
   1.0000000000000000E-004
  CAR 
 Name                                    
    180    149    120

  0.3742002E-15  0.3742002E-15  0.3742002E-15  0.3367003E-02
    1      -13.963239   1.000000
    2      -12.794864   1.000000
    3      -12.405235   1.000000
    4      -11.953403   1.000000
    5      -11.665329   1.000000
    6      -11.236235   1.000000
    7      -11.178527   1.000000
    8      -10.877897   1.000000
    9      -10.738691   1.000000
   10      -10.710735   1.000000
   11      -10.596535   1.000000
   12      -10.512143   1.000000
   13      -10.354781   1.000000
   14      -10.318928   1.000000
   15       -9.786659   1.000000
   16       -9.317176   1.000000
   17       -9.224281   1.000000
   18       -9.159535   1.000000
   19       -9.028745   1.000000
   20       -8.641999   1.000000
   21       -8.431351   1.000000
   22       -8.228403   1.000000
   23       -8.085332   1.000000
   24       -7.982195   1.000000
   25       -7.734685   1.000000
   26       -7.576618   1.000000
   27       -7.487151   1.000000
   28       -7.365717   1.000000
   29       -7.161826   1.000000
   30       -6.668111   1.000000
   31       -6.589441   1.000000
   32       -6.318186   1.000000
   33       -6.236872   1.000000
   34       -6.090795   1.000000
   35       -6.039070   1.000000
   36       -5.898767   1.000000
   37       -5.583378   1.000000
   38       -5.517332   1.000000
   39       -5.445844   1.000000
   40       -5.414044   1.000000
   41       -5.335122   1.000000
   42       -5.264213   1.000000
   43       -5.004832   1.000000
   44       -4.985385   1.000000
   45       -4.841829   1.000000
   46       -4.817372   1.000000
   47       -4.771923   1.000000
   48       -4.700922   1.000000
   49       -4.578643   1.000000
   50       -4.540535   1.000000
   51       -4.402545   1.000000
   52       -4.312695   1.000000
   53       -4.239666   1.000000
   54       -4.123841   1.000000
   55       -4.028059   1.000000
   56       -3.978058   1.000000
   57       -3.943937   1.000000
   58       -3.849121   1.000000
   59       -3.781073   1.000000
   60       -3.721209   1.000000
   61       -3.695629   1.000000
   62       -3.675798   1.000000
   63       -3.516339   1.000000
   64       -3.456033   1.000000
   65       -3.345463   1.000000
   66       -3.290620   1.000000
   67       -3.138070   1.000000
   68       -2.958762   1.000000
   69       -2.917662   1.000000
   70       -2.792696   1.000000
   71       -2.727424   1.000000
   72       -2.552514   1.000000
   73       -2.401212   1.000000
   74       -2.247961   1.000000
   75       -2.206394   1.000000
   76       -1.841456   1.000000
   77       -1.758033   1.000000
   78       -1.701810   1.000000
   79       -1.575542   1.000000
   80       -1.464450   1.000000
   81       -1.427019   1.000000
   82       -1.148800   1.000000
   83       -1.086766   1.000000
   84       -0.826112   1.000038
   85       -0.638986   1.003689
   86       -0.458277   1.034320
   87       -0.343294   0.973506
   88       -0.252425   0.732197
   89       -0.133120   0.251503
   90       -0.080934   0.093719
   91        0.038427  -0.034906
   92        0.059761  -0.035110
   93        0.137614  -0.020181
   94        0.154827  -0.016458
   95        0.402347  -0.000101
   96        0.422622  -0.000057
   97        0.452478  -0.000023
   98        0.467794  -0.000014
   99        0.490457  -0.000007
  100        0.654478  -0.000000
  101        0.695376  -0.000000
  102        0.747001  -0.000000
  103        0.834997  -0.000000
  104        1.030276  -0.000000
  105        1.126318  -0.000000
  106        1.135084  -0.000000
  107        1.173978  -0.000000
  108        1.212165  -0.000000
  109        1.320443  -0.000000
  110        1.384068  -0.000000
  111        1.448039  -0.000000
  112        1.502829  -0.000000
  113        1.641314  -0.000000
  114        1.711074  -0.000000
  115        1.727266  -0.000000
  116        1.832348  -0.000000
  117        1.853601  -0.000000
  118        1.860844  -0.000000
  119        2.078215  -0.000000
  120        2.185754  -0.000000

  0.1111111E+00  0.3729374E-15  0.3860503E-15  0.6734007E-02
    1      -13.939288   1.000000
    2      -12.785203   1.000000
    3      -12.510476   1.000000
    4      -11.900495   1.000000
    5      -11.641238   1.000000
    6      -11.278876   1.000000
    7      -11.177300   1.000000
    8      -10.881037   1.000000
    9      -10.736004   1.000000
   10      -10.713039   1.000000
   11      -10.588795   1.000000
   12      -10.500391   1.000000
   13      -10.316895   1.000000
   14      -10.287314   1.000000
   15       -9.792061   1.000000
   16       -9.373561   1.000000
   17       -9.194802   1.000000
   18       -9.162268   1.000000
   19       -9.025744   1.000000
   20       -8.680733   1.000000
   21       -8.461352   1.000000
   22       -8.217266   1.000000
   23       -8.045685   1.000000
   24       -7.975786   1.000000
   25       -7.825811   1.000000
   26       -7.571561   1.000000
   27       -7.511608   1.000000
   28       -7.359659   1.000000
   29       -7.135921   1.000000
   30       -6.641959   1.000000
   31       -6.578936   1.000000
   32       -6.280037   1.000000
   33       -6.203128   1.000000
   34       -6.100152   1.000000
   35       -6.033197   1.000000
   36       -5.877730   1.000000
   37       -5.620520   1.000000
   38       -5.563764   1.000000
   39       -5.438211   1.000000
   40       -5.374458   1.000000
   41       -5.271803   1.000000
   42       -5.215755   1.000000
   43       -5.122535   1.000000
   44       -4.999599   1.000000
   45       -4.888821   1.000000
   46       -4.842810   1.000000
   47       -4.744809   1.000000
   48       -4.643212   1.000000
   49       -4.595671   1.000000
   50       -4.502848   1.000000
   51       -4.392477   1.000000
   52       -4.286686   1.000000
   53       -4.232557   1.000000
   54       -4.122673   1.000000
   55       -4.035871   1.000000
   56       -3.971871   1.000000
   57       -3.947224   1.000000
   58       -3.872197   1.000000
   59       -3.782649   1.000000
   60       -3.737612   1.000000
   61       -3.711721   1.000000
   62       -3.657916   1.000000
   63       -3.538557   1.000000
   64       -3.442531   1.000000
   65       -3.396420   1.000000
   66       -3.276278   1.000000
   67       -3.150076   1.000000
   68       -2.942374   1.000000
   69       -2.915460   1.000000
   70       -2.788676   1.000000
   71       -2.710400   1.000000
   72       -2.525714   1.000000
   73       -2.372129   1.000000
   74       -2.243607   1.000000
   75       -2.190161   1.000000
   76       -1.852742   1.000000
   77       -1.779121   1.000000
   78       -1.707584   1.000000
   79       -1.566402   1.000000
   80       -1.420132   1.000000
   81       -1.382384   1.000000
   82       -1.169440   1.000000
   83       -1.097576   1.000000
   84       -0.868380   1.000010
   85       -0.614862   1.005726
   86       -0.446563   1.035297
   87       -0.375485   1.011805
   88       -0.245333   0.705642
   89       -0.155320   0.335667
   90       -0.105776   0.160881
   91        0.035718  -0.034601
   92        0.057551  -0.035246
   93        0.170159  -0.013458
   94        0.174422  -0.012685
   95        0.339575  -0.000517
   96        0.355032  -0.000352
   97        0.443823  -0.000030
   98        0.488586  -0.000007
   99        0.533833  -0.000002
  100        0.650864  -0.000000
  101        0.697024  -0.000000
  102        0.815513  -0.000000
  103        0.844058  -0.000000
  104        1.074326  -0.000000
  105        1.145755  -0.000000
  106        1.150672  -0.000000
  107        1.188812  -0.000000
  108        1.211446  -0.000000
  109        1.312794  -0.000000
  110        1.385633  -0.000000
  111        1.432498  -0.000000
  112        1.494516  -0.000000
  113        1.632874  -0.000000
  114        1.685787  -0.000000
  115        1.715869  -0.000000
  116        1.811509  -0.000000
  117        1.846227  -0.000000
  118        1.876855  -0.000000
  119        1.996887  -0.000000
  120        2.117204  -0.000000

  0.2222222E+00  0.3922785E-15  0.3630220E-15  0.6734007E-02
    1      -13.869472   1.000000
    2      -12.834551   1.000000
    3      -12.627160   1.000000
    4      -11.876365   1.000000
    5      -11.588743   1.000000
    6      -11.340455   1.000000
    7      -11.167127   1.000000
    8      -10.892186   1.000000
    9      -10.734747   1.000000
   10      -10.710544   1.000000
   11      -10.570798   1.000000
   12      -10.469829   1.000000
   13      -10.231905   1.000000
   14      -10.209575   1.000000
   15       -9.810249   1.000000
   16       -9.482877   1.000000
   17       -9.161303   1.000000
   18       -9.149278   1.000000
   19       -8.995030   1.000000
   20       -8.779480   1.000000
   21       -8.558759   1.000000
   22       -8.205533   1.000000
   23       -8.089176   1.000000
   24       -7.983221   1.000000
   25       -7.819087   1.000000
   26       -7.565606   1.000000
   27       -7.537516   1.000000
   28       -7.374480   1.000000
   29       -7.106264   1.000000
   30       -6.585395   1.000000
   31       -6.558257   1.000000
   32       -6.219700   1.000000
   33       -6.167800   1.000000
   34       -6.100305   1.000000
   35       -5.975287   1.000000
   36       -5.861394   1.000000
   37       -5.649908   1.000000
   38       -5.599525   1.000000
   39       -5.484233   1.000000
   40       -5.337583   1.000000
   41       -5.204660   1.000000
   42       -5.174836   1.000000
   43       -5.102188   1.000000
   44       -5.009367   1.000000
   45       -4.951079   1.000000
   46       -4.905790   1.000000
   47       -4.754105   1.000000
   48       -4.641718   1.000000
   49       -4.553400   1.000000
   50       -4.475102   1.000000
   51       -4.362974   1.000000
   52       -4.252066   1.000000
   53       -4.195684   1.000000
   54       -4.126524   1.000000
   55       -4.063204   1.000000
   56       -3.979179   1.000000
   57       -3.957820   1.000000
   58       -3.887395   1.000000
   59       -3.801150   1.000000
   60       -3.748408   1.000000
   61       -3.712260   1.000000
   62       -3.631703   1.000000
   63       -3.571244   1.000000
   64       -3.540767   1.000000
   65       -3.382258   1.000000
   66       -3.259325   1.000000
   67       -3.196808   1.000000
   68       -2.940945   1.000000
   69       -2.893645   1.000000
   70       -2.763726   1.000000
   71       -2.668448   1.000000
   72       -2.471672   1.000000
   73       -2.311107   1.000000
   74       -2.244627   1.000000
   75       -2.127998   1.000000
   76       -1.939125   1.000000
   77       -1.777964   1.000000
   78       -1.679197   1.000000
   79       -1.554471   1.000000
   80       -1.394627   1.000000
   81       -1.237423   1.000000
   82       -1.182711   1.000000
   83       -1.070386   1.000000
   84       -0.975453   1.000000
   85       -0.617759   1.005442
   86       -0.439212   1.035456
   87       -0.421997   1.034058
   88       -0.254687   0.740479
   89       -0.189932   0.478518
   90       -0.134203   0.255413
   91       -0.028699   0.002314
   92        0.074892  -0.033445
   93        0.142839  -0.019018
   94        0.189270  -0.010220
   95        0.313559  -0.000954
   96        0.327594  -0.000689
   97        0.417966  -0.000065
   98        0.522236  -0.000002
   99        0.629498  -0.000000
  100        0.647152  -0.000000
  101        0.689679  -0.000000
  102        0.900586  -0.000000
  103        0.919277  -0.000000
  104        1.106182  -0.000000
  105        1.153233  -0.000000
  106        1.172757  -0.000000
  107        1.236190  -0.000000
  108        1.263933  -0.000000
  109        1.306986  -0.000000
  110        1.380261  -0.000000
  111        1.410390  -0.000000
  112        1.491607  -0.000000
  113        1.604582  -0.000000
  114        1.634200  -0.000000
  115        1.675369  -0.000000
  116        1.771060  -0.000000
  117        1.829126  -0.000000
  118        1.929095  -0.000000
  119        1.984946  -0.000000
  120        2.049213  -0.000000

  0.3333333E+00  0.3713828E-15  0.3468587E-15  0.6734007E-02
    1      -13.762524   1.000000
    2      -13.032029   1.000000
    3      -12.572421   1.000000
    4      -11.955503   1.000000
    5      -11.550065   1.000000
    6      -11.339728   1.000000
    7      -11.153904   1.000000
    8      -10.907530   1.000000
    9      -10.735429   1.000000
   10      -10.698612   1.000000
   11      -10.553027   1.000000
   12      -10.437315   1.000000
   13      -10.161292   1.000000
   14      -10.085498   1.000000
   15       -9.843783   1.000000
   16       -9.608471   1.000000
   17       -9.123908   1.000000
   18       -9.112937   1.000000
   19       -8.912963   1.000000
   20       -8.891436   1.000000
   21       -8.705636   1.000000
   22       -8.322151   1.000000
   23       -8.170860   1.000000
   24       -7.997875   1.000000
   25       -7.642894   1.000000
   26       -7.590905   1.000000
   27       -7.479416   1.000000
   28       -7.364625   1.000000
   29       -7.133468   1.000000
   30       -6.548107   1.000000
   31       -6.534593   1.000000
   32       -6.360061   1.000000
   33       -6.136127   1.000000
   34       -5.987209   1.000000
   35       -5.918588   1.000000
   36       -5.835463   1.000000
   37       -5.652357   1.000000
   38       -5.601152   1.000000
   39       -5.478767   1.000000
   40       -5.332407   1.000000
   41       -5.220149   1.000000
   42       -5.142301   1.000000
   43       -5.082274   1.000000
   44       -5.029843   1.000000
   45       -4.955363   1.000000
   46       -4.846105   1.000000
   47       -4.754246   1.000000
   48       -4.619742   1.000000
   49       -4.523144   1.000000
   50       -4.472102   1.000000
   51       -4.380665   1.000000
   52       -4.249266   1.000000
   53       -4.216749   1.000000
   54       -4.124417   1.000000
   55       -4.114061   1.000000
   56       -4.020468   1.000000
   57       -3.927032   1.000000
   58       -3.895611   1.000000
   59       -3.783658   1.000000
   60       -3.761755   1.000000
   61       -3.676272   1.000000
   62       -3.627291   1.000000
   63       -3.599436   1.000000
   64       -3.575990   1.000000
   65       -3.364074   1.000000
   66       -3.294130   1.000000
   67       -3.201447   1.000000
   68       -2.977211   1.000000
   69       -2.892626   1.000000
   70       -2.726540   1.000000
   71       -2.625331   1.000000
   72       -2.450897   1.000000
   73       -2.289182   1.000000
   74       -2.190501   1.000000
   75       -2.106289   1.000000
   76       -1.952645   1.000000
   77       -1.740092   1.000000
   78       -1.665971   1.000000
   79       -1.536069   1.000000
   80       -1.381849   1.000000
   81       -1.220797   1.000000
   82       -1.140907   1.000000
   83       -1.065821   1.000000
   84       -0.874656   1.000008
   85       -0.643602   1.003377
   86       -0.494411   1.027785
   87       -0.459423   1.034184
   88       -0.358571   0.994462
   89       -0.261314   0.764193
   90       -0.164668   0.373232
   91       -0.122691   0.215040
   92        0.083556  -0.032031
   93        0.118860  -0.024485
   94        0.290353  -0.001596
   95        0.310790  -0.001016
   96        0.362653  -0.000290
   97        0.412958  -0.000075
   98        0.558589  -0.000001
   99        0.631908  -0.000000
  100        0.705680  -0.000000
  101        0.736883  -0.000000
  102        0.967803  -0.000000
  103        0.998752  -0.000000
  104        1.075875  -0.000000
  105        1.147598  -0.000000
  106        1.185991  -0.000000
  107        1.253121  -0.000000
  108        1.304255  -0.000000
  109        1.327117  -0.000000
  110        1.398618  -0.000000
  111        1.430204  -0.000000
  112        1.519900  -0.000000
  113        1.554389  -0.000000
  114        1.581500  -0.000000
  115        1.637603  -0.000000
  116        1.683825  -0.000000
  117        1.739171  -0.000000
  118        1.887833  -0.000000
  119        1.984668  -0.000000
  120        2.122078  -0.000000

  0.4444444E+00  0.3870091E-15  0.3932070E-15  0.6734007E-02
    1      -13.652489   1.000000
    2      -13.204373   1.000000
    3      -12.490510   1.000000
    4      -12.060806   1.000000
    5      -11.522739   1.000000
    6      -11.325707   1.000000
    7      -11.145170   1.000000
    8      -10.917848   1.000000
    9      -10.736036   1.000000
   10      -10.687695   1.000000
   11      -10.542478   1.000000
   12      -10.417947   1.000000
   13      -10.109904   1.000000
   14       -9.963930   1.000000
   15       -9.879061   1.000000
   16       -9.723395   1.000000
   17       -9.085667   1.000000
   18       -9.050449   1.000000
   19       -8.987127   1.000000
   20       -8.853628   1.000000
   21       -8.759239   1.000000
   22       -8.528900   1.000000
   23       -8.182177   1.000000
   24       -7.983760   1.000000
   25       -7.601385   1.000000
   26       -7.536195   1.000000
   27       -7.480563   1.000000
   28       -7.229678   1.000000
   29       -7.166587   1.000000
   30       -6.619345   1.000000
   31       -6.521707   1.000000
   32       -6.503276   1.000000
   33       -6.093182   1.000000
   34       -5.947402   1.000000
   35       -5.845846   1.000000
   36       -5.754561   1.000000
   37       -5.653577   1.000000
   38       -5.594877   1.000000
   39       -5.477028   1.000000
   40       -5.349793   1.000000
   41       -5.259863   1.000000
   42       -5.155593   1.000000
   43       -5.113899   1.000000
   44       -5.002560   1.000000
   45       -4.923102   1.000000
   46       -4.770210   1.000000
   47       -4.691621   1.000000
   48       -4.590430   1.000000
   49       -4.505589   1.000000
   50       -4.486491   1.000000
   51       -4.363060   1.000000
   52       -4.350162   1.000000
   53       -4.265573   1.000000
   54       -4.183691   1.000000
   55       -4.101610   1.000000
   56       -4.053233   1.000000
   57       -3.899361   1.000000
   58       -3.865094   1.000000
   59       -3.798497   1.000000
   60       -3.769419   1.000000
   61       -3.652731   1.000000
   62       -3.600790   1.000000
   63       -3.587540   1.000000
   64       -3.558496   1.000000
   65       -3.394997   1.000000
   66       -3.305496   1.000000
   67       -3.182308   1.000000
   68       -3.017631   1.000000
   69       -2.909246   1.000000
   70       -2.705070   1.000000
   71       -2.607708   1.000000
   72       -2.470752   1.000000
   73       -2.280304   1.000000
   74       -2.169520   1.000000
   75       -2.103219   1.000000
   76       -1.846898   1.000000
   77       -1.735329   1.000000
   78       -1.674553   1.000000
   79       -1.533556   1.000000
   80       -1.358826   1.000000
   81       -1.288200   1.000000
   82       -1.097184   1.000000
   83       -0.958959   1.000000
   84       -0.768457   1.000192
   85       -0.686089   1.001410
   86       -0.628269   1.004505
   87       -0.476750   1.031450
   88       -0.418780   1.033471
   89       -0.338514   0.965841
   90       -0.146166   0.299999
   91       -0.118006   0.199400
   92        0.081910  -0.032320
   93        0.111819  -0.026107
   94        0.183849  -0.011079
   95        0.285242  -0.001780
   96        0.418388  -0.000064
   97        0.494825  -0.000006
   98        0.584411  -0.000000
   99        0.632582  -0.000000
  100        0.802315  -0.000000
  101        0.875117  -0.000000
  102        0.962213  -0.000000
  103        1.018382  -0.000000
  104        1.048743  -0.000000
  105        1.160460  -0.000000
  106        1.197880  -0.000000
  107        1.233810  -0.000000
  108        1.292753  -0.000000
  109        1.330394  -0.000000
  110        1.396032  -0.000000
  111        1.429948  -0.000000
  112        1.476604  -0.000000
  113        1.520564  -0.000000
  114        1.583737  -0.000000
  115        1.601528  -0.000000
  116        1.672345  -0.000000
  117        1.728132  -0.000000
  118        1.865997  -0.000000
  119        1.884593  -0.000000
  120        1.951139  -0.000000

  0.3742002E-15  0.9090909E-01  0.3596334E-15  0.6734007E-02
    1      -13.930479   1.000000
    2      -12.768003   1.000000
    3      -12.409645   1.000000
    4      -11.923520   1.000000
    5      -11.642017   1.000000
    6      -11.353251   1.000000
    7      -11.229854   1.000000
    8      -11.089956   1.000000
    9      -10.861872   1.000000
   10      -10.622195   1.000000
   11      -10.587753   1.000000
   12      -10.373479   1.000000
   13      -10.308251   1.000000
   14      -10.263040   1.000000
   15       -9.792795   1.000000
   16       -9.459417   1.000000
   17       -9.170304   1.000000
   18       -9.048308   1.000000
   19       -8.961719   1.000000
   20       -8.603239   1.000000
   21       -8.467927   1.000000
   22       -8.190133   1.000000
   23       -8.071438   1.000000
   24       -7.938093   1.000000
   25       -7.759586   1.000000
   26       -7.595954   1.000000
   27       -7.414560   1.000000
   28       -7.217029   1.000000
   29       -7.125287   1.000000
   30       -6.665070   1.000000
   31       -6.587833   1.000000
   32       -6.317150   1.000000
   33       -6.238685   1.000000
   34       -6.097787   1.000000
   35       -6.020209   1.000000
   36       -5.918443   1.000000
   37       -5.657995   1.000000
   38       -5.495329   1.000000
   39       -5.446610   1.000000
   40       -5.388859   1.000000
   41       -5.316193   1.000000
   42       -5.254661   1.000000
   43       -5.076804   1.000000
   44       -5.025395   1.000000
   45       -4.893076   1.000000
   46       -4.850635   1.000000
   47       -4.801251   1.000000
   48       -4.732565   1.000000
   49       -4.621513   1.000000
   50       -4.513285   1.000000
   51       -4.415149   1.000000
   52       -4.372173   1.000000
   53       -4.261547   1.000000
   54       -4.184666   1.000000
   55       -4.119740   1.000000
   56       -3.999105   1.000000
   57       -3.948825   1.000000
   58       -3.853055   1.000000
   59       -3.779923   1.000000
   60       -3.715941   1.000000
   61       -3.667878   1.000000
   62       -3.582737   1.000000
   63       -3.535909   1.000000
   64       -3.457718   1.000000
   65       -3.369320   1.000000
   66       -3.247085   1.000000
   67       -3.161045   1.000000
   68       -2.996397   1.000000
   69       -2.948454   1.000000
   70       -2.797680   1.000000
   71       -2.716951   1.000000
   72       -2.445532   1.000000
   73       -2.433991   1.000000
   74       -2.200758   1.000000
   75       -2.107798   1.000000
   76       -1.858212   1.000000
   77       -1.794006   1.000000
   78       -1.711553   1.000000
   79       -1.625005   1.000000
   80       -1.535229   1.000000
   81       -1.374014   1.000000
   82       -1.163476   1.000000
   83       -1.073346   1.000000
   84       -0.832889   1.000031
   85       -0.747506   1.000331
   86       -0.500137   1.026495
   87       -0.422294   1.034106
   88       -0.351027   0.984775
   89       -0.202413   0.531298
   90       -0.075777   0.081712
   91       -0.022717  -0.004144
   92        0.035573  -0.034583
   93        0.138566  -0.019967
   94        0.216168  -0.006646
   95        0.341703  -0.000491
   96        0.384164  -0.000165
   97        0.463308  -0.000017
   98        0.540283  -0.000001
   99        0.599477  -0.000000
  100        0.707772  -0.000000
  101        0.734502  -0.000000
  102        0.799866  -0.000000
  103        0.894422  -0.000000
  104        1.033400  -0.000000
  105        1.111443  -0.000000
  106        1.145284  -0.000000
  107        1.192020  -0.000000
  108        1.242178  -0.000000
  109        1.309705  -0.000000
  110        1.361884  -0.000000
  111        1.442014  -0.000000
  112        1.506067  -0.000000
  113        1.589188  -0.000000
  114        1.642983  -0.000000
  115        1.711107  -0.000000
  116        1.776938  -0.000000
  117        1.840202  -0.000000
  118        1.922887  -0.000000
  119        2.001260  -0.000000
  120        2.069486  -0.000000

  0.1111111E+00  0.9090909E-01  0.4822234E-15  0.6734007E-02
    1      -13.887460   1.000000
    2      -12.761313   1.000000
    3      -12.557266   1.000000
    4      -11.862107   1.000000
    5      -11.601792   1.000000
    6      -11.364598   1.000000
    7      -11.297521   1.000000
    8      -11.089434   1.000000
    9      -10.829006   1.000000
   10      -10.611051   1.000000
   11      -10.566056   1.000000
   12      -10.362753   1.000000
   13      -10.261839   1.000000
   14      -10.233183   1.000000
   15       -9.817607   1.000000
   16       -9.478041   1.000000
   17       -9.184331   1.000000
   18       -9.025951   1.000000
   19       -8.974964   1.000000
   20       -8.651596   1.000000
   21       -8.484626   1.000000
   22       -8.234712   1.000000
   23       -8.043750   1.000000
   24       -7.927254   1.000000
   25       -7.838250   1.000000
   26       -7.607174   1.000000
   27       -7.426944   1.000000
   28       -7.190335   1.000000
   29       -7.110696   1.000000
   30       -6.676589   1.000000
   31       -6.546150   1.000000
   32       -6.257612   1.000000
   33       -6.206749   1.000000
   34       -6.085379   1.000000
   35       -6.010478   1.000000
   36       -5.892860   1.000000
   37       -5.695038   1.000000
   38       -5.537519   1.000000
   39       -5.427162   1.000000
   40       -5.354984   1.000000
   41       -5.282430   1.000000
   42       -5.205144   1.000000
   43       -5.102279   1.000000
   44       -5.049842   1.000000
   45       -4.966696   1.000000
   46       -4.895384   1.000000
   47       -4.772541   1.000000
   48       -4.727980   1.000000
   49       -4.595146   1.000000
   50       -4.456617   1.000000
   51       -4.401871   1.000000
   52       -4.338372   1.000000
   53       -4.263241   1.000000
   54       -4.170221   1.000000
   55       -4.115319   1.000000
   56       -3.989678   1.000000
   57       -3.962667   1.000000
   58       -3.857939   1.000000
   59       -3.831519   1.000000
   60       -3.729076   1.000000
   61       -3.663138   1.000000
   62       -3.604294   1.000000
   63       -3.550869   1.000000
   64       -3.484378   1.000000
   65       -3.402938   1.000000
   66       -3.243893   1.000000
   67       -3.161952   1.000000
   68       -2.985372   1.000000
   69       -2.883125   1.000000
   70       -2.785045   1.000000
   71       -2.730024   1.000000
   72       -2.448415   1.000000
   73       -2.400639   1.000000
   74       -2.198304   1.000000
   75       -2.112973   1.000000
   76       -1.888280   1.000000
   77       -1.807969   1.000000
   78       -1.695693   1.000000
   79       -1.573958   1.000000
   80       -1.434603   1.000000
   81       -1.347199   1.000000
   82       -1.197810   1.000000
   83       -1.072019   1.000000
   84       -0.900923   1.000004
   85       -0.703825   1.000949
   86       -0.503169   1.025802
   87       -0.449547   1.035126
   88       -0.322389   0.935882
   89       -0.239400   0.682793
   90       -0.098374   0.139279
   91       -0.028053   0.001580
   92        0.031723  -0.034016
   93        0.150567  -0.017349
   94        0.239203  -0.004426
   95        0.325591  -0.000722
   96        0.352703  -0.000374
   97        0.436827  -0.000037
   98        0.547168  -0.000001
   99        0.629018  -0.000000
  100        0.696543  -0.000000
  101        0.729161  -0.000000
  102        0.831502  -0.000000
  103        0.940528  -0.000000
  104        1.064834  -0.000000
  105        1.139785  -0.000000
  106        1.179046  -0.000000
  107        1.219800  -0.000000
  108        1.245319  -0.000000
  109        1.298480  -0.000000
  110        1.371376  -0.000000
  111        1.421057  -0.000000
  112        1.488784  -0.000000
  113        1.579181  -0.000000
  114        1.613955  -0.000000
  115        1.698023  -0.000000
  116        1.744076  -0.000000
  117        1.812007  -0.000000
  118        1.894095  -0.000000
  119        2.002330  -0.000000
  120        2.140347  -0.000000

  0.2222222E+00  0.9090909E-01  0.3065600E-15  0.6734007E-02
    1      -13.801134   1.000000
    2      -12.885847   1.000000
    3      -12.592890   1.000000
    4      -11.881414   1.000000
    5      -11.555053   1.000000
    6      -11.382946   1.000000
    7      -11.329012   1.000000
    8      -11.094440   1.000000
    9      -10.771566   1.000000
   10      -10.594888   1.000000
   11      -10.536172   1.000000
   12      -10.352890   1.000000
   13      -10.198989   1.000000
   14      -10.176819   1.000000
   15       -9.861487   1.000000
   16       -9.497703   1.000000
   17       -9.225760   1.000000
   18       -8.996348   1.000000
   19       -8.952391   1.000000
   20       -8.716374   1.000000
   21       -8.539764   1.000000
   22       -8.302810   1.000000
   23       -8.160839   1.000000
   24       -7.983806   1.000000
   25       -7.700921   1.000000
   26       -7.606180   1.000000
   27       -7.410971   1.000000
   28       -7.190270   1.000000
   29       -7.108277   1.000000
   30       -6.691872   1.000000
   31       -6.493340   1.000000
   32       -6.262120   1.000000
   33       -6.162114   1.000000
   34       -6.061239   1.000000
   35       -5.942298   1.000000
   36       -5.892934   1.000000
   37       -5.665644   1.000000
   38       -5.578990   1.000000
   39       -5.452579   1.000000
   40       -5.357518   1.000000
   41       -5.250268   1.000000
   42       -5.166204   1.000000
   43       -5.081333   1.000000
   44       -5.034990   1.000000
   45       -5.006165   1.000000
   46       -4.910498   1.000000
   47       -4.782138   1.000000
   48       -4.685130   1.000000