ESCALE ; pCOHP file generated by LOBSTER. Energy is shifted such that the Fermi level lies at 0 eV.
        49          1        461  -6.02777e+00   1.70223e+01   9.00491e+00 
Average
No.1:V1->V1(3.0253494187375662)
No.2:V1->V1(2.9963302141973407)
No.3:V1->V1(2.9963302141461887)
No.4:V1->V1(2.9963302141883434)
No.5:V1->V1(2.9963302141883434)
No.6:V1->V1(2.9963302141461887)
No.7:V1->V1(2.9963302141973407)
No.8:V1->V1(3.0253494187375662)
No.9:B2->V1(2.2980099372689597)
No.10:B2->V1(2.2980099442825677)
No.11:B2->V1(2.2980099443484936)
No.12:B2->V1(2.2980099374648542)
No.13:B2->V1(2.2980099444784616)
No.14:B2->V1(2.298009944544388)
No.15:B3->V1(2.2980098399110789)
No.16:B3->V1(2.2980099966438194)
No.17:B3->V1(2.298009989345132)
No.18:B3->V1(2.2980098401069728)
No.19:B3->V1(2.2980099968397139)
No.20:B3->V1(2.298009989541026)
No.21:B2->B2(3.0253494187375662)
No.22:B2->B2(2.9963302141973407)
No.23:B2->B2(2.9963302141461887)
No.24:B2->B2(2.9963302141883434)
No.25:B2->B2(2.9963302141883434)
No.26:B2->B2(2.9963302141461887)
No.27:B2->B2(2.9963302141973407)
No.28:B2->B2(3.0253494187375662)
No.29:B3->B2(3.4850256565328026)
No.30:B3->B2(3.4850256470876046)
No.31:B3->B2(3.4850257504369613)
No.32:B3->B2(3.4598639790677237)
No.33:B3->B2(1.7299319990208175)
No.34:B3->B2(3.4598641871810396)
No.35:B3->B2(1.7299319799930426)
No.36:B3->B2(1.7299321881949519)
No.37:B3->B2(3.4598641681688491)
No.38:B3->B2(3.4850256565328026)
No.39:B3->B2(3.4850256470876046)
No.40:B3->B2(3.4850257504369613)
No.41:B3->B3(3.0253494187375662)
No.42:B3->B3(2.9963302141973407)
No.43:B3->B3(2.9963302141461887)
No.44:B3->B3(2.9963302141883434)
No.45:B3->B3(2.9963302141883434)
No.46:B3->B3(2.9963302141461887)
No.47:B3->B3(2.9963302141973407)
No.48:B3->B3(3.0253494187375662)
-15.03268   0.00000   0.00000   0.00000   0.00000   0.00000   0.00000   0.00000   0.00000   0.00000   0.00000   0.00000   0.00000   0.00000   0.00000   0.00000   0.00000   0.00000   0.00000   0.00000   0.00000   0.00000   0.00000   0.00000   0.00000   0.00000   0.00000   0.00000   0.00000   0.00000   0.00000   0.00000   0.00000   0.00000   0.00000   0.00000   0.00000   0.00000   0.00000   0.00000   0.00000   0.00000   0.00000   0.00000   0.00000   0.00000   0.00000   0.00000   0.00000   0.00000   0.00000   0.00000   0.00000   0.00000   0.00000   0.00000   0.00000   0.00000   0.00000   0.00000   0.00000   0.00000   0.00000   0.00000   0.00000   0.00000   0.00000   0.00000   0.00000   0.00000   0.00000   0.00000   0.00000   0.00000   0.00000   0.00000   0.00000   0.00000   0.00000   0.00000   0.00000   0.00000   0.00000   0.00000   0.00000   0.00000   0.00000   0.00000   0.00000   0.00000   0.00000   0.00000   0.00000   0.00000   0.00000   0.00000   0.00000   0.00000   0.00000
-14.98257   0.00000   0.00000   0.00000   0.00000   0.00000   0.00000   0.00000   0.00000   0.00000   0.00000   0.00000   0.00000   0.00000   0.00000   0.00000   0.00000   0.00000   0.00000   0.00000   0.00000   0.00000   0.00000   0.00000   0.00000   0.00000   0.00000   0.00000   0.00000   0.00000   0.00000   0.00000   0.00000   0.00000   0.00000   0.00000   0.00000   0.00000   0.00000   0.00000   0.00000   0.00000   0.00000   0.00000   0.00000   0.00000   0.00000   0.00000   0.00000   0.00000   0.00000   0.00000   0.00000   0.00000   0.00000   0.00000   0.00000   0.00000   0.00000   0.00000   0.00000   0.00000   0.00000   0.00000   0.00000   0.00000   0.00000   0.00000   0.00000   0.00000   0.00000   0.00000   0.00000   0.00000   0.00000   0.00000   0.00000   0.00000   0.00000   0.00000   0.00000   0.00000   0.00000   0.00000   0.00000   0.00000   0.00000   0.00000   0.00000   0.00000   0.00000   0.00000   0.00000   0.00000   0.00000   0.00000   0.00000   0.00000   0.00000
-14.93246   0.00000   0.00000   0.00000   0.00000   0.00000   0.00000   0.00000   0.00000   0.00000   0.00000   0.00000   0.00000   0.00000   0.00000   0.00000   0.00000   0.00000   0.00000   0.00000   0.00000   0.00000   0.00000   0.00000   0.00000   0.00000   0.00000   0.00000   0.00000   0.00000   0.00000   0.00000   0.00000   0.00000   0.00000   0.00000   0.00000   0.00000   0.00000   0.00000   0.00000   0.00000   0.00000   0.00000   0.00000   0.00000   0.00000   0.00000   0.00000   0.00000   0.00000   0.00000   0.00000   0.00000   0.00000   0.00000   0.00000   0.00000   0.00000   0.00000   0.00000   0.00000   0.00000   0.00000   0.00000   0.00000   0.00000   0.00000   0.00000   0.00000   0.00000   0.00000   0.00000   0.00000   0.00000   0.00000   0.00000   0.00000   0.00000   0.00000   0.00000   0.00000   0.00000   0.00000   0.00000   0.00000   0.00000   0.00000   0.00000   0.00000   0.00000   0.00000   0.00000   0.00000   0.00000   0.00000   0.00000   0.00000   0.00000
-14.88235   0.00000   0.00000   0.00000   0.00000   0.00000   0.00000   0.00000   0.00000   0.00000   0.00000   0.00000   0.00000   0.00000   0.00000   0.00000   0.00000   0.00000   0.00000   0.00000   0.00000   0.00000   0.00000   0.00000   0.00000   0.00000   0.00000   0.00000   0.00000   0.00000   0.00000   0.00000   0.00000   0.00000   0.00000   0.00000   0.00000   0.00000   0.00000   0.00000   0.00000   0.00000   0.00000   0.00000   0.00000   0.00000   0.00000   0.00000   0.00000   0.00000   0.00000   0.00000   0.00000   0.00000   0.00000   0.00000   0.00000   0.00000   0.00000   0.00000   0.00000   0.00000   0.00000   0.00000   0.00000   0.00000   0.00000   0.00000   0.00000   0.00000   0.00000   0.00000   0.00000   0.00000   0.00000   0.00000   0.00000   0.00000   0.00000   0.00000   0.00000   0.00000   0.00000   0.00000   0.00000   0.00000   0.00000   0.00000   0.00000   0.00000   0.00000   0.00000   0.00000   0.00000   0.00000   0.00000   0.00000   0.00000   0.00000
-14.83224   0.00000   0.00000   0.00000   0.00000   0.00000   0.00000   0.00000   0.00000   0.00000   0.00000   0.00000   0.00000   0.00000   0.00000   0.00000   0.00000   0.00000   0.00000   0.00000   0.00000   0.00000   0.00000   0.00000   0.00000   0.00000   0.00000   0.00000   0.00000   0.00000   0.00000   0.00000   0.00000   0.00000   0.00000   0.00000   0.00000   0.00000   0.00000   0.00000   0.00000   0.00000   0.00000   0.00000   0.00000   0.00000   0.00000   0.00000   0.00000   0.00000   0.00000   0.00000   0.00000   0.00000   0.00000   0.00000   0.00000   0.00000   0.00000   0.00000   0.00000   0.00000   0.00000   0.00000   0.00000   0.00000   0.00000   0.00000   0.00000   0.00000   0.00000   0.00000   0.00000   0.00000   0.00000   0.00000   0.00000   0.00000   0.00000   0.00000   0.00000   0.00000   0.00000   0.00000   0.00000   0.00000   0.00000   0.00000   0.00000   0.00000   0.00000   0.00000   0.00000   0.00000   0.00000   0.00000   0.00000   0.00000   0.00000
-14.78214   0.00000   0.00000   0.00000   0.00000   0.00000   0.00000   0.00000   0.00000   0.00000   0.00000   0.00000   0.00000   0.00000   0.00000   0.00000   0.00000   0.00000   0.00000   0.00000   0.00000   0.00000   0.00000   0.00000   0.00000   0.00000   0.00000   0.00000   0.00000   0.00000   0.00000   0.00000   0.00000   0.00000   0.00000   0.00000   0.00000   0.00000   0.00000   0.00000   0.00000   0.00000   0.00000   0.00000   0.00000   0.00000   0.00000   0.00000   0.00000   0.00000   0.00000   0.00000   0.00000   0.00000   0.00000   0.00000   0.00000   0.00000   0.00000   0.00000   0.00000   0.00000   0.00000   0.00000   0.00000   0.00000   0.00000   0.00000   0.00000   0.00000   0.00000   0.00000   0.00000   0.00000   0.00000   0.00000   0.00000   0.00000   0.00000   0.00000   0.00000   0.00000   0.00000   0.00000   0.00000   0.00000   0.00000   0.00000   0.00000   0.00000   0.00000   0.00000   0.00000   0.00000   0.00000   0.00000   0.00000   0.00000   0.00000
-14.73203   0.00000   0.00000   0.00000   0.00000   0.00000   0.00000   0.00000   0.00000   0.00000   0.00000   0.00000   0.00000   0.00000   0.00000   0.00000   0.00000   0.00000   0.00000   0.00000   0.00000   0.00000   0.00000   0.00000   0.00000   0.00000   0.00000   0.00000   0.00000   0.00000   0.00000   0.00000   0.00000   0.00000   0.00000   0.00000   0.00000   0.00000   0.00000   0.00000   0.00000   0.00000   0.00000   0.00000   0.00000   0.00000   0.00000   0.00000   0.00000   0.00000   0.00000   0.00000   0.00000   0.00000   0.00000   0.00000   0.00000   0.00000   0.00000   0.00000   0.00000   0.00000   0.00000   0.00000   0.00000   0.00000   0.00000   0.00000   0.00000   0.00000   0.00000   0.00000   0.00000   0.00000   0.00000   0.00000   0.00000   0.00000   0.00000   0.00000   0.00000   0.00000   0.00000   0.00000   0.00000   0.00000   0.00000   0.00000   0.00000   0.00000   0.00000   0.00000   0.00000   0.00000   0.00000   0.00000   0.00000   0.00000   0.00000
-14.68192  -0.00009  -0.00000  -0.00028  -0.00001  -0.00011  -0.00001  -0.00011  -0.00001  -0.00011  -0.00001  -0.00011  -0.00001  -0.00011  -0.00001  -0.00011  -0.00001  -0.00028  -0.00001  -0.00018  -0.00001  -0.00018  -0.00001  -0.00018  -0.00001  -0.00018  -0.00001  -0.00018  -0.00001  -0.00018  -0.00001  -0.00018  -0.00001  -0.00018  -0.00001  -0.00018  -0.00001  -0.00018  -0.00001  -0.00018  -0.00001  -0.00018  -0.00001  -0.00000  -0.00000  -0.00003  -0.00000  -0.00003  -0.00000  -0.00003  -0.00000  -0.00003  -0.00000  -0.00003  -0.00000  -0.00003  -0.00000  -0.00000  -0.00000   0.00002   0.00000   0.00002   0.00000   0.00002   0.00000  -0.00004  -0.00000  -0.00025  -0.00001  -0.00004  -0.00000  -0.00025  -0.00001  -0.00025  -0.00001  -0.00004  -0.00000   0.00002   0.00000   0.00002   0.00000   0.00002   0.00000  -0.00000  -0.00000  -0.00003  -0.00000  -0.00003  -0.00000  -0.00003  -0.00000  -0.00003  -0.00000  -0.00003  -0.00000  -0.00003  -0.00000  -0.00000  -0.00000
-14.63181  -0.00373  -0.00019  -0.01143  -0.00059  -0.00456  -0.00023  -0.00456  -0.00023  -0.00456  -0.00023  -0.00456  -0.00023  -0.00456  -0.00023  -0.00456  -0.00023  -0.01143  -0.00059  -0.00725  -0.00037  -0.00729  -0.00037  -0.00725  -0.00037  -0.00727  -0.00037  -0.00725  -0.00037  -0.00727  -0.00037  -0.00728  -0.00037  -0.00724  -0.00037  -0.00727  -0.00037  -0.00726  -0.00037  -0.00727  -0.00037  -0.00726  -0.00037  -0.00002  -0.00000  -0.00102  -0.00005  -0.00102  -0.00005  -0.00102  -0.00005  -0.00102  -0.00005  -0.00102  -0.00005  -0.00102  -0.00005  -0.00002  -0.00000   0.00093   0.00005   0.00094   0.00005   0.00093   0.00005  -0.00147  -0.00008  -0.01021  -0.00052  -0.00147  -0.00008  -0.01021  -0.00052  -0.01021  -0.00052  -0.00147  -0.00008   0.00094   0.00005   0.00093   0.00005   0.00094   0.00005  -0.00002  -0.00000  -0.00102  -0.00005  -0.00101  -0.00005  -0.00102  -0.00005  -0.00102  -0.00005  -0.00101  -0.00005  -0.00102  -0.00005  -0.00002  -0.00000
-14.58170  -0.01192  -0.00079  -0.03551  -0.00237  -0.01427  -0.00095  -0.01428  -0.00095  -0.01428  -0.00095  -0.01428  -0.00095  -0.01428  -0.00095  -0.01427  -0.00095  -0.03551  -0.00237  -0.02316  -0.00153  -0.02324  -0.00154  -0.02316  -0.00153  -0.02320  -0.00154  -0.02316  -0.00153  -0.02320  -0.00154  -0.02321  -0.00154  -0.02313  -0.00153  -0.02321  -0.00154  -0.02317  -0.00153  -0.02321  -0.00154  -0.02317  -0.00153  -0.00015  -0.00001  -0.00332  -0.00022  -0.00332  -0.00022  -0.00332  -0.00022  -0.00332  -0.00022  -0.00332  -0.00022  -0.00332  -0.00022  -0.00015  -0.00001   0.00296   0.00020   0.00298   0.00020   0.00296   0.00020  -0.00473  -0.00031  -0.03347  -0.00220  -0.00474  -0.00031  -0.03347  -0.00220  -0.03347  -0.00220  -0.00473  -0.00031   0.00298   0.00020   0.00295   0.00020   0.00298   0.00020  -0.00015  -0.00001  -0.00332  -0.00022  -0.00332  -0.00022  -0.00332  -0.00022  -0.00332  -0.00022  -0.00332  -0.00022  -0.00332  -0.00022  -0.00015  -0.00001
-14.53159  -0.01400  -0.00149  -0.03967  -0.00435  -0.01604  -0.00175  -0.01603  -0.00175  -0.01603  -0.00175  -0.01603  -0.00175  -0.01603  -0.00175  -0.01604  -0.00175  -0.03967  -0.00435  -0.02711  -0.00289  -0.02724  -0.00290  -0.02711  -0.00289  -0.02719  -0.00290  -0.02707  -0.00289  -0.02719  -0.00290  -0.02720  -0.00290  -0.02707  -0.00289  -0.02720  -0.00290  -0.02711  -0.00289  -0.02723  -0.00290  -0.02711  -0.00289  -0.00034  -0.00003  -0.00408  -0.00042  -0.00407  -0.00042  -0.00407  -0.00042  -0.00407  -0.00042  -0.00407  -0.00042  -0.00408  -0.00042  -0.00034  -0.00003   0.00342   0.00037   0.00347   0.00037   0.00342   0.00037  -0.00563  -0.00060  -0.04136  -0.00427  -0.00563  -0.00059  -0.04137  -0.00427  -0.04136  -0.00427  -0.00563  -0.00060   0.00346   0.00037   0.00341   0.00037   0.00346   0.00037  -0.00034  -0.00003  -0.00408  -0.00042  -0.00407  -0.00042  -0.00407  -0.00042  -0.00407  -0.00042  -0.00407  -0.00042  -0.00408  -0.00042  -0.00034  -0.00003
-14.48148  -0.01665  -0.00232  -0.04516  -0.00662  -0.01842  -0.00268  -0.01842  -0.00268  -0.01842  -0.00268  -0.01842  -0.00268  -0.01842  -0.00268  -0.01842  -0.00268  -0.04516  -0.00662  -0.03215  -0.00450  -0.03230  -0.00452  -0.03215  -0.00450  -0.03225  -0.00451  -0.03211  -0.00450  -0.03225  -0.00451  -0.03225  -0.00452  -0.03211  -0.00450  -0.03225  -0.00452  -0.03215  -0.00450  -0.03230  -0.00452  -0.03215  -0.00450  -0.00057  -0.00005  -0.00501  -0.00067  -0.00501  -0.00067  -0.00501  -0.00067  -0.00501  -0.00067  -0.00501  -0.00067  -0.00501  -0.00067  -0.00057  -0.00005   0.00402   0.00057   0.00407   0.00058   0.00402   0.00057  -0.00677  -0.00093  -0.05108  -0.00683  -0.00677  -0.00093  -0.05108  -0.00683  -0.05108  -0.00683  -0.00677  -0.00093   0.00405   0.00057   0.00400   0.00057   0.00405   0.00057  -0.00057  -0.00005  -0.00501  -0.00067  -0.00501  -0.00067  -0.00501  -0.00067  -0.00501  -0.00067  -0.00501  -0.00067  -0.00501  -0.00067  -0.00057  -0.00005
-14.43137  -0.02015  -0.00333  -0.05286  -0.00927  -0.02175  -0.00377  -0.02175  -0.00377  -0.02175  -0.00377  -0.02175  -0.00377  -0.02175  -0.00377  -0.02175  -0.00377  -0.05286  -0.00927  -0.03885  -0.00645  -0.03899  -0.00648  -0.03885  -0.00645  -0.03894  -0.00647  -0.03881  -0.00644  -0.03894  -0.00647  -0.03894  -0.00647  -0.03881  -0.00644  -0.03894  -0.00647  -0.03885  -0.00645  -0.03899  -0.00647  -0.03885  -0.00645  -0.00083  -0.00010  -0.00620  -0.00098  -0.00620  -0.00098  -0.00620  -0.00098  -0.00620  -0.00098  -0.00620  -0.00098  -0.00620  -0.00098  -0.00083  -0.00010   0.00482   0.00081   0.00487   0.00082   0.00482   0.00081  -0.00826  -0.00135  -0.06350  -0.01002  -0.00826  -0.00135  -0.06350  -0.01002  -0.06350  -0.01002  -0.00826  -0.00135   0.00485   0.00082   0.00480   0.00081   0.00485   0.00082  -0.00083  -0.00010  -0.00620  -0.00098  -0.00620  -0.00098  -0.00620  -0.00098  -0.00620  -0.00098  -0.00620  -0.00098  -0.00620  -0.00098  -0.00083  -0.00010
-14.38126  -0.02293  -0.00448  -0.05795  -0.01217  -0.02404  -0.00497  -0.02403  -0.00497  -0.02403  -0.00497  -0.02403  -0.00497  -0.02403  -0.00497  -0.02404  -0.00497  -0.05795  -0.01217  -0.04408  -0.00866  -0.04424  -0.00869  -0.04408  -0.00866  -0.04419  -0.00868  -0.04403  -0.00865  -0.04419  -0.00868  -0.04419  -0.00868  -0.04403  -0.00865  -0.04419  -0.00868  -0.04408  -0.00866  -0.04424  -0.00869  -0.04408  -0.00866  -0.00113  -0.00015  -0.00725  -0.00135  -0.00725  -0.00135  -0.00725  -0.00135  -0.00725  -0.00135  -0.00725  -0.00135  -0.00725  -0.00135  -0.00113  -0.00015   0.00541   0.00108   0.00547   0.00109   0.00541   0.00108  -0.00947  -0.00182  -0.07447  -0.01375  -0.00947  -0.00182  -0.07447  -0.01375  -0.07447  -0.01375  -0.00947  -0.00182   0.00545   0.00109   0.00539   0.00108   0.00545   0.00109  -0.00113  -0.00015  -0.00725  -0.00135  -0.00725  -0.00135  -0.00725  -0.00135  -0.00725  -0.00135  -0.00725  -0.00135  -0.00725  -0.00135  -0.00113  -0.00015
-14.33115  -0.02385  -0.00568  -0.05657  -0.01501  -0.02376  -0.00616  -0.02376  -0.00616  -0.02376  -0.00616  -0.02376  -0.00616  -0.02376  -0.00616  -0.02376  -0.00616  -0.05657  -0.01501  -0.04556  -0.01094  -0.04579  -0.01099  -0.04556  -0.01094  -0.04571  -0.01097  -0.04549  -0.01093  -0.04571  -0.01097  -0.04571  -0.01097  -0.04549  -0.01093  -0.04571  -0.01097  -0.04556  -0.01094  -0.04578  -0.01098  -0.04556  -0.01094  -0.00150  -0.00023  -0.00788  -0.00174  -0.00788  -0.00174  -0.00788  -0.00174  -0.00788  -0.00174  -0.00788  -0.00174  -0.00788  -0.00174  -0.00150  -0.00023   0.00550   0.00136   0.00558   0.00137   0.00550   0.00136  -0.00999  -0.00232  -0.08139  -0.01783  -0.00998  -0.00232  -0.08139  -0.01783  -0.08139  -0.01783  -0.00999  -0.00232   0.00556   0.00137   0.00547   0.00135   0.00555   0.00137  -0.00150  -0.00023  -0.00788  -0.00174  -0.00788  -0.00174  -0.00788  -0.00174  -0.00788  -0.00174  -0.00788  -0.00174  -0.00788  -0.00174  -0.00150  -0.00023
-14.28105  -0.02517  -0.00694  -0.05627  -0.01782  -0.02395  -0.00736  -0.02396  -0.00736  -0.02396  -0.00736  -0.02396  -0.00736  -0.02396  -0.00736  -0.02395  -0.00736  -0.05627  -0.01782  -0.04778  -0.01334  -0.04802  -0.01339  -0.04778  -0.01334  -0.04794  -0.01337  -0.04769  -0.01332  -0.04794  -0.01337  -0.04794  -0.01337  -0.04769  -0.01332  -0.04794  -0.01337  -0.04777  -0.01334  -0.04802  -0.01339  -0.04777  -0.01334  -0.00189  -0.00032  -0.00863  -0.00217  -0.00863  -0.00218  -0.00863  -0.00218  -0.00863  -0.00218  -0.00863  -0.00218  -0.00863  -0.00217  -0.00189  -0.00032   0.00567   0.00164   0.00577   0.00166   0.00567   0.00164  -0.01065  -0.00286  -0.08951  -0.02231  -0.01065  -0.00286  -0.08951  -0.02231  -0.08951  -0.02231  -0.01065  -0.00286   0.00573   0.00166   0.00563   0.00163   0.00573   0.00166  -0.00188  -0.00032  -0.00863  -0.00218  -0.00863  -0.00218  -0.00863  -0.00218  -0.00863  -0.00218  -0.00863  -0.00218  -0.00863  -0.00218  -0.00188  -0.00032
-14.23094  -0.02696  -0.00829  -0.05765  -0.02071  -0.02482  -0.00860  -0.02482  -0.00860  -0.02482  -0.00860  -0.02482  -0.00860  -0.02482  -0.00860  -0.02482  -0.00860  -0.05765  -0.02071  -0.05092  -0.01589  -0.05119  -0.01596  -0.05092  -0.01589  -0.05110  -0.01593  -0.05083  -0.01587  -0.05110  -0.01593  -0.05110  -0.01593  -0.05083  -0.01586  -0.05110  -0.01593  -0.05092  -0.01589  -0.05119  -0.01596  -0.05092  -0.01589  -0.00226  -0.00044  -0.00950  -0.00265  -0.00950  -0.00265  -0.00950  -0.00265  -0.00950  -0.00265  -0.00950  -0.00265  -0.00950  -0.00265  -0.00226  -0.00044   0.00596   0.00194   0.00607   0.00197   0.00596   0.00194  -0.01150  -0.00343  -0.09877  -0.02726  -0.01150  -0.00343  -0.09877  -0.02726  -0.09877  -0.02726  -0.01150  -0.00343   0.00603   0.00196   0.00592   0.00193   0.00603   0.00196  -0.00226  -0.00043  -0.00950  -0.00265  -0.00950  -0.00265  -0.00950  -0.00265  -0.00950  -0.00265  -0.00950  -0.00265  -0.00950  -0.00265  -0.00226  -0.00043
-14.18083  -0.02877  -0.00973  -0.05898  -0.02367  -0.02567  -0.00989  -0.02567  -0.00989  -0.02567  -0.00989  -0.02567  -0.00989  -0.02567  -0.00989  -0.02567  -0.00989  -0.05898  -0.02367  -0.05407  -0.01860  -0.05437  -0.01868  -0.05407  -0.01860  -0.05427  -0.01865  -0.05397  -0.01857  -0.05427  -0.01865  -0.05427  -0.01865  -0.05397  -0.01857  -0.05427  -0.01865  -0.05406  -0.01860  -0.05436  -0.01868  -0.05406  -0.01860  -0.00265  -0.00057  -0.01038  -0.00317  -0.01038  -0.00317  -0.01038  -0.00317  -0.01038  -0.00317  -0.01038  -0.00317  -0.01038  -0.00317  -0.00265  -0.00057   0.00624   0.00225   0.00637   0.00229   0.00624   0.00225  -0.01236  -0.00405  -0.10823  -0.03268  -0.01236  -0.00405  -0.10823  -0.03268  -0.10823  -0.03268  -0.01236  -0.00405   0.00633   0.00228   0.00620   0.00224   0.00633   0.00228  -0.00264  -0.00057  -0.01038  -0.00317  -0.01038  -0.00317  -0.01038  -0.00317  -0.01038  -0.00317  -0.01038  -0.00317  -0.01038  -0.00317  -0.00264  -0.00057
-14.13072  -0.03066  -0.01127  -0.06020  -0.02669  -0.02652  -0.01122  -0.02652  -0.01122  -0.02651  -0.01122  -0.02651  -0.01122  -0.02652  -0.01122  -0.02652  -0.01122  -0.06020  -0.02669  -0.05732  -0.02147  -0.05762  -0.02157  -0.05732  -0.02147  -0.05752  -0.02154  -0.05723  -0.02144  -0.05752  -0.02154  -0.05752  -0.02154  -0.05722  -0.02143  -0.05752  -0.02154  -0.05732  -0.02147  -0.05761  -0.02157  -0.05732  -0.02147  -0.00306  -0.00072  -0.01132  -0.00374  -0.01132  -0.00374  -0.01132  -0.00374  -0.01132  -0.00374  -0.01132  -0.00374  -0.01132  -0.00374  -0.00306  -0.00072   0.00653   0.00258   0.00666   0.00262   0.00653   0.00258  -0.01325  -0.00472  -0.11828  -0.03861  -0.01326  -0.00472  -0.11828  -0.03861  -0.11828  -0.03861  -0.01325  -0.00472   0.00661   0.00261   0.00649   0.00257   0.00661   0.00261  -0.00306  -0.00072  -0.01132  -0.00374  -0.01132  -0.00374  -0.01132  -0.00374  -0.01132  -0.00374  -0.01132  -0.00374  -0.01132  -0.00374  -0.00306  -0.00072
-14.08061  -0.03250  -0.01290  -0.06059  -0.02972  -0.02711  -0.01258  -0.02711  -0.01258  -0.02711  -0.01258  -0.02711  -0.01258  -0.02711  -0.01258  -0.02711  -0.01258  -0.06059  -0.02972  -0.06040  -0.02450  -0.06061  -0.02461  -0.06040  -0.02449  -0.06054  -0.02457  -0.06032  -0.02446  -0.06054  -0.02457  -0.06054  -0.02457  -0.06032  -0.02446  -0.06054  -0.02457  -0.06039  -0.02450  -0.06061  -0.02460  -0.06039  -0.02449  -0.00355  -0.00090  -0.01231  -0.00435  -0.01231  -0.00436  -0.01231  -0.00436  -0.01231  -0.00436  -0.01231  -0.00436  -0.01231  -0.00435  -0.00355  -0.00090   0.00677   0.00292   0.00686   0.00296   0.00677   0.00292  -0.01416  -0.00543  -0.12897  -0.04507  -0.01416  -0.00543  -0.12896  -0.04507  -0.12897  -0.04507  -0.01416  -0.00543   0.00683   0.00295   0.00674   0.00290   0.00683   0.00295  -0.00354  -0.00090  -0.01231  -0.00436  -0.01231  -0.00436  -0.01231  -0.00436  -0.01231  -0.00436  -0.01231  -0.00436  -0.01231  -0.00436  -0.00354  -0.00090
-14.03050  -0.03339  -0.01457  -0.05790  -0.03262  -0.02644  -0.01390  -0.02645  -0.01390  -0.02645  -0.01390  -0.02645  -0.01390  -0.02645  -0.01390  -0.02644  -0.01390  -0.05790  -0.03262  -0.06142  -0.02757  -0.06166  -0.02770  -0.06142  -0.02757  -0.06158  -0.02765  -0.06134  -0.02753  -0.06158  -0.02765  -0.06158  -0.02766  -0.06134  -0.02753  -0.06158  -0.02766  -0.06142  -0.02757  -0.06166  -0.02769  -0.06142  -0.02757  -0.00407  -0.00110  -0.01310  -0.00501  -0.01311  -0.00501  -0.01311  -0.00501  -0.01311  -0.00501  -0.01311  -0.00501  -0.01310  -0.00501  -0.00407  -0.00110   0.00671   0.00326   0.00682   0.00331   0.00671   0.00326  -0.01470  -0.00616  -0.13777  -0.05198  -0.01469  -0.00616  -0.13776  -0.05198  -0.13777  -0.05198  -0.01470  -0.00616   0.00678   0.00329   0.00667   0.00324   0.00678   0.00329  -0.00406  -0.00110  -0.01311  -0.00501  -0.01311  -0.00501  -0.01311  -0.00501  -0.01311  -0.00501  -0.01311  -0.00501  -0.01311  -0.00501  -0.00406  -0.00110
-13.98039  -0.03445  -0.01630  -0.05611  -0.03543  -0.02610  -0.01521  -0.02609  -0.01521  -0.02609  -0.01521  -0.02609  -0.01521  -0.02609  -0.01521  -0.02610  -0.01521  -0.05611  -0.03543  -0.06274  -0.03072  -0.06305  -0.03086  -0.06274  -0.03072  -0.06295  -0.03081  -0.06263  -0.03067  -0.06295  -0.03081  -0.06295  -0.03081  -0.06263  -0.03067  -0.06295  -0.03081  -0.06273  -0.03072  -0.06305  -0.03085  -0.06274  -0.03072  -0.00456  -0.00133  -0.01392  -0.00571  -0.01392  -0.00571  -0.01392  -0.00571  -0.01392  -0.00571  -0.01392  -0.00571  -0.01392  -0.00571  -0.00456  -0.00133   0.00669   0.00359   0.00683   0.00365   0.00669   0.00359  -0.01528  -0.00693  -0.14668  -0.05933  -0.01527  -0.00693  -0.14668  -0.05933  -0.14668  -0.05933  -0.01528  -0.00693   0.00678   0.00363   0.00665   0.00357   0.00678   0.00363  -0.00455  -0.00133  -0.01392  -0.00571  -0.01392  -0.00571  -0.01392  -0.00571  -0.01392  -0.00571  -0.01392  -0.00571  -0.01392  -0.00571  -0.00455  -0.00133
-13.93028  -0.03552  -0.01808  -0.05445  -0.03816  -0.02578  -0.01650  -0.02577  -0.01650  -0.02577  -0.01650  -0.02577  -0.01650  -0.02577  -0.01650  -0.02578  -0.01650  -0.05445  -0.03816  -0.06405  -0.03393  -0.06445  -0.03409  -0.06404  -0.03393  -0.06432  -0.03403  -0.06391  -0.03387  -0.06432  -0.03403  -0.06432  -0.03403  -0.06391  -0.03387  -0.06432  -0.03403  -0.06404  -0.03393  -0.06445  -0.03408  -0.06404  -0.03393  -0.00505  -0.00159  -0.01474  -0.00645  -0.01474  -0.00645  -0.01474  -0.00645  -0.01474  -0.00645  -0.01474  -0.00645  -0.01474  -0.00645  -0.00505  -0.00159   0.00667   0.00392   0.00685   0.00399   0.00667   0.00392  -0.01586  -0.00772  -0.15567  -0.06713  -0.01586  -0.00772  -0.15567  -0.06713  -0.15567  -0.06713  -0.01586  -0.00772   0.00679   0.00397   0.00661   0.00390   0.00679   0.00397  -0.00504  -0.00158  -0.01474  -0.00645  -0.01474  -0.00645  -0.01474  -0.00645  -0.01474  -0.00645  -0.01474  -0.00645  -0.01474  -0.00645  -0.00504  -0.00158
-13.88017  -0.03657  -0.01991  -0.05271  -0.04080  -0.02543  -0.01778  -0.02542  -0.01778  -0.02542  -0.01778  -0.02542  -0.01778  -0.02542  -0.01778  -0.02543  -0.01778  -0.05271  -0.04080  -0.06526  -0.03720  -0.06577  -0.03738  -0.06526  -0.03720  -0.06561  -0.03732  -0.06510  -0.03714  -0.06561  -0.03732  -0.06561  -0.03732  -0.06510  -0.03713  -0.06561  -0.03732  -0.06526  -0.03720  -0.06577  -0.03738  -0.06526  -0.03720  -0.00554  -0.00186  -0.01557  -0.00723  -0.01556  -0.00723  -0.01556  -0.00723  -0.01556  -0.00723  -0.01556  -0.00723  -0.01557  -0.00723  -0.00554  -0.00186   0.00663   0.00426   0.00685   0.00433   0.00663   0.00426  -0.01642  -0.00855  -0.16472  -0.07538  -0.01643  -0.00855  -0.16473  -0.07538  -0.16472  -0.07538  -0.01642  -0.00855   0.00677   0.00431   0.00656   0.00423   0.00677   0.00431  -0.00553  -0.00186  -0.01557  -0.00723  -0.01556  -0.00723  -0.01556  -0.00723  -0.01556  -0.00723  -0.01556  -0.00723  -0.01557  -0.00723  -0.00553  -0.00186
-13.83007  -0.03780  -0.02180  -0.05092  -0.04336  -0.02513  -0.01904  -0.02513  -0.01904  -0.02513  -0.01903  -0.02513  -0.01903  -0.02513  -0.01904  -0.02513  -0.01904  -0.05092  -0.04336  -0.06677  -0.04054  -0.06722  -0.04075  -0.06677  -0.04054  -0.06708  -0.04068  -0.06663  -0.04048  -0.06708  -0.04068  -0.06707  -0.04068  -0.06663  -0.04047  -0.06707  -0.04068  -0.06677  -0.04054  -0.06721  -0.04075  -0.06677  -0.04054  -0.00609  -0.00217  -0.01650  -0.00805  -0.01650  -0.00805  -0.01650  -0.00805  -0.01650  -0.00805  -0.01650  -0.00805  -0.01650  -0.00805  -0.00609  -0.00217   0.00659   0.00459   0.00679   0.00467   0.00659   0.00459  -0.01709  -0.00940  -0.17502  -0.08415  -0.01709  -0.00940  -0.17501  -0.08415  -0.17502  -0.08415  -0.01709  -0.00940   0.00672   0.00465   0.00653   0.00456   0.00672   0.00465  -0.00608  -0.00216  -0.01651  -0.00806  -0.01651  -0.00806  -0.01651  -0.00806  -0.01651  -0.00806  -0.01651  -0.00806  -0.01651  -0.00806  -0.00608  -0.00216
-13.77996  -0.03919  -0.02377  -0.04970  -0.04585  -0.02506  -0.02029  -0.02507  -0.02029  -0.02506  -0.02029  -0.02506  -0.02029  -0.02507  -0.02029  -0.02506  -0.02029  -0.04970  -0.04585  -0.06858  -0.04398  -0.06895  -0.04420  -0.06858  -0.04398  -0.06883  -0.04413  -0.06846  -0.04391  -0.06883  -0.04413  -0.06883  -0.04413  -0.06845  -0.04390  -0.06883  -0.04413  -0.06857  -0.04398  -0.06894  -0.04420  -0.06857  -0.04398  -0.00664  -0.00250  -0.01748  -0.00893  -0.01749  -0.00893  -0.01749  -0.00893  -0.01749  -0.00893  -0.01749  -0.00893  -0.01748  -0.00893  -0.00664  -0.00250   0.00659   0.00492   0.00676   0.00501   0.00659   0.00492  -0.01781  -0.01029  -0.18572  -0.09346  -0.01780  -0.01029  -0.18571  -0.09346  -0.18572  -0.09346  -0.01781  -0.01029   0.00670   0.00498   0.00654   0.00489   0.00670   0.00498  -0.00663  -0.00250  -0.01749  -0.00893  -0.01749  -0.00893  -0.01749  -0.00893  -0.01749  -0.00893  -0.01749  -0.00893  -0.01749  -0.00893  -0.00663  -0.00250
-13.72985  -0.04064  -0.02580  -0.04865  -0.04828  -0.02505  -0.02155  -0.02506  -0.02155  -0.02505  -0.02155  -0.02505  -0.02155  -0.02506  -0.02155  -0.02505  -0.02155  -0.04865  -0.04828  -0.07046  -0.04751  -0.07076  -0.04775  -0.07046  -0.04751  -0.07067  -0.04767  -0.07036  -0.04743  -0.07067  -0.04767  -0.07066  -0.04767  -0.07036  -0.04743  -0.07066  -0.04767  -0.07046  -0.04751  -0.07076  -0.04775  -0.07046  -0.04751  -0.00718  -0.00286  -0.01849  -0.00986  -0.01849  -0.00986  -0.01849  -0.00986  -0.01849  -0.00986  -0.01849  -0.00986  -0.01849  -0.00986  -0.00718  -0.00286   0.00660   0.00525   0.00674   0.00535   0.00660   0.00525  -0.01854  -0.01122  -0.19664  -0.10331  -0.01854  -0.01122  -0.19663  -0.10331  -0.19664  -0.10331  -0.01854  -0.01122   0.00669   0.00532   0.00656   0.00521   0.00669   0.00532  -0.00717  -0.00286  -0.01849  -0.00986  -0.01850  -0.00986  -0.01850  -0.00986  -0.01850  -0.00986  -0.01850  -0.00986  -0.01849  -0.00986  -0.00717  -0.00286
-13.67974  -0.04207  -0.02791  -0.04754  -0.05067  -0.02500  -0.02280  -0.02500  -0.02280  -0.02500  -0.02280  -0.02500  -0.02280  -0.02500  -0.02280  -0.02500  -0.02280  -0.04754  -0.05067  -0.07227  -0.05113  -0.07250  -0.05138  -0.07227  -0.05113  -0.07243  -0.05130  -0.07219  -0.05105  -0.07243  -0.05130  -0.07243  -0.05130  -0.07219  -0.05105  -0.07243  -0.05130  -0.07226  -0.05113  -0.07250  -0.05138  -0.07226  -0.05113  -0.00773  -0.00325  -0.01951  -0.01083  -0.01951  -0.01084  -0.01951  -0.01084  -0.01951  -0.01084  -0.01951  -0.01084  -0.01951  -0.01083  -0.00773  -0.00325   0.00658   0.00558   0.00670   0.00569   0.00658   0.00558  -0.01928  -0.01219  -0.20772  -0.11372  -0.01927  -0.01219  -0.20772  -0.11372  -0.20772  -0.11372  -0.01928  -0.01219   0.00666   0.00565   0.00655   0.00554   0.00666   0.00565  -0.00772  -0.00324  -0.01952  -0.01084  -0.01952  -0.01084  -0.01952  -0.01084  -0.01952  -0.01084  -0.01952  -0.01084  -0.01952  -0.01084  -0.00772  -0.00324