ESCALE ; pCOOP file generated by LOBSTER. Energy is shifted such that the Fermi level lies at 0 eV.
        49          1        461  -6.02777e+00   1.70223e+01   9.00491e+00 
Average
No.1:V1->V1(3.0253494187375662)
No.2:V1->V1(2.9963302141973407)
No.3:V1->V1(2.9963302141461887)
No.4:V1->V1(2.9963302141883434)
No.5:V1->V1(2.9963302141883434)
No.6:V1->V1(2.9963302141461887)
No.7:V1->V1(2.9963302141973407)
No.8:V1->V1(3.0253494187375662)
No.9:B2->V1(2.2980099372689597)
No.10:B2->V1(2.2980099442825677)
No.11:B2->V1(2.2980099443484936)
No.12:B2->V1(2.2980099374648542)
No.13:B2->V1(2.2980099444784616)
No.14:B2->V1(2.298009944544388)
No.15:B3->V1(2.2980098399110789)
No.16:B3->V1(2.2980099966438194)
No.17:B3->V1(2.298009989345132)
No.18:B3->V1(2.2980098401069728)
No.19:B3->V1(2.2980099968397139)
No.20:B3->V1(2.298009989541026)
No.21:B2->B2(3.0253494187375662)
No.22:B2->B2(2.9963302141973407)
No.23:B2->B2(2.9963302141461887)
No.24:B2->B2(2.9963302141883434)
No.25:B2->B2(2.9963302141883434)
No.26:B2->B2(2.9963302141461887)
No.27:B2->B2(2.9963302141973407)
No.28:B2->B2(3.0253494187375662)
No.29:B3->B2(3.4850256565328026)
No.30:B3->B2(3.4850256470876046)
No.31:B3->B2(3.4850257504369613)
No.32:B3->B2(3.4598639790677237)
No.33:B3->B2(1.7299319990208175)
No.34:B3->B2(3.4598641871810396)
No.35:B3->B2(1.7299319799930426)
No.36:B3->B2(1.7299321881949519)
No.37:B3->B2(3.4598641681688491)
No.38:B3->B2(3.4850256565328026)
No.39:B3->B2(3.4850256470876046)
No.40:B3->B2(3.4850257504369613)
No.41:B3->B3(3.0253494187375662)
No.42:B3->B3(2.9963302141973407)
No.43:B3->B3(2.9963302141461887)
No.44:B3->B3(2.9963302141883434)
No.45:B3->B3(2.9963302141883434)
No.46:B3->B3(2.9963302141461887)
No.47:B3->B3(2.9963302141973407)
No.48:B3->B3(3.0253494187375662)
-15.03268   0.00000   0.00000   0.00000   0.00000   0.00000   0.00000   0.00000   0.00000   0.00000   0.00000   0.00000   0.00000   0.00000   0.00000   0.00000   0.00000   0.00000   0.00000   0.00000   0.00000   0.00000   0.00000   0.00000   0.00000   0.00000   0.00000   0.00000   0.00000   0.00000   0.00000   0.00000   0.00000   0.00000   0.00000   0.00000   0.00000   0.00000   0.00000   0.00000   0.00000   0.00000   0.00000   0.00000   0.00000   0.00000   0.00000   0.00000   0.00000   0.00000   0.00000   0.00000   0.00000   0.00000   0.00000   0.00000   0.00000   0.00000   0.00000   0.00000   0.00000   0.00000   0.00000   0.00000   0.00000   0.00000   0.00000   0.00000   0.00000   0.00000   0.00000   0.00000   0.00000   0.00000   0.00000   0.00000   0.00000   0.00000   0.00000   0.00000   0.00000   0.00000   0.00000   0.00000   0.00000   0.00000   0.00000   0.00000   0.00000   0.00000   0.00000   0.00000   0.00000   0.00000   0.00000   0.00000   0.00000   0.00000   0.00000
-14.98257   0.00000   0.00000   0.00000   0.00000   0.00000   0.00000   0.00000   0.00000   0.00000   0.00000   0.00000   0.00000   0.00000   0.00000   0.00000   0.00000   0.00000   0.00000   0.00000   0.00000   0.00000   0.00000   0.00000   0.00000   0.00000   0.00000   0.00000   0.00000   0.00000   0.00000   0.00000   0.00000   0.00000   0.00000   0.00000   0.00000   0.00000   0.00000   0.00000   0.00000   0.00000   0.00000   0.00000   0.00000   0.00000   0.00000   0.00000   0.00000   0.00000   0.00000   0.00000   0.00000   0.00000   0.00000   0.00000   0.00000   0.00000   0.00000   0.00000   0.00000   0.00000   0.00000   0.00000   0.00000   0.00000   0.00000   0.00000   0.00000   0.00000   0.00000   0.00000   0.00000   0.00000   0.00000   0.00000   0.00000   0.00000   0.00000   0.00000   0.00000   0.00000   0.00000   0.00000   0.00000   0.00000   0.00000   0.00000   0.00000   0.00000   0.00000   0.00000   0.00000   0.00000   0.00000   0.00000   0.00000   0.00000   0.00000
-14.93246   0.00000   0.00000   0.00000   0.00000   0.00000   0.00000   0.00000   0.00000   0.00000   0.00000   0.00000   0.00000   0.00000   0.00000   0.00000   0.00000   0.00000   0.00000   0.00000   0.00000   0.00000   0.00000   0.00000   0.00000   0.00000   0.00000   0.00000   0.00000   0.00000   0.00000   0.00000   0.00000   0.00000   0.00000   0.00000   0.00000   0.00000   0.00000   0.00000   0.00000   0.00000   0.00000   0.00000   0.00000   0.00000   0.00000   0.00000   0.00000   0.00000   0.00000   0.00000   0.00000   0.00000   0.00000   0.00000   0.00000   0.00000   0.00000   0.00000   0.00000   0.00000   0.00000   0.00000   0.00000   0.00000   0.00000   0.00000   0.00000   0.00000   0.00000   0.00000   0.00000   0.00000   0.00000   0.00000   0.00000   0.00000   0.00000   0.00000   0.00000   0.00000   0.00000   0.00000   0.00000   0.00000   0.00000   0.00000   0.00000   0.00000   0.00000   0.00000   0.00000   0.00000   0.00000   0.00000   0.00000   0.00000   0.00000
-14.88235   0.00000   0.00000   0.00000   0.00000   0.00000   0.00000   0.00000   0.00000   0.00000   0.00000   0.00000   0.00000   0.00000   0.00000   0.00000   0.00000   0.00000   0.00000   0.00000   0.00000   0.00000   0.00000   0.00000   0.00000   0.00000   0.00000   0.00000   0.00000   0.00000   0.00000   0.00000   0.00000   0.00000   0.00000   0.00000   0.00000   0.00000   0.00000   0.00000   0.00000   0.00000   0.00000   0.00000   0.00000   0.00000   0.00000   0.00000   0.00000   0.00000   0.00000   0.00000   0.00000   0.00000   0.00000   0.00000   0.00000   0.00000   0.00000   0.00000   0.00000   0.00000   0.00000   0.00000   0.00000   0.00000   0.00000   0.00000   0.00000   0.00000   0.00000   0.00000   0.00000   0.00000   0.00000   0.00000   0.00000   0.00000   0.00000   0.00000   0.00000   0.00000   0.00000   0.00000   0.00000   0.00000   0.00000   0.00000   0.00000   0.00000   0.00000   0.00000   0.00000   0.00000   0.00000   0.00000   0.00000   0.00000   0.00000
-14.83224   0.00000   0.00000   0.00000   0.00000   0.00000   0.00000   0.00000   0.00000   0.00000   0.00000   0.00000   0.00000   0.00000   0.00000   0.00000   0.00000   0.00000   0.00000   0.00000   0.00000   0.00000   0.00000   0.00000   0.00000   0.00000   0.00000   0.00000   0.00000   0.00000   0.00000   0.00000   0.00000   0.00000   0.00000   0.00000   0.00000   0.00000   0.00000   0.00000   0.00000   0.00000   0.00000   0.00000   0.00000   0.00000   0.00000   0.00000   0.00000   0.00000   0.00000   0.00000   0.00000   0.00000   0.00000   0.00000   0.00000   0.00000   0.00000   0.00000   0.00000   0.00000   0.00000   0.00000   0.00000   0.00000   0.00000   0.00000   0.00000   0.00000   0.00000   0.00000   0.00000   0.00000   0.00000   0.00000   0.00000   0.00000   0.00000   0.00000   0.00000   0.00000   0.00000   0.00000   0.00000   0.00000   0.00000   0.00000   0.00000   0.00000   0.00000   0.00000   0.00000   0.00000   0.00000   0.00000   0.00000   0.00000   0.00000
-14.78214   0.00000   0.00000   0.00000   0.00000   0.00000   0.00000   0.00000   0.00000   0.00000   0.00000   0.00000   0.00000   0.00000   0.00000   0.00000   0.00000   0.00000   0.00000   0.00000   0.00000   0.00000   0.00000   0.00000   0.00000   0.00000   0.00000   0.00000   0.00000   0.00000   0.00000   0.00000   0.00000   0.00000   0.00000   0.00000   0.00000   0.00000   0.00000   0.00000   0.00000   0.00000   0.00000   0.00000   0.00000   0.00000   0.00000   0.00000   0.00000   0.00000   0.00000   0.00000   0.00000   0.00000   0.00000   0.00000   0.00000   0.00000   0.00000   0.00000   0.00000   0.00000   0.00000   0.00000   0.00000   0.00000   0.00000   0.00000   0.00000   0.00000   0.00000   0.00000   0.00000   0.00000   0.00000   0.00000   0.00000   0.00000   0.00000   0.00000   0.00000   0.00000   0.00000   0.00000   0.00000   0.00000   0.00000   0.00000   0.00000   0.00000   0.00000   0.00000   0.00000   0.00000   0.00000   0.00000   0.00000   0.00000   0.00000
-14.73203   0.00000   0.00000   0.00000   0.00000   0.00000   0.00000   0.00000   0.00000   0.00000   0.00000   0.00000   0.00000   0.00000   0.00000   0.00000   0.00000   0.00000   0.00000   0.00000   0.00000   0.00000   0.00000   0.00000   0.00000   0.00000   0.00000   0.00000   0.00000   0.00000   0.00000   0.00000   0.00000   0.00000   0.00000   0.00000   0.00000   0.00000   0.00000   0.00000   0.00000   0.00000   0.00000   0.00000   0.00000   0.00000   0.00000   0.00000   0.00000   0.00000   0.00000   0.00000   0.00000   0.00000   0.00000   0.00000   0.00000   0.00000   0.00000   0.00000   0.00000   0.00000   0.00000   0.00000   0.00000   0.00000   0.00000   0.00000   0.00000   0.00000   0.00000   0.00000   0.00000   0.00000   0.00000   0.00000   0.00000   0.00000   0.00000   0.00000   0.00000   0.00000   0.00000   0.00000   0.00000   0.00000   0.00000   0.00000   0.00000   0.00000   0.00000   0.00000   0.00000   0.00000   0.00000   0.00000   0.00000   0.00000   0.00000
-14.68192   0.00000   0.00000   0.00000   0.00000   0.00000   0.00000   0.00000   0.00000   0.00000   0.00000   0.00000   0.00000   0.00000   0.00000   0.00000   0.00000   0.00000   0.00000  -0.00000  -0.00000  -0.00000  -0.00000  -0.00000  -0.00000  -0.00000  -0.00000  -0.00000  -0.00000  -0.00000  -0.00000  -0.00000  -0.00000  -0.00000  -0.00000  -0.00000  -0.00000  -0.00000  -0.00000  -0.00000  -0.00000  -0.00000  -0.00000   0.00001   0.00000   0.00001   0.00000   0.00001   0.00000   0.00001   0.00000   0.00001   0.00000   0.00001   0.00000   0.00001   0.00000   0.00001   0.00000   0.00000   0.00000   0.00000   0.00000   0.00000   0.00000   0.00000   0.00000   0.00003   0.00000   0.00000   0.00000   0.00003   0.00000   0.00003   0.00000   0.00000   0.00000   0.00000   0.00000   0.00000   0.00000   0.00000   0.00000   0.00001   0.00000   0.00001   0.00000   0.00001   0.00000   0.00001   0.00000   0.00001   0.00000   0.00001   0.00000   0.00001   0.00000   0.00001   0.00000
-14.63181   0.00017   0.00001   0.00001   0.00000   0.00002   0.00000   0.00002   0.00000   0.00002   0.00000   0.00002   0.00000   0.00002   0.00000   0.00002   0.00000   0.00001   0.00000  -0.00012  -0.00001  -0.00012  -0.00001  -0.00012  -0.00001  -0.00013  -0.00001  -0.00013  -0.00001  -0.00013  -0.00001  -0.00012  -0.00001  -0.00012  -0.00001  -0.00012  -0.00001  -0.00013  -0.00001  -0.00013  -0.00001  -0.00013  -0.00001   0.00027   0.00001   0.00028   0.00001   0.00028   0.00001   0.00028   0.00001   0.00028   0.00001   0.00028   0.00001   0.00028   0.00001   0.00027   0.00001   0.00015   0.00001   0.00015   0.00001   0.00015   0.00001   0.00016   0.00001   0.00114   0.00006   0.00016   0.00001   0.00114   0.00006   0.00114   0.00006   0.00016   0.00001   0.00015   0.00001   0.00015   0.00001   0.00015   0.00001   0.00027   0.00001   0.00028   0.00001   0.00028   0.00001   0.00028   0.00001   0.00028   0.00001   0.00028   0.00001   0.00028   0.00001   0.00027   0.00001
-14.58170   0.00053   0.00003   0.00005   0.00000   0.00006   0.00000   0.00006   0.00000   0.00006   0.00000   0.00006   0.00000   0.00006   0.00000   0.00006   0.00000   0.00005   0.00000  -0.00040  -0.00003  -0.00040  -0.00003  -0.00040  -0.00003  -0.00040  -0.00003  -0.00041  -0.00003  -0.00040  -0.00003  -0.00040  -0.00003  -0.00040  -0.00003  -0.00040  -0.00003  -0.00041  -0.00003  -0.00040  -0.00003  -0.00041  -0.00003   0.00086   0.00006   0.00091   0.00006   0.00091   0.00006   0.00091   0.00006   0.00091   0.00006   0.00091   0.00006   0.00091   0.00006   0.00086   0.00006   0.00048   0.00003   0.00048   0.00003   0.00048   0.00003   0.00050   0.00003   0.00365   0.00024   0.00050   0.00003   0.00365   0.00024   0.00365   0.00024   0.00050   0.00003   0.00048   0.00003   0.00047   0.00003   0.00048   0.00003   0.00086   0.00006   0.00091   0.00006   0.00091   0.00006   0.00091   0.00006   0.00091   0.00006   0.00091   0.00006   0.00091   0.00006   0.00086   0.00006
-14.53159   0.00062   0.00007   0.00006   0.00001   0.00008   0.00001   0.00008   0.00001   0.00008   0.00001   0.00008   0.00001   0.00008   0.00001   0.00008   0.00001   0.00006   0.00001  -0.00049  -0.00005  -0.00049  -0.00005  -0.00049  -0.00005  -0.00049  -0.00005  -0.00049  -0.00005  -0.00049  -0.00005  -0.00049  -0.00005  -0.00049  -0.00005  -0.00049  -0.00005  -0.00049  -0.00005  -0.00049  -0.00005  -0.00049  -0.00005   0.00101   0.00011   0.00108   0.00011   0.00108   0.00011   0.00108   0.00011   0.00108   0.00011   0.00108   0.00011   0.00108   0.00011   0.00101   0.00011   0.00056   0.00006   0.00056   0.00006   0.00056   0.00006   0.00060   0.00006   0.00434   0.00046   0.00060   0.00006   0.00434   0.00046   0.00434   0.00046   0.00060   0.00006   0.00056   0.00006   0.00055   0.00006   0.00056   0.00006   0.00101   0.00011   0.00108   0.00011   0.00108   0.00011   0.00108   0.00011   0.00108   0.00011   0.00108   0.00011   0.00108   0.00011   0.00101   0.00011
-14.48148   0.00074   0.00010   0.00007   0.00001   0.00009   0.00001   0.00009   0.00001   0.00009   0.00001   0.00009   0.00001   0.00009   0.00001   0.00009   0.00001   0.00007   0.00001  -0.00059  -0.00008  -0.00059  -0.00008  -0.00059  -0.00008  -0.00059  -0.00008  -0.00059  -0.00008  -0.00059  -0.00008  -0.00059  -0.00008  -0.00059  -0.00008  -0.00059  -0.00008  -0.00059  -0.00008  -0.00059  -0.00008  -0.00059  -0.00008   0.00119   0.00017   0.00130   0.00018   0.00130   0.00018   0.00130   0.00018   0.00130   0.00018   0.00130   0.00018   0.00130   0.00018   0.00119   0.00017   0.00066   0.00009   0.00066   0.00009   0.00066   0.00009   0.00071   0.00010   0.00520   0.00072   0.00071   0.00010   0.00520   0.00072   0.00520   0.00072   0.00071   0.00010   0.00066   0.00009   0.00066   0.00009   0.00066   0.00009   0.00119   0.00017   0.00130   0.00018   0.00130   0.00018   0.00130   0.00018   0.00130   0.00018   0.00130   0.00018   0.00130   0.00018   0.00119   0.00017
-14.43137   0.00090   0.00015   0.00009   0.00001   0.00011   0.00002   0.00011   0.00002   0.00011   0.00002   0.00011   0.00002   0.00011   0.00002   0.00011   0.00002   0.00009   0.00001  -0.00072  -0.00012  -0.00072  -0.00012  -0.00072  -0.00012  -0.00072  -0.00012  -0.00072  -0.00012  -0.00072  -0.00012  -0.00072  -0.00012  -0.00072  -0.00012  -0.00072  -0.00012  -0.00072  -0.00012  -0.00072  -0.00012  -0.00072  -0.00012   0.00144   0.00024   0.00158   0.00026   0.00158   0.00026   0.00158   0.00026   0.00158   0.00026   0.00158   0.00026   0.00158   0.00026   0.00144   0.00024   0.00079   0.00013   0.00080   0.00013   0.00079   0.00013   0.00087   0.00014   0.00634   0.00104   0.00087   0.00014   0.00634   0.00104   0.00634   0.00104   0.00087   0.00014   0.00079   0.00013   0.00079   0.00013   0.00079   0.00013   0.00144   0.00024   0.00158   0.00026   0.00158   0.00026   0.00158   0.00026   0.00158   0.00026   0.00158   0.00026   0.00158   0.00026   0.00144   0.00024
-14.38126   0.00103   0.00020   0.00010   0.00002   0.00013   0.00002   0.00013   0.00002   0.00013   0.00002   0.00013   0.00002   0.00013   0.00002   0.00013   0.00002   0.00010   0.00002  -0.00083  -0.00016  -0.00083  -0.00016  -0.00083  -0.00016  -0.00083  -0.00016  -0.00083  -0.00016  -0.00083  -0.00016  -0.00083  -0.00016  -0.00083  -0.00016  -0.00083  -0.00016  -0.00083  -0.00016  -0.00083  -0.00016  -0.00083  -0.00016   0.00163   0.00032   0.00181   0.00035   0.00181   0.00035   0.00181   0.00035   0.00181   0.00035   0.00181   0.00035   0.00181   0.00035   0.00163   0.00032   0.00090   0.00018   0.00090   0.00018   0.00090   0.00018   0.00099   0.00019   0.00726   0.00140   0.00099   0.00019   0.00726   0.00140   0.00726   0.00140   0.00099   0.00019   0.00090   0.00018   0.00089   0.00018   0.00090   0.00018   0.00163   0.00032   0.00181   0.00035   0.00181   0.00035   0.00181   0.00035   0.00181   0.00035   0.00181   0.00035   0.00181   0.00035   0.00163   0.00032
-14.33115   0.00108   0.00025   0.00011   0.00002   0.00014   0.00003   0.00014   0.00003   0.00014   0.00003   0.00014   0.00003   0.00014   0.00003   0.00014   0.00003   0.00011   0.00002  -0.00088  -0.00020  -0.00088  -0.00020  -0.00088  -0.00020  -0.00088  -0.00020  -0.00088  -0.00020  -0.00088  -0.00020  -0.00088  -0.00020  -0.00088  -0.00020  -0.00088  -0.00020  -0.00088  -0.00020  -0.00088  -0.00020  -0.00088  -0.00020   0.00168   0.00041   0.00190   0.00045   0.00190   0.00045   0.00190   0.00045   0.00190   0.00045   0.00190   0.00045   0.00190   0.00045   0.00168   0.00041   0.00092   0.00022   0.00093   0.00022   0.00092   0.00022   0.00104   0.00024   0.00765   0.00178   0.00104   0.00024   0.00765   0.00178   0.00765   0.00178   0.00104   0.00024   0.00093   0.00022   0.00092   0.00022   0.00093   0.00022   0.00168   0.00041   0.00190   0.00045   0.00190   0.00045   0.00190   0.00045   0.00190   0.00045   0.00190   0.00045   0.00190   0.00045   0.00168   0.00041
-14.28105   0.00114   0.00031   0.00012   0.00003   0.00015   0.00004   0.00015   0.00004   0.00015   0.00004   0.00015   0.00004   0.00015   0.00004   0.00015   0.00004   0.00012   0.00003  -0.00094  -0.00025  -0.00094  -0.00025  -0.00094  -0.00025  -0.00094  -0.00025  -0.00094  -0.00025  -0.00094  -0.00025  -0.00094  -0.00025  -0.00094  -0.00025  -0.00094  -0.00025  -0.00094  -0.00025  -0.00094  -0.00025  -0.00094  -0.00025   0.00176   0.00049   0.00202   0.00055   0.00202   0.00055   0.00202   0.00055   0.00202   0.00055   0.00202   0.00055   0.00202   0.00055   0.00176   0.00049   0.00097   0.00027   0.00098   0.00027   0.00097   0.00027   0.00111   0.00030   0.00816   0.00219   0.00111   0.00030   0.00816   0.00219   0.00816   0.00219   0.00111   0.00030   0.00097   0.00027   0.00096   0.00027   0.00097   0.00027   0.00176   0.00049   0.00202   0.00055   0.00202   0.00055   0.00202   0.00055   0.00202   0.00055   0.00202   0.00055   0.00202   0.00055   0.00176   0.00049
-14.23094   0.00123   0.00037   0.00013   0.00004   0.00016   0.00005   0.00016   0.00005   0.00016   0.00005   0.00016   0.00005   0.00016   0.00005   0.00016   0.00005   0.00013   0.00004  -0.00102  -0.00030  -0.00102  -0.00030  -0.00102  -0.00030  -0.00102  -0.00030  -0.00102  -0.00030  -0.00102  -0.00030  -0.00102  -0.00030  -0.00102  -0.00030  -0.00102  -0.00030  -0.00102  -0.00030  -0.00102  -0.00030  -0.00102  -0.00030   0.00188   0.00059   0.00218   0.00066   0.00218   0.00066   0.00218   0.00066   0.00218   0.00066   0.00218   0.00066   0.00218   0.00066   0.00188   0.00059   0.00103   0.00032   0.00104   0.00033   0.00103   0.00032   0.00119   0.00036   0.00881   0.00263   0.00119   0.00036   0.00881   0.00263   0.00881   0.00263   0.00119   0.00036   0.00103   0.00032   0.00103   0.00032   0.00103   0.00032   0.00188   0.00059   0.00218   0.00066   0.00218   0.00066   0.00218   0.00066   0.00218   0.00066   0.00218   0.00066   0.00218   0.00066   0.00188   0.00059
-14.18083   0.00131   0.00044   0.00014   0.00004   0.00017   0.00006   0.00017   0.00006   0.00017   0.00006   0.00017   0.00006   0.00017   0.00006   0.00017   0.00006   0.00014   0.00004  -0.00110  -0.00035  -0.00110  -0.00036  -0.00110  -0.00035  -0.00110  -0.00036  -0.00110  -0.00036  -0.00110  -0.00036  -0.00110  -0.00035  -0.00110  -0.00035  -0.00110  -0.00035  -0.00110  -0.00036  -0.00110  -0.00036  -0.00110  -0.00036   0.00199   0.00069   0.00234   0.00077   0.00234   0.00077   0.00234   0.00077   0.00234   0.00077   0.00234   0.00077   0.00234   0.00077   0.00199   0.00069   0.00109   0.00038   0.00110   0.00038   0.00109   0.00038   0.00128   0.00042   0.00947   0.00311   0.00128   0.00042   0.00947   0.00311   0.00947   0.00311   0.00128   0.00042   0.00110   0.00038   0.00109   0.00038   0.00110   0.00038   0.00199   0.00069   0.00234   0.00077   0.00234   0.00077   0.00234   0.00077   0.00234   0.00077   0.00234   0.00077   0.00234   0.00077   0.00199   0.00069
-14.13072   0.00140   0.00051   0.00015   0.00005   0.00019   0.00007   0.00019   0.00007   0.00019   0.00007   0.00019   0.00007   0.00019   0.00007   0.00019   0.00007   0.00015   0.00005  -0.00118  -0.00041  -0.00118  -0.00041  -0.00118  -0.00041  -0.00118  -0.00041  -0.00118  -0.00041  -0.00118  -0.00041  -0.00118  -0.00041  -0.00118  -0.00041  -0.00118  -0.00041  -0.00118  -0.00041  -0.00118  -0.00041  -0.00118  -0.00041   0.00211   0.00079   0.00251   0.00090   0.00251   0.00090   0.00251   0.00090   0.00251   0.00090   0.00251   0.00090   0.00251   0.00090   0.00211   0.00079   0.00115   0.00044   0.00116   0.00044   0.00115   0.00044   0.00137   0.00049   0.01016   0.00362   0.00137   0.00049   0.01016   0.00362   0.01016   0.00362   0.00137   0.00049   0.00116   0.00044   0.00115   0.00043   0.00116   0.00044   0.00211   0.00079   0.00251   0.00090   0.00251   0.00090   0.00251   0.00090   0.00251   0.00090   0.00251   0.00090   0.00251   0.00090   0.00211   0.00079
-14.08061   0.00149   0.00058   0.00016   0.00006   0.00020   0.00008   0.00020   0.00008   0.00020   0.00008   0.00020   0.00008   0.00020   0.00008   0.00020   0.00008   0.00016   0.00006  -0.00126  -0.00048  -0.00126  -0.00048  -0.00126  -0.00048  -0.00126  -0.00048  -0.00126  -0.00048  -0.00126  -0.00048  -0.00126  -0.00048  -0.00126  -0.00048  -0.00126  -0.00048  -0.00126  -0.00048  -0.00126  -0.00048  -0.00126  -0.00048   0.00221   0.00090   0.00268   0.00103   0.00268   0.00103   0.00268   0.00103   0.00268   0.00103   0.00268   0.00103   0.00268   0.00103   0.00221   0.00090   0.00121   0.00050   0.00122   0.00050   0.00121   0.00050   0.00146   0.00057   0.01086   0.00416   0.00146   0.00057   0.01086   0.00416   0.01086   0.00416   0.00146   0.00057   0.00122   0.00050   0.00121   0.00050   0.00122   0.00050   0.00221   0.00090   0.00268   0.00103   0.00268   0.00103   0.00268   0.00103   0.00268   0.00103   0.00268   0.00103   0.00268   0.00103   0.00221   0.00090
-14.03050   0.00154   0.00066   0.00017   0.00007   0.00020   0.00009   0.00020   0.00009   0.00020   0.00009   0.00020   0.00009   0.00020   0.00009   0.00020   0.00009   0.00017   0.00007  -0.00131  -0.00054  -0.00132  -0.00054  -0.00131  -0.00054  -0.00131  -0.00054  -0.00131  -0.00054  -0.00131  -0.00054  -0.00131  -0.00054  -0.00131  -0.00054  -0.00131  -0.00054  -0.00131  -0.00054  -0.00132  -0.00054  -0.00131  -0.00054   0.00225   0.00102   0.00278   0.00117   0.00278   0.00117   0.00278   0.00117   0.00278   0.00117   0.00278   0.00117   0.00278   0.00117   0.00225   0.00102   0.00123   0.00056   0.00124   0.00056   0.00123   0.00056   0.00150   0.00064   0.01129   0.00473   0.00150   0.00064   0.01128   0.00473   0.01129   0.00473   0.00150   0.00064   0.00123   0.00056   0.00123   0.00056   0.00123   0.00056   0.00225   0.00102   0.00278   0.00117   0.00278   0.00117   0.00278   0.00117   0.00278   0.00117   0.00278   0.00117   0.00278   0.00117   0.00225   0.00102
-13.98039   0.00159   0.00074   0.00018   0.00008   0.00021   0.00010   0.00021   0.00010   0.00021   0.00010   0.00021   0.00010   0.00021   0.00010   0.00021   0.00010   0.00018   0.00008  -0.00137  -0.00061  -0.00137  -0.00061  -0.00137  -0.00061  -0.00137  -0.00061  -0.00137  -0.00061  -0.00137  -0.00061  -0.00137  -0.00061  -0.00137  -0.00061  -0.00137  -0.00061  -0.00137  -0.00061  -0.00137  -0.00061  -0.00137  -0.00061   0.00229   0.00113   0.00288   0.00132   0.00288   0.00132   0.00288   0.00132   0.00288   0.00132   0.00288   0.00132   0.00288   0.00132   0.00229   0.00113   0.00125   0.00062   0.00126   0.00063   0.00125   0.00062   0.00156   0.00072   0.01175   0.00532   0.00156   0.00072   0.01175   0.00532   0.01175   0.00532   0.00156   0.00072   0.00126   0.00062   0.00125   0.00062   0.00126   0.00062   0.00229   0.00113   0.00288   0.00132   0.00288   0.00132   0.00288   0.00132   0.00288   0.00132   0.00288   0.00132   0.00288   0.00132   0.00229   0.00113
-13.93028   0.00165   0.00082   0.00019   0.00009   0.00022   0.00011   0.00022   0.00011   0.00022   0.00011   0.00022   0.00011   0.00022   0.00011   0.00022   0.00011   0.00019   0.00009  -0.00142  -0.00068  -0.00143  -0.00068  -0.00142  -0.00068  -0.00143  -0.00068  -0.00142  -0.00068  -0.00143  -0.00068  -0.00143  -0.00068  -0.00142  -0.00068  -0.00143  -0.00068  -0.00142  -0.00068  -0.00143  -0.00068  -0.00142  -0.00068   0.00234   0.00125   0.00299   0.00147   0.00299   0.00147   0.00299   0.00147   0.00299   0.00147   0.00299   0.00147   0.00299   0.00147   0.00234   0.00125   0.00128   0.00068   0.00129   0.00069   0.00128   0.00068   0.00161   0.00080   0.01223   0.00593   0.00161   0.00080   0.01223   0.00593   0.01223   0.00593   0.00161   0.00080   0.00128   0.00069   0.00127   0.00068   0.00128   0.00069   0.00234   0.00125   0.00299   0.00147   0.00299   0.00147   0.00299   0.00147   0.00299   0.00147   0.00299   0.00147   0.00299   0.00147   0.00234   0.00125
-13.88017   0.00170   0.00091   0.00020   0.00010   0.00022   0.00012   0.00022   0.00012   0.00022   0.00012   0.00022   0.00012   0.00022   0.00012   0.00022   0.00012   0.00020   0.00010  -0.00148  -0.00076  -0.00148  -0.00076  -0.00148  -0.00076  -0.00148  -0.00076  -0.00148  -0.00076  -0.00148  -0.00076  -0.00148  -0.00076  -0.00148  -0.00076  -0.00148  -0.00076  -0.00148  -0.00076  -0.00148  -0.00076  -0.00148  -0.00076   0.00238   0.00137   0.00310   0.00162   0.00310   0.00162   0.00310   0.00162   0.00310   0.00162   0.00310   0.00162   0.00310   0.00162   0.00238   0.00137   0.00130   0.00075   0.00131   0.00076   0.00130   0.00075   0.00166   0.00088   0.01270   0.00656   0.00166   0.00088   0.01270   0.00656   0.01270   0.00656   0.00166   0.00088   0.00131   0.00075   0.00129   0.00075   0.00131   0.00075   0.00238   0.00137   0.00310   0.00162   0.00310   0.00162   0.00310   0.00162   0.00310   0.00162   0.00310   0.00162   0.00310   0.00162   0.00238   0.00137
-13.83007   0.00176   0.00100   0.00021   0.00011   0.00023   0.00013   0.00023   0.00013   0.00023   0.00013   0.00023   0.00013   0.00023   0.00013   0.00023   0.00013   0.00021   0.00011  -0.00154  -0.00083  -0.00154  -0.00084  -0.00154  -0.00083  -0.00154  -0.00083  -0.00154  -0.00083  -0.00154  -0.00083  -0.00154  -0.00083  -0.00154  -0.00083  -0.00154  -0.00083  -0.00154  -0.00083  -0.00154  -0.00084  -0.00154  -0.00083   0.00243   0.00149   0.00323   0.00178   0.00323   0.00178   0.00323   0.00178   0.00323   0.00178   0.00323   0.00178   0.00323   0.00178   0.00243   0.00149   0.00132   0.00082   0.00134   0.00082   0.00132   0.00082   0.00173   0.00097   0.01325   0.00723   0.00173   0.00097   0.01325   0.00723   0.01325   0.00723   0.00173   0.00097   0.00133   0.00082   0.00132   0.00081   0.00133   0.00082   0.00243   0.00149   0.00323   0.00178   0.00323   0.00178   0.00323   0.00178   0.00323   0.00178   0.00323   0.00178   0.00323   0.00178   0.00243   0.00149
-13.77996   0.00183   0.00109   0.00022   0.00012   0.00024   0.00014   0.00024   0.00014   0.00024   0.00014   0.00024   0.00014   0.00024   0.00014   0.00024   0.00014   0.00022   0.00012  -0.00160  -0.00091  -0.00161  -0.00092  -0.00160  -0.00091  -0.00160  -0.00092  -0.00160  -0.00091  -0.00160  -0.00092  -0.00160  -0.00092  -0.00160  -0.00091  -0.00160  -0.00092  -0.00160  -0.00091  -0.00160  -0.00092  -0.00160  -0.00091   0.00249   0.00161   0.00336   0.00195   0.00336   0.00195   0.00336   0.00195   0.00336   0.00195   0.00336   0.00195   0.00336   0.00195   0.00249   0.00161   0.00135   0.00088   0.00136   0.00089   0.00135   0.00088   0.00180   0.00106   0.01384   0.00792   0.00180   0.00106   0.01384   0.00792   0.01384   0.00792   0.00180   0.00106   0.00136   0.00089   0.00135   0.00088   0.00136   0.00089   0.00249   0.00161   0.00336   0.00195   0.00336   0.00195   0.00336   0.00195   0.00336   0.00195   0.00336   0.00195   0.00336   0.00195   0.00249   0.00161
-13.72985   0.00191   0.00118   0.00023   0.00013   0.00024   0.00015   0.00024   0.00015   0.00024   0.00015   0.00024   0.00015   0.00024   0.00015   0.00024   0.00015   0.00023   0.00013  -0.00167  -0.00100  -0.00167  -0.00100  -0.00167  -0.00100  -0.00167  -0.00100  -0.00167  -0.00100  -0.00167  -0.00100  -0.00167  -0.00100  -0.00167  -0.00100  -0.00167  -0.00100  -0.00167  -0.00100  -0.00167  -0.00100  -0.00167  -0.00100   0.00255   0.00174   0.00351   0.00213   0.00351   0.00213   0.00351   0.00213   0.00351   0.00213   0.00351   0.00213   0.00351   0.00213   0.00255   0.00174   0.00138   0.00095   0.00139   0.00096   0.00138   0.00095   0.00187   0.00115   0.01446   0.00865   0.00187   0.00115   0.01446   0.00865   0.01446   0.00865   0.00187   0.00115   0.00139   0.00096   0.00138   0.00095   0.00139   0.00096   0.00255   0.00174   0.00351   0.00213   0.00351   0.00213   0.00351   0.00213   0.00351   0.00213   0.00351   0.00213   0.00351   0.00213   0.00255   0.00174
-13.67974   0.00198   0.00128   0.00024   0.00014   0.00025   0.00017   0.00025   0.00017   0.00025   0.00017   0.00025   0.00017   0.00025   0.00017   0.00025   0.00017   0.00024   0.00014  -0.00173  -0.00108  -0.00174  -0.00109  -0.00173  -0.00108  -0.00173  -0.00109  -0.00173  -0.00108  -0.00173  -0.00109  -0.00173  -0.00109  -0.00173  -0.00108  -0.00173  -0.00109  -0.00173  -0.00108  -0.00174  -0.00109  -0.00173  -0.00108   0.00260   0.00187   0.00365   0.00231   0.00365   0.00231   0.00365   0.00231   0.00365   0.00231   0.00365   0.00231   0.00365   0.00231   0.00260   0.00187   0.00141   0.00102   0.00142   0.00103   0.00141   0.00102   0.00194   0.00125   0.01508   0.00940   0.00194   0.00125   0.01508   0.00940   0.01508   0.00940   0.00194   0.00125   0.00142   0.00103   0.00141   0.00102   0.00142   0.00103   0.00260   0.00187   0.00365   0.00231   0.00365   0.00231   0.00365   0.00231   0.00365   0.00231   0.00365   0.00231   0.00365   0.00231   0.00260   0.00187