   3    3    1    1
  2.3522611e+01   2.9963302e-10   2.9963302e-10   3.0253494e-10   5.0000000e-16
            1.000000e-04
  CAR
 DOS and projected DOS file by LOBSTER. Energy is shifted such that the Fermi level lies at 0 eV. 
     17.02233687      -6.02777206   461       9.00490768       1.00000000
-15.03268   0.00000   0.00000
-14.98257   0.00000   0.00000
-14.93246   0.00000   0.00000
-14.88235   0.00000   0.00000
-14.83224   0.00000   0.00000
-14.78214   0.00000   0.00000
-14.73203   0.00000   0.00000
-14.68192   0.00042   0.00002
-14.63181   0.01701   0.00087
-14.58170   0.05464   0.00361
-14.53159   0.06487   0.00686
-14.48148   0.07779   0.01076
-14.43137   0.09474   0.01551
-14.38126   0.10856   0.02095
-14.33115   0.11422   0.02667
-14.28105   0.12170   0.03277
-14.23094   0.13133   0.03935
-14.18083   0.14106   0.04642
-14.13072   0.15127   0.05400
-14.08061   0.16151   0.06209
-14.03050   0.16761   0.07049
-13.98039   0.17431   0.07922
-13.93028   0.18107   0.08830
-13.88017   0.18776   0.09771
-13.83007   0.19556   0.10751
-13.77996   0.20407   0.11773
-13.72985   0.21284   0.12840
-13.67974   0.22163   0.13950
-13.62963   0.22883   0.15097
-13.57952   0.23460   0.16272
-13.52941   0.24125   0.17481
-13.47930   0.24854   0.18727
-13.42919   0.25600   0.20009
-13.37908   0.26367   0.21331
-13.32898   0.27141   0.22691
-13.27887   0.27935   0.24090
-13.22876   0.28743   0.25531
-13.17865   0.29632   0.27016
-13.12854   0.30583   0.28548
-13.07843   0.31448   0.30124
-13.02832   0.32289   0.31742
-12.97821   0.33136   0.33402
-12.92810   0.33979   0.35105
-12.87800   0.34857   0.36852
-12.82789   0.35779   0.38644
-12.77778   0.36830   0.40490
-12.72767   0.38159   0.42402
-12.67756   0.39636   0.44388
-12.62745   0.41150   0.46450
-12.57734   0.42717   0.48591
-12.52723   0.44287   0.50810
-12.47712   0.46003   0.53115
-12.42702   0.51415   0.55691
-12.37691   0.51685   0.58281
-12.32680   0.52417   0.60908
-12.27669   0.52054   0.63516
-12.22658   0.52329   0.66138
-12.17647   0.52591   0.68774
-12.12636   0.52514   0.71405
-12.07625   0.52787   0.74050
-12.02614   0.53096   0.76711
-11.97603   0.53394   0.79386
-11.92593   0.53576   0.82071
-11.87582   0.53531   0.84753
-11.82571   0.53825   0.87450
-11.77560   0.54169   0.90165
-11.72549   0.54486   0.92895
-11.67538   0.54737   0.95638
-11.62527   0.54902   0.98389
-11.57516   0.54973   1.01143
-11.52505   0.55223   1.03911
-11.47495   0.55582   1.06696
-11.42484   0.55963   1.09500
-11.37473   0.56358   1.12324
-11.32462   0.56739   1.15167
-11.27451   0.57101   1.18028
-11.22440   0.57390   1.20904
-11.17429   0.57884   1.23805
-11.12418   0.58509   1.26736
-11.07407   0.59284   1.29707
-11.02397   0.60125   1.32720
-10.97386   0.61052   1.35779
-10.92375   0.62152   1.38894
-10.87364   0.64380   1.42120
-10.82353   0.66409   1.45447
-10.77342   0.68707   1.48890
-10.72331   0.71793   1.52488
-10.67320   0.78019   1.56397
-10.62309   0.89747   1.60894
-10.57298   0.96147   1.65712
-10.52288   0.82103   1.69826
-10.47277   0.81165   1.73893
-10.42266   0.73987   1.77601
-10.37255   0.50247   1.80118
-10.32244   0.44479   1.82347
-10.27233   0.41109   1.84407
-10.22222   0.38245   1.86324
-10.17211   0.35595   1.88107
-10.12200   0.33560   1.89789
-10.07190   0.40917   1.91839
-10.02179   0.51136   1.94401
 -9.97168   0.37462   1.96279
 -9.92157   0.29625   1.97763
 -9.87146   0.26171   1.99075
 -9.82135   0.26100   2.00382
 -9.77124   0.27722   2.01771
 -9.72113   0.30361   2.03293
 -9.67102   0.30052   2.04799
 -9.62092   0.27906   2.06197
 -9.57081   0.26727   2.07536
 -9.52070   0.26730   2.08876
 -9.47059   0.26665   2.10212
 -9.42048   0.26332   2.11531
 -9.37037   0.29654   2.13017
 -9.32026   0.36260   2.14834
 -9.27015   0.43010   2.16989
 -9.22004   0.49811   2.19485
 -9.16993   0.54477   2.22215
 -9.11983   0.51921   2.24817
 -9.06972   0.52275   2.27436
 -9.01961   0.52727   2.30078
 -8.96950   0.55189   2.32844
 -8.91939   0.56434   2.35672
 -8.86928   0.58992   2.38628
 -8.81917   0.58662   2.41567
 -8.76906   0.57964   2.44472
 -8.71895   0.58104   2.47383
 -8.66885   0.60052   2.50393
 -8.61874   0.63151   2.53557
 -8.56863   0.64039   2.56766
 -8.51852   0.64618   2.60004
 -8.46841   0.64727   2.63247
 -8.41830   0.67860   2.66648
 -8.36819   0.63911   2.69850
 -8.31808   0.63378   2.73026
 -8.26797   0.60253   2.76045
 -8.21786   0.59569   2.79030
 -8.16776   0.58977   2.81985
 -8.11765   0.58542   2.84919
 -8.06754   0.58526   2.87851
 -8.01743   0.58161   2.90766
 -7.96732   0.57380   2.93641
 -7.91721   0.57177   2.96506
 -7.86710   0.57254   2.99375
 -7.81699   0.57552   3.02259
 -7.76688   0.57921   3.05161
 -7.71678   0.58311   3.08083
 -7.66667   0.58714   3.11025
 -7.61656   0.59302   3.13997
 -7.56645   0.59900   3.16998
 -7.51634   0.60445   3.20027
 -7.46623   0.61265   3.23097
 -7.41612   0.61929   3.26200
 -7.36601   0.62559   3.29335
 -7.31590   0.63314   3.32508
 -7.26580   0.64162   3.35723
 -7.21569   0.65305   3.38995
 -7.16558   0.66936   3.42349
 -7.11547   0.69311   3.45822
 -7.06536   0.72899   3.49475
 -7.01525   0.77723   3.53370
 -6.96514   0.83579   3.57558
 -6.91503   0.89595   3.62048
 -6.86492   0.92798   3.66698
 -6.81481   0.83166   3.70865
 -6.76471   0.76881   3.74717
 -6.71460   0.73406   3.78396
 -6.66449   0.73261   3.82067
 -6.61438   0.75018   3.85826
 -6.56427   0.78691   3.89769
 -6.51416   0.76525   3.93603
 -6.46405   0.76201   3.97422
 -6.41394   0.76643   4.01262
 -6.36383   0.77581   4.05150
 -6.31373   0.81743   4.09246
 -6.26362   0.85715   4.13541
 -6.21351   0.94708   4.18287
 -6.16340   1.22323   4.24416
 -6.11329   1.32940   4.31078
 -6.06318   1.19730   4.37077
 -6.01307   1.14101   4.42795
 -5.96296   1.10569   4.48335
 -5.91285   1.08513   4.53773
 -5.86275   1.06069   4.59088
 -5.81264   1.05459   4.64372
 -5.76253   1.10602   4.69914
 -5.71242   1.12880   4.75570
 -5.66231   1.05901   4.80877
 -5.61220   1.01307   4.85953
 -5.56209   1.06317   4.91281
 -5.51198   1.19436   4.97266
 -5.46187   1.24456   5.03502
 -5.41176   1.24971   5.09764
 -5.36166   1.23959   5.15976
 -5.31155   1.23821   5.22180
 -5.26144   1.23674   5.28377
 -5.21133   1.23711   5.34576
 -5.16122   1.25093   5.40845
 -5.11111   1.26543   5.47185
 -5.06100   1.27797   5.53589
 -5.01089   1.29885   5.60098
 -4.96078   1.33035   5.66764
 -4.91068   1.35369   5.73547
 -4.86057   1.36761   5.80400
 -4.81046   1.41311   5.87481
 -4.76035   1.39373   5.94465
 -4.71024   1.40286   6.01494
 -4.66013   1.41217   6.08571
 -4.61002   1.42462   6.15709
 -4.55991   1.44246   6.22937
 -4.50980   1.44030   6.30154
 -4.45969   1.49838   6.37663
 -4.40959   1.50264   6.45192
 -4.35948   1.51402   6.52779
 -4.30937   1.51804   6.60386
 -4.25926   1.62206   6.68514
 -4.20915   1.87657   6.77917
 -4.15904   1.89315   6.87403
 -4.10893   1.85442   6.96695
 -4.05882   1.82347   7.05833
 -4.00871   1.87367   7.15221
 -3.95861   1.88947   7.24689
 -3.90850   1.92138   7.34317
 -3.85839   2.08023   7.44741
 -3.80828   2.03673   7.54947
 -3.75817   2.09972   7.65468
 -3.70806   2.08674   7.75925
 -3.65795   2.15437   7.86720
 -3.60784   1.84731   7.95977
 -3.55773   1.71515   8.04571
 -3.50763   1.59938   8.12586
 -3.45752   1.44529   8.19828
 -3.40741   1.29633   8.26324
 -3.35730   1.24481   8.32561
 -3.30719   1.18364   8.38492
 -3.25708   1.14524   8.44231
 -3.20697   1.11379   8.49812
 -3.15686   1.08372   8.55242
 -3.10675   1.05541   8.60531
 -3.05664   1.00747   8.65579
 -3.00654   0.95442   8.70362
 -2.95643   0.95184   8.75131
 -2.90632   0.96045   8.79944
 -2.85621   0.97463   8.84828
 -2.80610   0.98699   8.89774
 -2.75599   0.98994   8.94734
 -2.70588   0.98863   8.99688
 -2.65577   0.97797   9.04588
 -2.60566   0.96612   9.09430
 -2.55556   0.95502   9.14215
 -2.50545   0.94540   9.18952
 -2.45534   0.93404   9.23633
 -2.40523   0.91970   9.28241
 -2.35512   0.90243   9.32763
 -2.30501   0.88443   9.37195
 -2.25490   0.86672   9.41538
 -2.20479   0.84694   9.45782
 -2.15468   0.82995   9.49941
 -2.10458   0.81441   9.54022
 -2.05447   0.80023   9.58032
 -2.00436   0.78012   9.61941
 -1.95425   0.75727   9.65735
 -1.90414   0.72434   9.69365
 -1.85403   0.69529   9.72849
 -1.80392   0.66612   9.76187
 -1.75381   0.59766   9.79182
 -1.70370   0.55348   9.81955
 -1.65359   0.52134   9.84567
 -1.60349   0.48504   9.86998
 -1.55338   0.43952   9.89200
 -1.50327   0.39154   9.91162
 -1.45316   0.35199   9.92926
 -1.40305   0.32486   9.94554
 -1.35294   0.31396   9.96127
 -1.30283   0.31349   9.97698
 -1.25272   0.21500   9.98775
 -1.20261   0.20389   9.99797
 -1.15251   0.18748  10.00736
 -1.10240   0.19078  10.01692
 -1.05229   0.26010  10.02996
 -1.00218   0.36633  10.04831
 -0.95207   0.54331  10.07554
 -0.90196   0.64700  10.10796
 -0.85185   0.69264  10.14267
 -0.80174   0.72744  10.17912
 -0.75163   0.76783  10.21759
 -0.70153   0.81230  10.25830
 -0.65142   0.85397  10.30109
 -0.60131   0.88722  10.34554
 -0.55120   0.90970  10.39113
 -0.50109   0.93347  10.43790
 -0.45098   0.96409  10.48621
 -0.40087   0.99665  10.53615
 -0.35076   1.02182  10.58736
 -0.30065   1.04697  10.63982
 -0.25054   1.06945  10.69341
 -0.20044   1.09777  10.74842
 -0.15033   1.14283  10.80568
 -0.10022   1.22699  10.86717
 -0.05011   1.30269  10.93244
  0.00000   1.33615  10.99940
  0.05011   1.33672  11.06638
  0.10022   1.26871  11.12995
  0.15033   1.16698  11.18843
  0.20044   1.16303  11.24671
  0.25054   1.21890  11.30778
  0.30065   1.28562  11.37221
  0.35076   1.33074  11.43889
  0.40087   1.34599  11.50633
  0.45098   1.41324  11.57715
  0.50109   1.54515  11.65457
  0.55120   1.63769  11.73664
  0.60131   1.74871  11.82426
  0.65142   1.90343  11.91964
  0.70153   2.06905  12.02332
  0.75163   2.29737  12.13844
  0.80174   2.64364  12.27091
  0.85185   2.88140  12.41529
  0.90196   2.95819  12.56353
  0.95207   3.25848  12.72680
  1.00218   3.95707  12.92509
  1.05229   4.36873  13.14400
  1.10240   4.47808  13.36839
  1.15251   4.45390  13.59157
  1.20261   3.77773  13.78087
  1.25272   2.95189  13.92879
  1.30283   2.93492  14.07585
  1.35294   3.38999  14.24572
  1.40305   3.96217  14.44426
  1.45316   2.87376  14.58826
  1.50327   1.81533  14.67923
  1.55338   1.53341  14.75606
  1.60349   1.37929  14.82518
  1.65359   1.34147  14.89240
  1.70370   1.34806  14.95995
  1.75381   1.39011  15.02960
  1.80392   1.47345  15.10344
  1.85403   1.62851  15.18504
  1.90414   1.76825  15.27365
  1.95425   1.77460  15.36257
  2.00436   1.80121  15.45283
  2.05447   1.73104  15.53957
  2.10458   1.62850  15.62117
  2.15468   1.65809  15.70425
  2.20479   1.70571  15.78972
  2.25490   1.56153  15.86797
  2.30501   1.41243  15.93875
  2.35512   1.37483  16.00764
  2.40523   1.30843  16.07320
  2.45534   1.26587  16.13663
  2.50545   1.21804  16.19767
  2.55556   1.17926  16.25676
  2.60566   1.12578  16.31317
  2.65577   1.09637  16.36811
  2.70588   1.07236  16.42184
  2.75599   1.04167  16.47404
  2.80610   1.02790  16.52555
  2.85621   1.09564  16.58045
  2.90632   0.97861  16.62949
  2.95643   0.93377  16.67628
  3.00654   0.88920  16.72083
  3.05664   0.87728  16.76479
  3.10675   0.87442  16.80861
  3.15686   0.88587  16.85300
  3.20697   1.00470  16.90334
  3.25708   1.23896  16.96543
  3.30719   1.38603  17.03488
  3.35730   1.75198  17.12267
  3.40741   2.50977  17.24843
  3.45752   1.62455  17.32984
  3.50763   1.31989  17.39597
  3.55773   1.23119  17.45767
  3.60784   1.11740  17.51366
  3.65795   0.94255  17.56089
  3.70806   0.75872  17.59891
  3.75817   0.64511  17.63123
  3.80828   0.58921  17.66076
  3.85839   0.54650  17.68814
  3.90850   0.54813  17.71561
  3.95861   0.56057  17.74370
  4.00871   0.59399  17.77346
  4.05882   0.63468  17.80527
  4.10893   0.75315  17.84300
  4.15904   0.82577  17.88438
  4.20915   0.83490  17.92622
  4.25926   0.83040  17.96783
  4.30937   0.80947  18.00839
  4.35948   0.83188  18.05008
  4.40959   0.80339  18.09033
  4.45969   0.77632  18.12923
  4.50980   0.74386  18.16651
  4.55991   0.72614  18.20289
  4.61002   0.70901  18.23842
  4.66013   0.69567  18.27328
  4.71024   0.68438  18.30757
  4.76035   0.67618  18.34146
  4.81046   0.66916  18.37499
  4.86057   0.66385  18.40825
  4.91068   0.66005  18.44133
  4.96078   0.65729  18.47426
  5.01089   0.65586  18.50713
  5.06100   0.65072  18.53973
  5.11111   0.64717  18.57216
  5.16122   0.64794  18.60463
  5.21133   0.65093  18.63725
  5.26144   0.65523  18.67008
  5.31155   0.66135  18.70322
  5.36166   0.67679  18.73713
  5.41176   0.68658  18.77154
  5.46187   0.69531  18.80638
  5.51198   0.70426  18.84167
  5.56209   0.71424  18.87746
  5.61220   0.72594  18.91383
  5.66231   0.73744  18.95079
  5.71242   0.75065  18.98840
  5.76253   0.76447  19.02671
  5.81264   0.77887  19.06574
  5.86275   0.79284  19.10546
  5.91285   0.80467  19.14579
  5.96296   0.81940  19.18685
  6.01307   0.89352  19.23162
  6.06318   1.01270  19.28236
  6.11329   1.10545  19.33776
  6.16340   1.17777  19.39677
  6.21351   1.17543  19.45567
  6.26362   1.17505  19.51455
  6.31373   1.19775  19.57457
  6.36383   1.23893  19.63665
  6.41394   1.30657  19.70212
  6.46405   1.45426  19.77500
  6.51416   1.74921  19.86265
  6.56427   1.31135  19.92836
  6.61438   1.04412  19.98068
  6.66449   0.97591  20.02958
  6.71460   0.90904  20.07513
  6.76471   0.84757  20.11760
  6.81481   0.72709  20.15403
  6.86492   0.65162  20.18669
  6.91503   0.63045  20.21828
  6.96514   0.61711  20.24920
  7.01525   0.61145  20.27984
  7.06536   0.62189  20.31100
  7.11547   0.64705  20.34343
  7.16558   0.68505  20.37775
  7.21569   0.76348  20.41601
  7.26580   0.89955  20.46108
  7.31590   1.09882  20.51615
  7.36601   1.31313  20.58195
  7.41612   1.49375  20.65680
  7.46623   1.70753  20.74236
  7.51634   1.77387  20.83124
  7.56645   1.66967  20.91491
  7.61656   1.54435  20.99230
  7.66667   1.50244  21.06758
  7.71678   1.46475  21.14098
  7.76688   1.43192  21.21273
  7.81699   1.42411  21.28409
  7.86710   1.26007  21.34723
  7.91721   1.14343  21.40453
  7.96732   1.06476  21.45788
  8.01743   0.99740  21.50786
      8.01742919     -15.03267974   461       9.00490768       1.00000000; Z= 23; 4s 3p_y 3p_z 3p_x 3d_xy 3d_yz 3d_z^2 3d_xz 3d_x^2-y^2 
-15.03268   0.00000   0.00000   0.00000   0.00000   0.00000   0.00000   0.00000   0.00000   0.00000
-14.98257   0.00000   0.00000   0.00000   0.00000   0.00000   0.00000   0.00000   0.00000   0.00000
-14.93246   0.00000   0.00000   0.00000   0.00000   0.00000   0.00000   0.00000   0.00000   0.00000
-14.88235   0.00000   0.00000   0.00000   0.00000   0.00000   0.00000   0.00000   0.00000   0.00000
-14.83224   0.00000   0.00000   0.00000   0.00000   0.00000   0.00000   0.00000   0.00000   0.00000
-14.78214   0.00000   0.00000   0.00000   0.00000   0.00000   0.00000   0.00000   0.00000   0.00000
-14.73203   0.00000   0.00000   0.00000   0.00000   0.00000   0.00000   0.00000   0.00000   0.00000
-14.68192  -0.00006   0.00000  -0.00000   0.00000   0.00000   0.00000   0.00000   0.00000   0.00000
-14.63181  -0.00244   0.00000  -0.00000   0.00000   0.00000   0.00000   0.00007   0.00000   0.00000
-14.58170  -0.00775   0.00000  -0.00001   0.00000   0.00000   0.00000   0.00022   0.00000   0.00000
-14.53159  -0.00904   0.00000  -0.00003   0.00000   0.00000   0.00000   0.00026   0.00000   0.00000
-14.48148  -0.01066   0.00001  -0.00004   0.00001   0.00000   0.00000   0.00032   0.00000   0.00000
-14.43137  -0.01282   0.00001  -0.00006   0.00001   0.00000   0.00001   0.00039   0.00001   0.00000
-14.38126  -0.01448   0.00001  -0.00008   0.00001   0.00001   0.00001   0.00044   0.00001   0.00001
-14.33115  -0.01487   0.00001  -0.00009   0.00001   0.00001   0.00002   0.00047   0.00002   0.00001
-14.28105  -0.01550   0.00002  -0.00011   0.00002   0.00001   0.00003   0.00051   0.00003   0.00001
-14.23094  -0.01644   0.00002  -0.00013   0.00002   0.00002   0.00003   0.00055   0.00004   0.00002
-14.18083  -0.01737   0.00003  -0.00014   0.00003   0.00002   0.00004   0.00059   0.00004   0.00002
-14.13072  -0.01833   0.00003  -0.00016   0.00003   0.00003   0.00006   0.00064   0.00006   0.00003
-14.08061  -0.01918   0.00004  -0.00018   0.00004   0.00004   0.00007   0.00068   0.00007   0.00004
-14.03050  -0.01937   0.00005  -0.00020   0.00005   0.00004   0.00009   0.00071   0.00009   0.00005
-13.98039  -0.01968   0.00006  -0.00022   0.00006   0.00005   0.00011   0.00075   0.00011   0.00005
-13.93028  -0.01999   0.00007  -0.00023   0.00007   0.00007   0.00013   0.00078   0.00013   0.00006
-13.88017  -0.02027   0.00009  -0.00025   0.00009   0.00008   0.00015   0.00082   0.00015   0.00008
-13.83007  -0.02060   0.00010  -0.00027   0.00010   0.00009   0.00018   0.00085   0.00018   0.00009
-13.77996  -0.02104   0.00011  -0.00028   0.00011   0.00010   0.00022   0.00089   0.00022   0.00010
-13.72985  -0.02150   0.00012  -0.00030   0.00012   0.00011   0.00025   0.00093   0.00025   0.00011
-13.67974  -0.02194   0.00014  -0.00032   0.00014   0.00013   0.00029   0.00097   0.00029   0.00013
-13.62963  -0.02209   0.00015  -0.00034   0.00015   0.00014   0.00033   0.00101   0.00033   0.00014
-13.57952  -0.02199   0.00017  -0.00035   0.00017   0.00016   0.00038   0.00105   0.00038   0.00016
-13.52941  -0.02196   0.00019  -0.00037   0.00019   0.00018   0.00043   0.00109   0.00043   0.00018
-13.47930  -0.02198   0.00020  -0.00039   0.00020   0.00020   0.00049   0.00112   0.00049   0.00020
-13.42919  -0.02199   0.00022  -0.00040   0.00022   0.00023   0.00056   0.00116   0.00056   0.00023
-13.37908  -0.02205   0.00024  -0.00042   0.00024   0.00025   0.00063   0.00120   0.00063   0.00025
-13.32898  -0.02213   0.00026  -0.00044   0.00026   0.00027   0.00070   0.00124   0.00071   0.00027
-13.27887  -0.02224   0.00027  -0.00046   0.00027   0.00030   0.00078   0.00128   0.00078   0.00030
-13.22876  -0.02235   0.00029  -0.00047   0.00029   0.00032   0.00087   0.00133   0.00086   0.00032
-13.17865  -0.02242   0.00030  -0.00049   0.00030   0.00035   0.00097   0.00137   0.00096   0.00034
-13.12854  -0.02250   0.00032  -0.00052   0.00032   0.00037   0.00108   0.00141   0.00108   0.00037
-13.07843  -0.02238   0.00034  -0.00054   0.00034   0.00040   0.00121   0.00145   0.00121   0.00040
-13.02832  -0.02220   0.00036  -0.00056   0.00036   0.00044   0.00134   0.00149   0.00134   0.00044
-12.97821  -0.02204   0.00037  -0.00058   0.00037   0.00048   0.00148   0.00154   0.00149   0.00048
-12.92810  -0.02187   0.00039  -0.00060   0.00039   0.00051   0.00163   0.00158   0.00163   0.00051
-12.87800  -0.02176   0.00041  -0.00063   0.00041   0.00055   0.00179   0.00163   0.00179   0.00055
-12.82789  -0.02169   0.00042  -0.00065   0.00042   0.00059   0.00196   0.00167   0.00196   0.00059
-12.77778  -0.02163   0.00043  -0.00068   0.00043   0.00063   0.00218   0.00172   0.00218   0.00063
-12.72767  -0.02157   0.00045  -0.00072   0.00045   0.00067   0.00241   0.00176   0.00242   0.00067
-12.67756  -0.02152   0.00046  -0.00076   0.00046   0.00071   0.00267   0.00181   0.00268   0.00071
-12.62745  -0.02147   0.00047  -0.00080   0.00047   0.00075   0.00295   0.00185   0.00296   0.00076
-12.57734  -0.02145   0.00048  -0.00085   0.00048   0.00080   0.00326   0.00190   0.00326   0.00080
-12.52723  -0.02143   0.00049  -0.00090   0.00049   0.00084   0.00359   0.00194   0.00359   0.00084
-12.47712  -0.02139   0.00050  -0.00095   0.00050   0.00089   0.00396   0.00199   0.00394   0.00088
-12.42702  -0.02125   0.00051  -0.00112   0.00051   0.00094   0.00447   0.00204   0.00447   0.00094
-12.37691  -0.02094   0.00052  -0.00115   0.00052   0.00100   0.00506   0.00208   0.00506   0.00100
-12.32680  -0.02068   0.00052  -0.00119   0.00052   0.00106   0.00564   0.00213   0.00565   0.00106
-12.27669  -0.02040   0.00053  -0.00121   0.00052   0.00112   0.00621   0.00218   0.00622   0.00112
-12.22658  -0.02015   0.00053  -0.00123   0.00053   0.00118   0.00673   0.00223   0.00673   0.00118
-12.17647  -0.01991   0.00053  -0.00125   0.00053   0.00124   0.00723   0.00228   0.00721   0.00124
-12.12636  -0.01967   0.00053  -0.00127   0.00053   0.00130   0.00781   0.00232   0.00779   0.00130
-12.07625  -0.01943   0.00053  -0.00130   0.00053   0.00136   0.00843   0.00237   0.00843   0.00136
-12.02614  -0.01923   0.00052  -0.00132   0.00052   0.00143   0.00900   0.00242   0.00901   0.00143
-11.97603  -0.01904   0.00052  -0.00134   0.00052   0.00149   0.00956   0.00246   0.00957   0.00149
-11.92593  -0.01885   0.00051  -0.00135   0.00051   0.00155   0.01013   0.00251   0.01013   0.00155
-11.87582  -0.01865   0.00051  -0.00136   0.00051   0.00161   0.01073   0.00255   0.01072   0.00161
-11.82571  -0.01845   0.00050  -0.00137   0.00050   0.00168   0.01132   0.00260   0.01132   0.00168
-11.77560  -0.01826   0.00049  -0.00138   0.00049   0.00174   0.01192   0.00264   0.01192   0.00174
-11.72549  -0.01801   0.00048  -0.00139   0.00048   0.00181   0.01253   0.00268   0.01254   0.00181
-11.67538  -0.01767   0.00046  -0.00139   0.00046   0.00189   0.01315   0.00273   0.01316   0.00189
-11.62527  -0.01733   0.00044  -0.00139   0.00044   0.00197   0.01379   0.00277   0.01379   0.00197
-11.57516  -0.01697   0.00042  -0.00138   0.00042   0.00206   0.01446   0.00281   0.01446   0.00206
-11.52505  -0.01666   0.00040  -0.00137   0.00040   0.00214   0.01514   0.00285   0.01514   0.00214
-11.47495  -0.01635   0.00038  -0.00136   0.00038   0.00222   0.01583   0.00289   0.01583   0.00222
-11.42484  -0.01605   0.00036  -0.00135   0.00036   0.00230   0.01653   0.00292   0.01654   0.00230
-11.37473  -0.01574   0.00033  -0.00133   0.00033   0.00238   0.01726   0.00296   0.01727   0.00238
-11.32462  -0.01544   0.00030  -0.00131   0.00030   0.00246   0.01803   0.00299   0.01803   0.00246
-11.27451  -0.01515   0.00028  -0.00128   0.00028   0.00255   0.01884   0.00303   0.01883   0.00255
-11.22440  -0.01490   0.00025  -0.00124   0.00025   0.00265   0.01972   0.00307   0.01971   0.00265
-11.17429  -0.01467   0.00022  -0.00120   0.00022   0.00274   0.02063   0.00312   0.02063   0.00274
-11.12418  -0.01444   0.00019  -0.00117   0.00019   0.00283   0.02160   0.00316   0.02160   0.00283
-11.07407  -0.01422   0.00016  -0.00114   0.00016   0.00293   0.02265   0.00320   0.02266   0.00293
-11.02397  -0.01399   0.00013  -0.00111   0.00013   0.00301   0.02377   0.00324   0.02378   0.00301
-10.97386  -0.01376   0.00010  -0.00108   0.00010   0.00310   0.02498   0.00328   0.02499   0.00310
-10.92375  -0.01348   0.00006  -0.00104   0.00006   0.00320   0.02636   0.00332   0.02636   0.00320
-10.87364  -0.01371   0.00001  -0.00099   0.00001   0.00355   0.02794   0.00357   0.02794   0.00355
-10.82353  -0.01361  -0.00005  -0.00092  -0.00005   0.00377   0.02986   0.00368   0.02985   0.00377
-10.77342  -0.01324  -0.00011  -0.00086  -0.00011   0.00389   0.03229   0.00367   0.03228   0.00389
-10.72331  -0.01272  -0.00019  -0.00081  -0.00019   0.00394   0.03551   0.00359   0.03551   0.00394
-10.67320  -0.01289  -0.00026  -0.00077  -0.00026   0.00427   0.04041   0.00378   0.04042   0.00427
-10.62309  -0.01339  -0.00037  -0.00074  -0.00037   0.00472   0.04983   0.00407   0.04981   0.00472
-10.57298  -0.01260  -0.00046  -0.00070  -0.00046   0.00469   0.05674   0.00389   0.05674   0.00470
-10.52288  -0.01105  -0.00047  -0.00059  -0.00047   0.00443   0.04483   0.00349   0.04483   0.00443
-10.47277  -0.00954  -0.00054  -0.00053  -0.00054   0.00421   0.04551   0.00304   0.04545   0.00421
-10.42266  -0.00722  -0.00054  -0.00044  -0.00054   0.00365   0.04352   0.00235   0.04361   0.00365
-10.37255  -0.00479  -0.00034  -0.00030  -0.00034   0.00277   0.02947   0.00164   0.02944   0.00277
-10.32244  -0.00384  -0.00030  -0.00026  -0.00030   0.00245   0.02660   0.00134   0.02660   0.00245
-10.27233  -0.00351  -0.00030  -0.00023  -0.00030   0.00239   0.02409   0.00127   0.02409   0.00239
-10.22222  -0.00331  -0.00030  -0.00020  -0.00030   0.00241   0.02158   0.00127   0.02159   0.00241
-10.17211  -0.00319  -0.00031  -0.00018  -0.00031   0.00249   0.01907   0.00131   0.01908   0.00249
-10.12200  -0.00316  -0.00032  -0.00015  -0.00032   0.00262   0.01700   0.00140   0.01700   0.00262
-10.07190  -0.00411  -0.00047  -0.00012  -0.00047   0.00409   0.01701   0.00213   0.01701   0.00415
-10.02179  -0.00449  -0.00069  -0.00011  -0.00070   0.00558   0.02033   0.00247   0.02041   0.00574
 -9.97168  -0.00328  -0.00046  -0.00009  -0.00047   0.00391   0.01865   0.00181   0.01875   0.00412
 -9.92157  -0.00344  -0.00038  -0.00004  -0.00041   0.00381   0.01254   0.00197   0.01319   0.00406
 -9.87146  -0.00384  -0.00036  -0.00000  -0.00038   0.00403   0.00881   0.00221   0.00985   0.00429
 -9.82135  -0.00445  -0.00034   0.00001  -0.00036   0.00451   0.00799   0.00263   0.00899   0.00475
 -9.77124  -0.00546  -0.00036   0.00002  -0.00038   0.00538   0.00724   0.00334   0.00819   0.00561
 -9.72113  -0.00672  -0.00039   0.00003  -0.00041   0.00652   0.00653   0.00424   0.00742   0.00673
 -9.67102  -0.00702  -0.00038   0.00004  -0.00040   0.00690   0.00587   0.00446   0.00667   0.00710
 -9.62092  -0.00668  -0.00035   0.00004  -0.00036   0.00679   0.00515   0.00424   0.00585   0.00692
 -9.57081  -0.00660  -0.00033   0.00004  -0.00034   0.00687   0.00444   0.00421   0.00501   0.00701
 -9.52070  -0.00686  -0.00033   0.00004  -0.00034   0.00728   0.00380   0.00443   0.00423   0.00740
 -9.47059  -0.00706  -0.00034   0.00004  -0.00034   0.00770   0.00319   0.00461   0.00346   0.00774
 -9.42048  -0.00705  -0.00033   0.00002  -0.00034   0.00797   0.00265   0.00466   0.00272   0.00799
 -9.37037  -0.00727  -0.00039   0.00001  -0.00038   0.00909   0.00344   0.00492   0.00330   0.00899
 -9.32026  -0.00759  -0.00049  -0.00002  -0.00047   0.01099   0.00535   0.00532   0.00496   0.01071
 -9.27015  -0.00795  -0.00060  -0.00004  -0.00056   0.01293   0.00729   0.00575   0.00667   0.01250
 -9.22004  -0.00830  -0.00070  -0.00006  -0.00066   0.01486   0.00924   0.00620   0.00844   0.01433
 -9.16993  -0.00840  -0.00076  -0.00010  -0.00071   0.01594   0.01133   0.00638   0.01039   0.01545
 -9.11983  -0.00787  -0.00067  -0.00015  -0.00065   0.01450   0.01309   0.00578   0.01209   0.01429
 -9.06972  -0.00757  -0.00065  -0.00020  -0.00064   0.01425   0.01452   0.00552   0.01353   0.01414
 -9.01961  -0.00729  -0.00064  -0.00026  -0.00063   0.01422   0.01544   0.00532   0.01450   0.01414
 -8.96950  -0.00702  -0.00065  -0.00034  -0.00064   0.01452   0.01729   0.00516   0.01643   0.01449
 -8.91939  -0.00669  -0.00064  -0.00045  -0.00064   0.01454   0.01843   0.00496   0.01781   0.01453
 -8.86928  -0.00640  -0.00063  -0.00058  -0.00063   0.01460   0.02048   0.00480   0.02028   0.01460
 -8.81917  -0.00612  -0.00062  -0.00064  -0.00062   0.01459   0.02021   0.00465   0.02019   0.01459
 -8.76906  -0.00587  -0.00061  -0.00069  -0.00061   0.01461   0.01973   0.00451   0.01971   0.01461
 -8.71895  -0.00571  -0.00060  -0.00076  -0.00060   0.01465   0.01986   0.00444   0.01985   0.01465
 -8.66885  -0.00686  -0.00058  -0.00084  -0.00059   0.01469   0.02039   0.00533   0.02039   0.01469
 -8.61874  -0.00838  -0.00056  -0.00101  -0.00056   0.01467   0.02121   0.00656   0.02121   0.01467
 -8.56863  -0.00761  -0.00054  -0.00120  -0.00054   0.01457   0.02175   0.00618   0.02176   0.01457
 -8.51852  -0.00778  -0.00052  -0.00130  -0.00052   0.01444   0.02184   0.00647   0.02184   0.01444
 -8.46841  -0.00798  -0.00049  -0.00138  -0.00049   0.01430   0.02168   0.00679   0.02168   0.01430
 -8.41830  -0.00821  -0.00047  -0.00173  -0.00047   0.01429   0.02203   0.00717   0.02203   0.01429
 -8.36819  -0.00827  -0.00045  -0.00153  -0.00045   0.01424   0.01974   0.00754   0.01973   0.01423
 -8.31808  -0.00817  -0.00043  -0.00154  -0.00043   0.01430   0.01905   0.00792   0.01906   0.01430
 -8.26797  -0.00811  -0.00042  -0.00116  -0.00042   0.01434   0.01880   0.00841   0.01880   0.01434
 -8.21786  -0.00825  -0.00040  -0.00102  -0.00040   0.01445   0.01878   0.00906   0.01878   0.01445
 -8.16776  -0.00829  -0.00039  -0.00089  -0.00039   0.01457   0.01876   0.00971   0.01876   0.01457
 -8.11765  -0.00829  -0.00037  -0.00077  -0.00037   0.01470   0.01874   0.01036   0.01873   0.01470
 -8.06754  -0.00837  -0.00036  -0.00069  -0.00036   0.01483   0.01873   0.01111   0.01873   0.01484
 -8.01743  -0.00845  -0.00034  -0.00062  -0.00034   0.01471   0.01869   0.01188   0.01870   0.01471
 -7.96732  -0.00835  -0.00031  -0.00055  -0.00031   0.01444   0.01858   0.01258   0.01858   0.01445
 -7.91721  -0.00827  -0.00028  -0.00048  -0.00028   0.01444   0.01843   0.01339   0.01844   0.01444
 -7.86710  -0.00827  -0.00027  -0.00041  -0.00027   0.01453   0.01826   0.01428   0.01827   0.01453
 -7.81699  -0.00828  -0.00025  -0.00035  -0.00025   0.01469   0.01809   0.01523   0.01809   0.01469
 -7.76688  -0.00815  -0.00025  -0.00030  -0.00025   0.01491   0.01794   0.01605   0.01794   0.01491
 -7.71678  -0.00808  -0.00024  -0.00025  -0.00024   0.01514   0.01781   0.01681   0.01781   0.01514
 -7.66667  -0.00801  -0.00023  -0.00020  -0.00023   0.01537   0.01768   0.01752   0.01768   0.01537
 -7.61656  -0.00794  -0.00021  -0.00016  -0.00021   0.01560   0.01780   0.01817   0.01780   0.01560
 -7.56645  -0.00787  -0.00020  -0.00011  -0.00020   0.01578   0.01802   0.01880   0.01802   0.01577
 -7.51634  -0.00779  -0.00018  -0.00007  -0.00018   0.01591   0.01825   0.01942   0.01825   0.01591
 -7.46623  -0.00766  -0.00016  -0.00003  -0.00016   0.01604   0.01856   0.02015   0.01855   0.01604
 -7.41612  -0.00742  -0.00013   0.00001  -0.00013   0.01617   0.01885   0.02079   0.01885   0.01617
 -7.36601  -0.00718  -0.00011   0.00004  -0.00011   0.01630   0.01914   0.02138   0.01915   0.01631
 -7.31590  -0.00698  -0.00009   0.00008  -0.00009   0.01645   0.01945   0.02203   0.01946   0.01646
 -7.26580  -0.00677  -0.00006   0.00011  -0.00006   0.01662   0.01978   0.02274   0.01979   0.01662
 -7.21569  -0.00657  -0.00004   0.00013  -0.00004   0.01685   0.02020   0.02355   0.02021   0.01684