  COHP#       atomMU       atomNU     distance     translation      ICOHP (at) eF   for spin  1
      1           V1           V1      3.02535       0   0  -1           -0.38782 
      2           V1           V1      2.99633      -1  -1   0           -0.32822 
      3           V1           V1      2.99633       0  -1   0           -0.32805 
      4           V1           V1      2.99633      -1   0   0           -0.32804 
      5           V1           V1      2.99633       1   0   0           -0.32804 
      6           V1           V1      2.99633       0   1   0           -0.32805 
      7           V1           V1      2.99633       1   1   0           -0.32822 
      8           V1           V1      3.02535       0   0   1           -0.38782 
      9           B2           V1      2.29801       0   0   0           -1.38637 
     10           B2           V1      2.29801       0   1   0           -1.38683 
     11           B2           V1      2.29801       1   1   0           -1.38636 
     12           B2           V1      2.29801       0   0   1           -1.38669 
     13           B2           V1      2.29801       0   1   1           -1.38599 
     14           B2           V1      2.29801       1   1   1           -1.38667 
     15           B3           V1      2.29801       0   0   0           -1.38650 
     16           B3           V1      2.29801       1   0   0           -1.38587 
     17           B3           V1      2.29801       1   1   0           -1.38652 
     18           B3           V1      2.29801       0   0   1           -1.38614 
     19           B3           V1      2.29801       1   0   1           -1.38657 
     20           B3           V1      2.29801       1   1   1           -1.38615 
     21           B2           B2      3.02535       0   0  -1           -0.20398 
     22           B2           B2      2.99633      -1  -1   0           -0.10449 
     23           B2           B2      2.99633       0  -1   0           -0.10450 
     24           B2           B2      2.99633      -1   0   0           -0.10451 
     25           B2           B2      2.99633       1   0   0           -0.10451 
     26           B2           B2      2.99633       0   1   0           -0.10450 
     27           B2           B2      2.99633       1   1   0           -0.10449 
     28           B2           B2      3.02535       0   0   1           -0.20398 
     29           B3           B2      3.48503       0  -1  -1           -0.01313 
     30           B3           B2      3.48503       0   0  -1           -0.01313 
     31           B3           B2      3.48503       1   0  -1           -0.01313 
     32           B3           B2      3.45986      -1  -1   0            0.01065 
     33           B3           B2      1.72993       0  -1   0           -7.37803 
     34           B3           B2      3.45986       1  -1   0            0.01075 
     35           B3           B2      1.72993       0   0   0           -7.37746 
     36           B3           B2      1.72993       1   0   0           -7.37825 
     37           B3           B2      3.45986       1   1   0            0.01068 
     38           B3           B2      3.48503       0  -1   1           -0.01314 
     39           B3           B2      3.48503       0   0   1           -0.01313 
     40           B3           B2      3.48503       1   0   1           -0.01314 
     41           B3           B3      3.02535       0   0  -1           -0.20388 
     42           B3           B3      2.99633      -1  -1   0           -0.10457 
     43           B3           B3      2.99633       0  -1   0           -0.10457 
     44           B3           B3      2.99633      -1   0   0           -0.10458 
     45           B3           B3      2.99633       1   0   0           -0.10458 
     46           B3           B3      2.99633       0   1   0           -0.10457 
     47           B3           B3      2.99633       1   1   0           -0.10457 
     48           B3           B3      3.02535       0   0   1           -0.20388 
