 running on    4 total cores
 distrk:  each k-point on    4 cores,    1 groups
 distr:  one band on    2 cores,    2 groups
 using from now: INCAR     
 vasp.5.4.4.18Apr17-6-g9f103f2a35 (build Dec  7 2020 12:43:57) complex           
 POSCAR found type information on POSCAR  V  B 
 POSCAR found :  2 types and       3 ions
 scaLAPACK will be used
 LDA part: xc-table for Pade appr. of Perdew
 POSCAR, INCAR and KPOINTS ok, starting setup
 FFT: planning ...
 WAVECAR not read
 augmentation electrons   11.007017471142273     
 soft         electrons   0.0000000000000000     
 augmentation electrons   11.007017471142273     
 soft         electrons   0.0000000000000000     
 augmentation electrons   11.007017471142273     
 soft         electrons   0.0000000000000000     
 augmentation electrons   11.007017471142273     
 soft         electrons   0.0000000000000000     
 total        electrons   11.007017471142273     
 total        electrons   11.007017471142273     
 total        electrons   11.007017471142273     
 total        electrons   11.007017471142273     
 augmentation electrons   34.481181691938062     
 soft         electrons   0.0000000000000000     
 augmentation electrons   34.481181691938062     
 soft         electrons   0.0000000000000000     
 augmentation electrons   34.481181691938062     
 soft         electrons   0.0000000000000000     
 augmentation electrons   34.481181691938062     
 soft         electrons   0.0000000000000000     
 total        electrons   34.481181691938062     
 total        electrons   34.481181691938062     
 total        electrons   34.481181691938062     
 total        electrons   34.481181691938062     
 entering main loop
       N       E                     dE             d eps       ncg     rms          rms(c)
DAV:   1     0.200962170438E+02    0.20096E+02   -0.43365E+03 78900   0.547E+02
DAV:   2    -0.282996216835E+02   -0.48396E+02   -0.42377E+02 70672   0.130E+02
DAV:   3    -0.304558748496E+02   -0.21563E+01   -0.20969E+01 76708   0.279E+01
DAV:   4    -0.304690248082E+02   -0.13150E-01   -0.13138E-01 77056   0.213E+00
DAV:   5    -0.304690874071E+02   -0.62599E-04   -0.62626E-04 77892   0.148E-01    0.260E+01
DAV:   6    -0.257905305532E+02    0.46786E+01   -0.23173E+01 76736   0.507E+01    0.730E+00
DAV:   7    -0.246862414652E+02    0.11043E+01   -0.72943E+00 79492   0.304E+01    0.489E+00
DAV:   8    -0.245515007082E+02    0.13474E+00   -0.34743E-01 93984   0.609E+00    0.114E+00
DAV:   9    -0.245427424124E+02    0.87583E-02   -0.13749E-02 83080   0.985E-01    0.107E-01
DAV:  10    -0.245427639420E+02   -0.21530E-04   -0.22069E-04 83096   0.897E-02    0.502E-02
DAV:  11    -0.245427311934E+02    0.32749E-04   -0.18109E-05 82424   0.409E-02    0.157E-02
DAV:  12    -0.245427294279E+02    0.17654E-05   -0.57138E-07 54136   0.561E-03    0.460E-03
DAV:  13    -0.245427282235E+02    0.12045E-05   -0.16398E-07 44128   0.251E-03    0.170E-03
DAV:  14    -0.245427280629E+02    0.16056E-06   -0.95478E-08 40032   0.132E-03
   1 F= -.24542728E+02 E0= -.24542728E+02  d E =0.000000E+00
 writing wavefunctions
 augmentation electrons   1.8550992286527950     
 soft         electrons   9.1548673437807579     
 total        electrons   11.009966572433553     
 augmentation electrons   1.8550992286527950     
 soft         electrons   9.1548673437807579     
 total        electrons   11.009966572433553     
 augmentation electrons   1.8550992286527950     
 soft         electrons   9.1548673437807579     
 augmentation electrons   1.8550992286527950     
 soft         electrons   9.1548673437807579     
 total        electrons   11.009966572433553     
 total        electrons   11.009966572433553     
Note: The following floating-point exceptions are signalling: IEEE_DIVIDE_BY_ZERO
