   76   76    1    1
  0.2054817E+02  0.1053953E-08  0.6141200E-09  0.2412750E-08  0.5000000E-15
   1.0000000000000000E-004
  CAR 
 Name                                    
    286     23    184

  0.3742002E-15  0.3742002E-15  0.1262379E-14  0.2222222E-01
    1      -13.754262   1.000000
    2      -12.619492   1.000000
    3      -12.560801   1.000000
    4      -12.560100   1.000000
    5      -11.586108   1.000000
    6      -11.505523   1.000000
    7      -11.421988   1.000000
    8      -11.364223   1.000000
    9      -11.192380   1.000000
   10      -11.043110   1.000000
   11      -11.031501   1.000000
   12      -10.888321   1.000000
   13      -10.813258   1.000000
   14      -10.510280   1.000000
   15      -10.325356   1.000000
   16      -10.193268   1.000000
   17       -9.945170   1.000000
   18       -9.917124   1.000000
   19       -9.714301   1.000000
   20       -9.615162   1.000000
   21       -9.445230   1.000000
   22       -9.350154   1.000000
   23       -9.323290   1.000000
   24       -9.274368   1.000000
   25       -8.681738   1.000000
   26       -8.670846   1.000000
   27       -8.660067   1.000000
   28       -8.348008   1.000000
   29       -8.286204   1.000000
   30       -8.080338   1.000000
   31       -7.933329   1.000000
   32       -7.839821   1.000000
   33       -7.542874   1.000000
   34       -7.274451   1.000000
   35       -7.192948   1.000000
   36       -7.188981   1.000000
   37       -7.024668   1.000000
   38       -6.858933   1.000000
   39       -6.795293   1.000000
   40       -6.758620   1.000000
   41       -6.649012   1.000000
   42       -6.526424   1.000000
   43       -6.524003   1.000000
   44       -6.468213   1.000000
   45       -6.375000   1.000000
   46       -6.208043   1.000000
   47       -6.148840   1.000000
   48       -6.119744   1.000000
   49       -6.009678   1.000000
   50       -5.873067   1.000000
   51       -5.693323   1.000000
   52       -5.667982   1.000000
   53       -5.581127   1.000000
   54       -5.512713   1.000000
   55       -5.488718   1.000000
   56       -5.401616   1.000000
   57       -5.392530   1.000000
   58       -5.307961   1.000000
   59       -5.174753   1.000000
   60       -5.159993   1.000000
   61       -5.035868   1.000000
   62       -5.009785   1.000000
   63       -4.991589   1.000000
   64       -4.951950   1.000000
   65       -4.655239   1.000000
   66       -4.643031   1.000000
   67       -4.495416   1.000000
   68       -4.472290   1.000000
   69       -4.414370   1.000000
   70       -4.322312   1.000000
   71       -4.221942   1.000000
   72       -4.191468   1.000000
   73       -4.155485   1.000000
   74       -4.058694   1.000000
   75       -3.996721   1.000000
   76       -3.985481   1.000000
   77       -3.957905   1.000000
   78       -3.948003   1.000000
   79       -3.896604   1.000000
   80       -3.821889   1.000000
   81       -3.766436   1.000000
   82       -3.713556   1.000000
   83       -3.706683   1.000000
   84       -3.670159   1.000000
   85       -3.633994   1.000000
   86       -3.626754   1.000000
   87       -3.567887   1.000000
   88       -3.554444   1.000000
   89       -3.448650   1.000000
   90       -3.386840   1.000000
   91       -3.385961   1.000000
   92       -3.323247   1.000000
   93       -3.304321   1.000000
   94       -3.271685   1.000000
   95       -3.102741   1.000000
   96       -3.022825   1.000000
   97       -2.947520   1.000000
   98       -2.895744   1.000000
   99       -2.793574   1.000000
  100       -2.707063   1.000000
  101       -2.581337   1.000000
  102       -2.541198   1.000000
  103       -2.430605   1.000000
  104       -2.358397   1.000000
  105       -2.330557   1.000000
  106       -2.201399   1.000000
  107       -2.143477   1.000000
  108       -2.138223   1.000000
  109       -2.038079   1.000000
  110       -1.955126   1.000000
  111       -1.945909   1.000000
  112       -1.886842   1.000000
  113       -1.765762   1.000000
  114       -1.710138   1.000000
  115       -1.686428   1.000000
  116       -1.647053   1.000000
  117       -1.589205   1.000000
  118       -1.585377   1.000000
  119       -1.486808   1.000000
  120       -1.471910   1.000000
  121       -1.425344   1.000000
  122       -1.083733   1.000000
  123       -0.800025   1.000000
  124       -0.781522   1.000000
  125       -0.744518   1.000000
  126       -0.617634   1.000000
  127       -0.489957   1.000000
  128       -0.297997   1.000000
  129       -0.233462   1.000000
  130       -0.217180   1.000000
  131       -0.023820   1.000000
  132        0.049934   1.000000
  133        0.097823   1.000000
  134        0.186727   1.000000
  135        0.341527   1.000001
  136        0.410144   1.000050
  137        0.426500   1.000125
  138        0.512244   1.005915
  139        0.532585   1.011335
  140        0.540232   1.014048
  141        0.541333   1.014469
  142        0.644016   0.982591
  143        0.726039   0.459406
  144        0.752748   0.247440
  145        0.779661   0.087179
  146        0.832070  -0.033025
  147        0.833451  -0.033601
  148        0.878122  -0.024507
  149        1.008863  -0.000183
  150        1.031395  -0.000052
  151        1.212154  -0.000000
  152        1.262210  -0.000000
  153        1.318430  -0.000000
  154        1.322342  -0.000000
  155        1.418689  -0.000000
  156        1.466618  -0.000000
  157        1.505625  -0.000000
  158        1.549466  -0.000000
  159        1.557343  -0.000000
  160        1.559163  -0.000000
  161        1.627353  -0.000000
  162        1.629958  -0.000000
  163        1.678841  -0.000000
  164        1.746631  -0.000000
  165        1.820278  -0.000000
  166        1.832044  -0.000000
  167        1.884838  -0.000000
  168        1.943730  -0.000000
  169        1.957144  -0.000000
  170        1.968491  -0.000000
  171        2.006309  -0.000000
  172        2.012383  -0.000000
  173        2.018360  -0.000000
  174        2.066523  -0.000000
  175        2.138920  -0.000000
  176        2.201528  -0.000000
  177        2.589557  -0.000000
  178        2.619392  -0.000000
  179        2.711642  -0.000000
  180        2.762150  -0.000000
  181        2.864491  -0.000000
  182        2.895688  -0.000000
  183        3.428526  -0.000000
  184        3.958428   0.000000

  0.2000000E+00  0.3742002E-15  0.1262379E-14  0.4444444E-01
    1      -13.705626   1.000000
    2      -12.997778   1.000000
    3      -12.514910   1.000000
    4      -12.110998   1.000000
    5      -11.850262   1.000000
    6      -11.575624   1.000000
    7      -11.417281   1.000000
    8      -11.118561   1.000000
    9      -11.040359   1.000000
   10      -11.006652   1.000000
   11      -10.993531   1.000000
   12      -10.917479   1.000000
   13      -10.745545   1.000000
   14      -10.578934   1.000000
   15      -10.421387   1.000000
   16      -10.368745   1.000000
   17      -10.362962   1.000000
   18       -9.709510   1.000000
   19       -9.659096   1.000000
   20       -9.641286   1.000000
   21       -9.410928   1.000000
   22       -9.327922   1.000000
   23       -9.245610   1.000000
   24       -9.233426   1.000000
   25       -8.909696   1.000000
   26       -8.813493   1.000000
   27       -8.294764   1.000000
   28       -8.178035   1.000000
   29       -8.096436   1.000000
   30       -8.062761   1.000000
   31       -8.011407   1.000000
   32       -7.867520   1.000000
   33       -7.428556   1.000000
   34       -7.394862   1.000000
   35       -7.293584   1.000000
   36       -7.235175   1.000000
   37       -7.137166   1.000000
   38       -6.950708   1.000000
   39       -6.899997   1.000000
   40       -6.758130   1.000000
   41       -6.744367   1.000000
   42       -6.635850   1.000000
   43       -6.506439   1.000000
   44       -6.483705   1.000000
   45       -6.433995   1.000000
   46       -6.135263   1.000000
   47       -6.000806   1.000000
   48       -5.970449   1.000000
   49       -5.856126   1.000000
   50       -5.817033   1.000000
   51       -5.777315   1.000000
   52       -5.683651   1.000000
   53       -5.682550   1.000000
   54       -5.529777   1.000000
   55       -5.378205   1.000000
   56       -5.369718   1.000000
   57       -5.350525   1.000000
   58       -5.263788   1.000000
   59       -5.211421   1.000000
   60       -5.144393   1.000000
   61       -5.070809   1.000000
   62       -5.002836   1.000000
   63       -4.915680   1.000000
   64       -4.845554   1.000000
   65       -4.831669   1.000000
   66       -4.597300   1.000000
   67       -4.570884   1.000000
   68       -4.530918   1.000000
   69       -4.456409   1.000000
   70       -4.329451   1.000000
   71       -4.215376   1.000000
   72       -4.200158   1.000000
   73       -4.091602   1.000000
   74       -4.085239   1.000000
   75       -3.971760   1.000000
   76       -3.958486   1.000000
   77       -3.937653   1.000000
   78       -3.933115   1.000000
   79       -3.854771   1.000000
   80       -3.775325   1.000000
   81       -3.732974   1.000000
   82       -3.726700   1.000000
   83       -3.723395   1.000000
   84       -3.703326   1.000000
   85       -3.682938   1.000000
   86       -3.681317   1.000000
   87       -3.509210   1.000000
   88       -3.477734   1.000000
   89       -3.427290   1.000000
   90       -3.374805   1.000000
   91       -3.366190   1.000000
   92       -3.358230   1.000000
   93       -3.314139   1.000000
   94       -3.295638   1.000000
   95       -3.272032   1.000000
   96       -3.004483   1.000000
   97       -2.966350   1.000000
   98       -2.955905   1.000000
   99       -2.807625   1.000000
  100       -2.713699   1.000000
  101       -2.655403   1.000000
  102       -2.555585   1.000000
  103       -2.536628   1.000000
  104       -2.482788   1.000000
  105       -2.140611   1.000000
  106       -2.131315   1.000000
  107       -2.079591   1.000000
  108       -2.038185   1.000000
  109       -2.012929   1.000000
  110       -2.005075   1.000000
  111       -1.866854   1.000000
  112       -1.814792   1.000000
  113       -1.763628   1.000000
  114       -1.758948   1.000000
  115       -1.662776   1.000000
  116       -1.576338   1.000000
  117       -1.573383   1.000000
  118       -1.508579   1.000000
  119       -1.505160   1.000000
  120       -1.382960   1.000000
  121       -1.317507   1.000000
  122       -1.067649   1.000000
  123       -0.895204   1.000000
  124       -0.814448   1.000000
  125       -0.759470   1.000000
  126       -0.751754   1.000000
  127       -0.574524   1.000000
  128       -0.341657   1.000000
  129       -0.314111   1.000000
  130       -0.291804   1.000000
  131       -0.202116   1.000000
  132       -0.084450   1.000000
  133        0.036677   1.000000
  134        0.106056   1.000000
  135        0.266120   1.000000
  136        0.319000   1.000000
  137        0.410507   1.000051
  138        0.495260   1.003164
  139        0.571739   1.027875
  140        0.631132   1.011577
  141        0.683740   0.793940
  142        0.732018   0.409344
  143        0.748157   0.281075
  144        0.769489   0.139651
  145        0.792555   0.035608
  146        0.852952  -0.034301
  147        0.869135  -0.028578
  148        0.916588  -0.009263
  149        0.960581  -0.001839
  150        1.037715  -0.000036
  151        1.236229  -0.000000
  152        1.329951  -0.000000
  153        1.331716  -0.000000
  154        1.449769  -0.000000
  155        1.481193  -0.000000
  156        1.493572  -0.000000
  157        1.493835  -0.000000
  158        1.526486  -0.000000
  159        1.602293  -0.000000
  160        1.658620  -0.000000
  161        1.671677  -0.000000
  162        1.700439  -0.000000
  163        1.720473  -0.000000
  164        1.736691  -0.000000
  165        1.826226  -0.000000
  166        1.842871  -0.000000
  167        1.871919  -0.000000
  168        1.935262  -0.000000
  169        1.965595  -0.000000
  170        2.014817  -0.000000
  171        2.019477  -0.000000
  172        2.044826  -0.000000
  173        2.052430  -0.000000
  174        2.068909  -0.000000
  175        2.134246  -0.000000
  176        2.143133  -0.000000
  177        2.258190  -0.000000
  178        2.348329  -0.000000
  179        2.370284  -0.000000
  180        2.724889  -0.000000
  181        2.777245  -0.000000
  182        2.932098  -0.000000
  183        3.155927  -0.000000
  184        4.073255   0.000000

  0.4000000E+00  0.3742002E-15  0.1262379E-14  0.4444444E-01
    1      -13.560815   1.000000
    2      -13.323066   1.000000
    3      -12.380077   1.000000
    4      -12.158014   1.000000
    5      -11.568305   1.000000
    6      -11.543762   1.000000
    7      -11.489929   1.000000
    8      -11.035232   1.000000
    9      -11.032863   1.000000
   10      -10.983066   1.000000
   11      -10.883194   1.000000
   12      -10.873654   1.000000
   13      -10.731963   1.000000
   14      -10.701627   1.000000
   15      -10.623135   1.000000
   16      -10.484339   1.000000
   17      -10.461888   1.000000
   18       -9.904702   1.000000
   19       -9.695902   1.000000
   20       -9.674636   1.000000
   21       -9.296761   1.000000
   22       -9.274677   1.000000
   23       -9.271117   1.000000
   24       -9.219925   1.000000
   25       -8.937068   1.000000
   26       -8.655542   1.000000
   27       -8.196494   1.000000
   28       -8.097173   1.000000
   29       -7.860956   1.000000
   30       -7.805620   1.000000
   31       -7.785491   1.000000
   32       -7.761551   1.000000
   33       -7.676909   1.000000
   34       -7.530622   1.000000
   35       -7.452838   1.000000
   36       -7.365206   1.000000
   37       -7.314904   1.000000
   38       -7.213809   1.000000
   39       -7.174635   1.000000
   40       -6.924340   1.000000
   41       -6.641337   1.000000
   42       -6.606292   1.000000
   43       -6.419124   1.000000
   44       -6.373264   1.000000
   45       -6.312662   1.000000
   46       -6.146796   1.000000
   47       -5.993074   1.000000
   48       -5.912464   1.000000
   49       -5.820230   1.000000
   50       -5.815885   1.000000
   51       -5.766784   1.000000
   52       -5.745270   1.000000
   53       -5.625952   1.000000
   54       -5.477217   1.000000
   55       -5.375821   1.000000
   56       -5.369889   1.000000
   57       -5.328575   1.000000
   58       -5.223769   1.000000
   59       -5.171768   1.000000
   60       -5.131379   1.000000
   61       -5.084121   1.000000
   62       -4.996266   1.000000
   63       -4.924640   1.000000
   64       -4.735032   1.000000
   65       -4.690656   1.000000
   66       -4.612592   1.000000
   67       -4.574640   1.000000
   68       -4.493803   1.000000
   69       -4.443923   1.000000
   70       -4.405160   1.000000
   71       -4.359435   1.000000
   72       -4.293542   1.000000
   73       -4.149448   1.000000
   74       -4.014249   1.000000
   75       -3.982382   1.000000
   76       -3.958326   1.000000
   77       -3.937327   1.000000
   78       -3.924735   1.000000
   79       -3.878121   1.000000
   80       -3.871987   1.000000
   81       -3.722190   1.000000
   82       -3.694392   1.000000
   83       -3.642813   1.000000
   84       -3.627773   1.000000
   85       -3.617831   1.000000
   86       -3.595436   1.000000
   87       -3.565237   1.000000
   88       -3.533199   1.000000
   89       -3.447443   1.000000
   90       -3.432977   1.000000
   91       -3.400391   1.000000
   92       -3.344662   1.000000
   93       -3.245729   1.000000
   94       -3.212336   1.000000
   95       -3.161531   1.000000
   96       -3.118678   1.000000
   97       -3.042834   1.000000
   98       -2.991829   1.000000
   99       -2.979692   1.000000
  100       -2.904438   1.000000
  101       -2.789311   1.000000
  102       -2.677431   1.000000
  103       -2.540465   1.000000
  104       -2.267643   1.000000
  105       -2.141873   1.000000
  106       -2.139902   1.000000
  107       -2.104763   1.000000
  108       -2.072502   1.000000
  109       -1.869679   1.000000
  110       -1.821947   1.000000
  111       -1.807349   1.000000
  112       -1.768715   1.000000
  113       -1.638626   1.000000
  114       -1.617549   1.000000
  115       -1.588760   1.000000
  116       -1.543920   1.000000
  117       -1.527681   1.000000
  118       -1.508012   1.000000
  119       -1.268617   1.000000
  120       -1.258024   1.000000
  121       -1.166342   1.000000
  122       -1.025921   1.000000
  123       -1.016481   1.000000
  124       -0.976885   1.000000
  125       -0.915026   1.000000
  126       -0.785327   1.000000
  127       -0.698367   1.000000
  128       -0.647985   1.000000
  129       -0.643550   1.000000
  130       -0.421026   1.000000
  131       -0.322844   1.000000
  132       -0.281842   1.000000
  133        0.005377   1.000000
  134        0.050994   1.000000
  135        0.191256   1.000000
  136        0.413004   1.000059
  137        0.450520   1.000437
  138        0.485237   1.002115
  139        0.493421   1.002944
  140        0.591909   1.034800
  141        0.634990   1.004348
  142        0.664228   0.906138
  143        0.786862   0.056337
  144        0.853335  -0.034210
  145        0.867376  -0.029334
  146        0.905895  -0.012706
  147        0.931727  -0.005614
  148        1.060902  -0.000009
  149        1.106893  -0.000000
  150        1.114817  -0.000000
  151        1.133001  -0.000000
  152        1.377047  -0.000000
  153        1.394335  -0.000000
  154        1.465573  -0.000000
  155        1.544766  -0.000000
  156        1.576475  -0.000000
  157        1.613042  -0.000000
  158        1.631398  -0.000000
  159        1.650681  -0.000000
  160        1.689749  -0.000000
  161        1.704850  -0.000000
  162        1.753696  -0.000000
  163        1.796857  -0.000000
  164        1.806806  -0.000000
  165        1.870055  -0.000000
  166        1.892285  -0.000000
  167        1.898680  -0.000000
  168        1.906096  -0.000000
  169        1.946717  -0.000000
  170        2.002692  -0.000000
  171        2.027149  -0.000000
  172        2.060544  -0.000000
  173        2.096788  -0.000000
  174        2.178544  -0.000000
  175        2.204189  -0.000000
  176        2.243737  -0.000000
  177        2.261725  -0.000000
  178        2.288407  -0.000000
  179        2.324072  -0.000000
  180        2.423604  -0.000000
  181        2.535560  -0.000000
  182        2.943876  -0.000000
  183        3.231827  -0.000000
  184        3.494480   0.000000

  0.3742002E-15  0.1111111E+00  0.1262379E-14  0.4444444E-01
    1      -13.707327   1.000000
    2      -12.580055   1.000000
    3      -12.527460   1.000000
    4      -12.520100   1.000000
    5      -11.690412   1.000000
    6      -11.477319   1.000000
    7      -11.402662   1.000000
    8      -11.393331   1.000000
    9      -11.231248   1.000000
   10      -11.091275   1.000000
   11      -11.005741   1.000000
   12      -10.892940   1.000000
   13      -10.823307   1.000000
   14      -10.483201   1.000000
   15      -10.345720   1.000000
   16      -10.167104   1.000000
   17       -9.928155   1.000000
   18       -9.879514   1.000000
   19       -9.737396   1.000000
   20       -9.589316   1.000000
   21       -9.475537   1.000000
   22       -9.373074   1.000000
   23       -9.302902   1.000000
   24       -9.284952   1.000000
   25       -8.704197   1.000000
   26       -8.670784   1.000000
   27       -8.636708   1.000000
   28       -8.348544   1.000000
   29       -8.285210   1.000000
   30       -8.091348   1.000000
   31       -7.845872   1.000000
   32       -7.772407   1.000000
   33       -7.638427   1.000000
   34       -7.319802   1.000000
   35       -7.255792   1.000000
   36       -7.178314   1.000000
   37       -7.133273   1.000000
   38       -6.833300   1.000000
   39       -6.799360   1.000000
   40       -6.740832   1.000000
   41       -6.675423   1.000000
   42       -6.469419   1.000000
   43       -6.465743   1.000000
   44       -6.453135   1.000000
   45       -6.377708   1.000000
   46       -6.198233   1.000000
   47       -6.159359   1.000000
   48       -6.117554   1.000000
   49       -5.959572   1.000000
   50       -5.919034   1.000000
   51       -5.719771   1.000000
   52       -5.669282   1.000000
   53       -5.549725   1.000000
   54       -5.525806   1.000000
   55       -5.426005   1.000000
   56       -5.403790   1.000000
   57       -5.372704   1.000000
   58       -5.256836   1.000000
   59       -5.138460   1.000000
   60       -5.120571   1.000000
   61       -5.020500   1.000000
   62       -4.978437   1.000000
   63       -4.965515   1.000000
   64       -4.937660   1.000000
   65       -4.657067   1.000000
   66       -4.568596   1.000000
   67       -4.549626   1.000000
   68       -4.458071   1.000000
   69       -4.350242   1.000000
   70       -4.348784   1.000000
   71       -4.228726   1.000000
   72       -4.215400   1.000000
   73       -4.149469   1.000000
   74       -4.058813   1.000000
   75       -4.026600   1.000000
   76       -4.024194   1.000000
   77       -3.996339   1.000000
   78       -3.946540   1.000000
   79       -3.936812   1.000000
   80       -3.846147   1.000000
   81       -3.830937   1.000000
   82       -3.829107   1.000000
   83       -3.813805   1.000000
   84       -3.701584   1.000000
   85       -3.689761   1.000000
   86       -3.585465   1.000000
   87       -3.557844   1.000000
   88       -3.499737   1.000000
   89       -3.498764   1.000000
   90       -3.419943   1.000000
   91       -3.412780   1.000000
   92       -3.308222   1.000000
   93       -3.287276   1.000000
   94       -3.248436   1.000000
   95       -3.247546   1.000000
   96       -3.060024   1.000000
   97       -2.871967   1.000000
   98       -2.768155   1.000000
   99       -2.684888   1.000000
  100       -2.643089   1.000000
  101       -2.593827   1.000000
  102       -2.537974   1.000000
  103       -2.405960   1.000000
  104       -2.357055   1.000000
  105       -2.334628   1.000000
  106       -2.257154   1.000000
  107       -2.230555   1.000000
  108       -2.099328   1.000000
  109       -2.022334   1.000000
  110       -2.014045   1.000000
  111       -1.979213   1.000000
  112       -1.890318   1.000000
  113       -1.848268   1.000000
  114       -1.767637   1.000000
  115       -1.729875   1.000000
  116       -1.651331   1.000000
  117       -1.631131   1.000000
  118       -1.499028   1.000000
  119       -1.456294   1.000000
  120       -1.431961   1.000000
  121       -1.314976   1.000000
  122       -1.036947   1.000000
  123       -0.873089   1.000000
  124       -0.828511   1.000000
  125       -0.686283   1.000000
  126       -0.618535   1.000000
  127       -0.517602   1.000000
  128       -0.373758   1.000000
  129       -0.369129   1.000000
  130       -0.130479   1.000000
  131       -0.067850   1.000000
  132       -0.065141   1.000000
  133        0.130834   1.000000
  134        0.193176   1.000000
  135        0.246217   1.000000
  136        0.338505   1.000000
  137        0.414385   1.000063
  138        0.441874   1.000283
  139        0.496652   1.003339
  140        0.520833   1.007891
  141        0.530289   1.010592
  142        0.583341   1.032514
  143        0.725290   0.465723
  144        0.762922   0.178918
  145        0.790134   0.044034
  146        0.883642  -0.021957
  147        0.939527  -0.004237
  148        0.963063  -0.001655
  149        1.090486  -0.000001
  150        1.173936  -0.000000
  151        1.210810  -0.000000
  152        1.308051  -0.000000
  153        1.317292  -0.000000
  154        1.378569  -0.000000
  155        1.390237  -0.000000
  156        1.437204  -0.000000
  157        1.526190  -0.000000
  158        1.546414  -0.000000
  159        1.592869  -0.000000
  160        1.605726  -0.000000
  161        1.650691  -0.000000
  162        1.672986  -0.000000
  163        1.698488  -0.000000
  164        1.727905  -0.000000
  165        1.748670  -0.000000
  166        1.819824  -0.000000
  167        1.846861  -0.000000
  168        1.913555  -0.000000
  169        1.960442  -0.000000
  170        1.980009  -0.000000
  171        1.989021  -0.000000
  172        2.003535  -0.000000
  173        2.032601  -0.000000
  174        2.072358  -0.000000
  175        2.074532  -0.000000
  176        2.109792  -0.000000
  177        2.139348  -0.000000
  178        2.153350  -0.000000
  179        2.245907  -0.000000
  180        2.389526  -0.000000
  181        2.555633  -0.000000
  182        2.787783  -0.000000
  183        2.800103  -0.000000
  184        2.912386  -0.000000

  0.2000000E+00  0.1111111E+00  0.1262379E-14  0.4444444E-01
    1      -13.659104   1.000000
    2      -12.957317   1.000000
    3      -12.475401   1.000000
    4      -12.079537   1.000000
    5      -11.817074   1.000000
    6      -11.676223   1.000000
    7      -11.472212   1.000000
    8      -11.140501   1.000000
    9      -11.088339   1.000000
   10      -10.981538   1.000000
   11      -10.969889   1.000000
   12      -10.934658   1.000000
   13      -10.746123   1.000000
   14      -10.559272   1.000000
   15      -10.401434   1.000000
   16      -10.374871   1.000000
   17      -10.341445   1.000000
   18       -9.733596   1.000000
   19       -9.652811   1.000000
   20       -9.615751   1.000000
   21       -9.404717   1.000000
   22       -9.343908   1.000000
   23       -9.239614   1.000000
   24       -9.237406   1.000000
   25       -8.912321   1.000000
   26       -8.810054   1.000000
   27       -8.303429   1.000000
   28       -8.177530   1.000000
   29       -8.103804   1.000000
   30       -8.066697   1.000000
   31       -8.021305   1.000000
   32       -7.713744   1.000000
   33       -7.513316   1.000000
   34       -7.474800   1.000000
   35       -7.285174   1.000000
   36       -7.230945   1.000000
   37       -7.205946   1.000000
   38       -6.890657   1.000000
   39       -6.870156   1.000000
   40       -6.782600   1.000000
   41       -6.770403   1.000000
   42       -6.619255   1.000000
   43       -6.483302   1.000000
   44       -6.469935   1.000000
   45       -6.387486   1.000000
   46       -6.318936   1.000000
   47       -6.090331   1.000000
   48       -5.901355   1.000000
   49       -5.847211   1.000000
   50       -5.748960   1.000000
   51       -5.715773   1.000000
   52       -5.670121   1.000000
   53       -5.605860   1.000000
   54       -5.533919   1.000000
   55       -5.422647   1.000000
   56       -5.397385   1.000000
   57       -5.347369   1.000000
   58       -5.219919   1.000000
   59       -5.151945   1.000000
   60       -5.066788   1.000000
   61       -5.034960   1.000000
   62       -4.974981   1.000000
   63       -4.903742   1.000000
   64       -4.847989   1.000000
   65       -4.841433   1.000000
   66       -4.631434   1.000000
   67       -4.498313   1.000000
   68       -4.493926   1.000000
   69       -4.388865   1.000000
   70       -4.336437   1.000000
   71       -4.210453   1.000000
   72       -4.199347   1.000000
   73       -4.127791   1.000000
   74       -4.102574   1.000000
   75       -3.996265   1.000000
   76       -3.993423   1.000000
   77       -3.931891   1.000000
   78       -3.931057   1.000000
   79       -3.918056   1.000000
   80       -3.894003   1.000000
   81       -3.837829   1.000000
   82       -3.812536   1.000000
   83       -3.777104   1.000000
   84       -3.733056   1.000000
   85       -3.676090   1.000000
   86       -3.623307   1.000000
   87       -3.567907   1.000000
   88       -3.489185   1.000000
   89       -3.468123   1.000000
   90       -3.434985   1.000000
   91       -3.423272   1.000000
   92       -3.323862   1.000000
   93       -3.285446   1.000000
   94       -3.244246   1.000000
   95       -3.215738   1.000000
   96       -3.047013   1.000000
   97       -2.914267   1.000000
   98       -2.842681   1.000000
   99       -2.779299   1.000000
  100       -2.751882   1.000000
  101       -2.620627   1.000000
  102       -2.569950   1.000000
  103       -2.524095   1.000000
  104       -2.470136   1.000000
  105       -2.185209   1.000000
  106       -2.180466   1.000000
  107       -2.130968   1.000000
  108       -2.051842   1.000000
  109       -2.028098   1.000000
  110       -2.022659   1.000000
  111       -1.863160   1.000000
  112       -1.793111   1.000000
  113       -1.785807   1.000000
  114       -1.736123   1.000000
  115       -1.674245   1.000000
  116       -1.662049   1.000000
  117       -1.582187   1.000000
  118       -1.551108   1.000000
  119       -1.502388   1.000000
  120       -1.346332   1.000000
  121       -1.264334   1.000000
  122       -1.037484   1.000000
  123       -0.936716   1.000000
  124       -0.833028   1.000000
  125       -0.809599   1.000000
  126       -0.714973   1.000000
  127       -0.581184   1.000000
  128       -0.553918   1.000000
  129       -0.283994   1.000000
  130       -0.242254   1.000000
  131       -0.117656   1.000000
  132        0.026954   1.000000
  133        0.119494   1.000000
  134        0.182413   1.000000
  135        0.217041   1.000000
  136        0.242642   1.000000
  137        0.291581   1.000000
  138        0.361658   1.000002
  139        0.481311   1.001795
  140        0.566773   1.025625
  141        0.634560   1.005210
  142        0.647624   0.971854
  143        0.680253   0.816641
  144        0.808340  -0.006056
  145        0.812904  -0.014180
  146        0.890824  -0.018728
  147        0.974145  -0.001016
  148        1.045795  -0.000022
  149        1.052951  -0.000014
  150        1.170596  -0.000000
  151        1.172726  -0.000000
  152        1.342999  -0.000000
  153        1.410359  -0.000000
  154        1.435192  -0.000000
  155        1.450385  -0.000000
  156        1.533879  -0.000000
  157        1.545239  -0.000000