   73   73   85    1
  0.2139262E+02  0.1053953E-08  0.6141200E-09  0.2412750E-08  0.5000000E-15
   1.0000000000000000E-004
  CAR 
 Name                                    
    283     23    184

  0.3742002E-15  0.3742002E-15  0.1262379E-14  0.2222222E-01
    1      -14.060090   1.000000
    2      -12.932769   1.000000
    3      -12.867238   1.000000
    4      -12.819167   1.000000
    5      -11.890517   1.000000
    6      -11.744935   1.000000
    7      -11.722201   1.000000
    8      -11.675030   1.000000
    9      -11.503487   1.000000
   10      -11.356543   1.000000
   11      -11.250545   1.000000
   12      -11.164230   1.000000
   13      -11.136868   1.000000
   14      -10.819047   1.000000
   15      -10.553190   1.000000
   16      -10.314354   1.000000
   17      -10.259148   1.000000
   18      -10.237835   1.000000
   19       -9.881561   1.000000
   20       -9.799275   1.000000
   21       -9.750732   1.000000
   22       -9.616523   1.000000
   23       -9.532290   1.000000
   24       -9.385087   1.000000
   25       -8.993229   1.000000
   26       -8.966178   1.000000
   27       -8.706669   1.000000
   28       -8.580741   1.000000
   29       -8.510994   1.000000
   30       -8.353371   1.000000
   31       -8.288408   1.000000
   32       -7.956093   1.000000
   33       -7.800779   1.000000
   34       -7.423480   1.000000
   35       -7.355795   1.000000
   36       -7.296490   1.000000
   37       -7.207214   1.000000
   38       -7.106592   1.000000
   39       -7.041320   1.000000
   40       -6.882684   1.000000
   41       -6.855203   1.000000
   42       -6.838286   1.000000
   43       -6.727707   1.000000
   44       -6.676930   1.000000
   45       -6.599580   1.000000
   46       -6.555087   1.000000
   47       -6.531505   1.000000
   48       -6.286721   1.000000
   49       -6.231553   1.000000
   50       -6.199457   1.000000
   51       -5.991234   1.000000
   52       -5.966838   1.000000
   53       -5.854145   1.000000
   54       -5.746493   1.000000
   55       -5.725271   1.000000
   56       -5.706631   1.000000
   57       -5.575880   1.000000
   58       -5.505944   1.000000
   59       -5.493256   1.000000
   60       -5.342047   1.000000
   61       -5.302642   1.000000
   62       -5.097141   1.000000
   63       -5.005192   1.000000
   64       -4.835069   1.000000
   65       -4.830893   1.000000
   66       -4.815390   1.000000
   67       -4.778125   1.000000
   68       -4.708325   1.000000
   69       -4.600133   1.000000
   70       -4.547511   1.000000
   71       -4.494488   1.000000
   72       -4.401607   1.000000
   73       -4.376057   1.000000
   74       -4.276453   1.000000
   75       -4.258947   1.000000
   76       -4.234333   1.000000
   77       -4.192529   1.000000
   78       -4.104833   1.000000
   79       -4.065305   1.000000
   80       -4.060477   1.000000
   81       -4.044987   1.000000
   82       -3.995952   1.000000
   83       -3.959747   1.000000
   84       -3.931135   1.000000
   85       -3.864544   1.000000
   86       -3.762751   1.000000
   87       -3.732428   1.000000
   88       -3.704717   1.000000
   89       -3.690754   1.000000
   90       -3.605935   1.000000
   91       -3.566434   1.000000
   92       -3.479683   1.000000
   93       -3.329628   1.000000
   94       -3.180576   1.000000
   95       -3.149938   1.000000
   96       -3.104443   1.000000
   97       -2.959598   1.000000
   98       -2.882234   1.000000
   99       -2.865870   1.000000
  100       -2.847176   1.000000
  101       -2.729177   1.000000
  102       -2.562844   1.000000
  103       -2.536632   1.000000
  104       -2.510370   1.000000
  105       -2.501484   1.000000
  106       -2.411605   1.000000
  107       -2.271213   1.000000
  108       -2.253694   1.000000
  109       -2.250131   1.000000
  110       -2.119961   1.000000
  111       -2.083700   1.000000
  112       -2.059639   1.000000
  113       -2.003373   1.000000
  114       -1.930083   1.000000
  115       -1.889394   1.000000
  116       -1.844212   1.000000
  117       -1.768159   1.000000
  118       -1.734551   1.000000
  119       -1.705677   1.000000
  120       -1.577968   1.000000
  121       -1.381846   1.000000
  122       -1.154352   1.000000
  123       -1.115134   1.000000
  124       -0.957240   1.000000
  125       -0.879724   1.000000
  126       -0.850298   1.000000
  127       -0.837893   1.000000
  128       -0.568203   1.000000
  129       -0.497214   1.000000
  130       -0.469870   1.000000
  131       -0.327389   1.000000
  132       -0.291047   1.000000
  133       -0.220944   1.000000
  134       -0.132741   1.000000
  135        0.063580   1.000361
  136        0.102290   1.002129
  137        0.152275   1.012285
  138        0.203969   1.033672
  139        0.209739   1.034961
  140        0.239487   1.023661
  141        0.282507   0.899406
  142        0.381666   0.167443
  143        0.422626  -0.000672
  144        0.467308  -0.034827
  145        0.493946  -0.025002
  146        0.533848  -0.009158
  147        0.546169  -0.006113
  148        0.634121  -0.000117
  149        0.690967  -0.000004
  150        0.695796  -0.000003
  151        0.913894  -0.000000
  152        0.967928  -0.000000
  153        1.042922  -0.000000
  154        1.057176  -0.000000
  155        1.093096  -0.000000
  156        1.144370  -0.000000
  157        1.197860  -0.000000
  158        1.218753  -0.000000
  159        1.237936  -0.000000
  160        1.292440  -0.000000
  161        1.318751  -0.000000
  162        1.337465  -0.000000
  163        1.392690  -0.000000
  164        1.453865  -0.000000
  165        1.537206  -0.000000
  166        1.580239  -0.000000
  167        1.590161  -0.000000
  168        1.599175  -0.000000
  169        1.603202  -0.000000
  170        1.628858  -0.000000
  171        1.662258  -0.000000
  172        1.671008  -0.000000
  173        1.697398  -0.000000
  174        1.736039  -0.000000
  175        1.782228  -0.000000
  176        1.840755  -0.000000
  177        1.883784  -0.000000
  178        1.923999  -0.000000
  179        1.927562  -0.000000
  180        1.974579  -0.000000
  181        2.033310  -0.000000
  182        2.135384  -0.000000
  183        2.174059  -0.000000
  184        2.243302  -0.000000

  0.2000000E+00  0.3742002E-15  0.1262379E-14  0.4444444E-01
    1      -14.011620   1.000000
    2      -13.306303   1.000000
    3      -12.775083   1.000000
    4      -12.420845   1.000000
    5      -12.115642   1.000000
    6      -11.880269   1.000000
    7      -11.726659   1.000000
    8      -11.434359   1.000000
    9      -11.354000   1.000000
   10      -11.283196   1.000000
   11      -11.211630   1.000000
   12      -11.205380   1.000000
   13      -11.049945   1.000000
   14      -10.884340   1.000000
   15      -10.683720   1.000000
   16      -10.624541   1.000000
   17      -10.617442   1.000000
   18       -9.912985   1.000000
   19       -9.835954   1.000000
   20       -9.775868   1.000000
   21       -9.612852   1.000000
   22       -9.583029   1.000000
   23       -9.526122   1.000000
   24       -9.481946   1.000000
   25       -9.160993   1.000000
   26       -8.922702   1.000000
   27       -8.541918   1.000000
   28       -8.454090   1.000000
   29       -8.307212   1.000000
   30       -8.245680   1.000000
   31       -8.236215   1.000000
   32       -8.206997   1.000000
   33       -7.702227   1.000000
   34       -7.615325   1.000000
   35       -7.468592   1.000000
   36       -7.374235   1.000000
   37       -7.318467   1.000000
   38       -7.233208   1.000000
   39       -7.124928   1.000000
   40       -6.943345   1.000000
   41       -6.839959   1.000000
   42       -6.798953   1.000000
   43       -6.754793   1.000000
   44       -6.650738   1.000000
   45       -6.605541   1.000000
   46       -6.520549   1.000000
   47       -6.319098   1.000000
   48       -6.308140   1.000000
   49       -6.209745   1.000000
   50       -6.164961   1.000000
   51       -5.951790   1.000000
   52       -5.897225   1.000000
   53       -5.804734   1.000000
   54       -5.752047   1.000000
   55       -5.665109   1.000000
   56       -5.610405   1.000000
   57       -5.560568   1.000000
   58       -5.497818   1.000000
   59       -5.473709   1.000000
   60       -5.336986   1.000000
   61       -5.299274   1.000000
   62       -5.262167   1.000000
   63       -4.988024   1.000000
   64       -4.941794   1.000000
   65       -4.881379   1.000000
   66       -4.796862   1.000000
   67       -4.783297   1.000000
   68       -4.708061   1.000000
   69       -4.632970   1.000000
   70       -4.469301   1.000000
   71       -4.454252   1.000000
   72       -4.370986   1.000000
   73       -4.345666   1.000000
   74       -4.306005   1.000000
   75       -4.283686   1.000000
   76       -4.237988   1.000000
   77       -4.204740   1.000000
   78       -4.083803   1.000000
   79       -4.075901   1.000000
   80       -4.056196   1.000000
   81       -4.040144   1.000000
   82       -4.018063   1.000000
   83       -3.954093   1.000000
   84       -3.893918   1.000000
   85       -3.827627   1.000000
   86       -3.741061   1.000000
   87       -3.730178   1.000000
   88       -3.713665   1.000000
   89       -3.664733   1.000000
   90       -3.626540   1.000000
   91       -3.607117   1.000000
   92       -3.545538   1.000000
   93       -3.297898   1.000000
   94       -3.270419   1.000000
   95       -3.227213   1.000000
   96       -3.103903   1.000000
   97       -3.049679   1.000000
   98       -2.946468   1.000000
   99       -2.876372   1.000000
  100       -2.863641   1.000000
  101       -2.803680   1.000000
  102       -2.562068   1.000000
  103       -2.465567   1.000000
  104       -2.405500   1.000000
  105       -2.391001   1.000000
  106       -2.337521   1.000000
  107       -2.329268   1.000000
  108       -2.267033   1.000000
  109       -2.169623   1.000000
  110       -2.112971   1.000000
  111       -2.050618   1.000000
  112       -2.022805   1.000000
  113       -1.952550   1.000000
  114       -1.868572   1.000000
  115       -1.856168   1.000000
  116       -1.835970   1.000000
  117       -1.784235   1.000000
  118       -1.697901   1.000000
  119       -1.586174   1.000000
  120       -1.494109   1.000000
  121       -1.379314   1.000000
  122       -1.217026   1.000000
  123       -1.160886   1.000000
  124       -0.997971   1.000000
  125       -0.958543   1.000000
  126       -0.908347   1.000000
  127       -0.875901   1.000000
  128       -0.662220   1.000000
  129       -0.575506   1.000000
  130       -0.567920   1.000000
  131       -0.484074   1.000000
  132       -0.375822   1.000000
  133       -0.307452   1.000000
  134       -0.214862   1.000000
  135       -0.075193   1.000000
  136        0.021451   1.000036
  137        0.166806   1.017974
  138        0.210600   1.035090
  139        0.255155   0.997272
  140        0.314864   0.691109
  141        0.391409   0.112428
  142        0.445325  -0.031073
  143        0.483868  -0.029503
  144        0.538369  -0.007933
  145        0.546965  -0.005947
  146        0.555244  -0.004425
  147        0.577693  -0.001823
  148        0.595368  -0.000833
  149        0.649156  -0.000050
  150        0.746127  -0.000000
  151        0.973333  -0.000000
  152        1.030555  -0.000000
  153        1.060730  -0.000000
  154        1.143821  -0.000000
  155        1.153958  -0.000000
  156        1.170852  -0.000000
  157        1.177387  -0.000000
  158        1.191991  -0.000000
  159        1.292379  -0.000000
  160        1.341275  -0.000000
  161        1.364404  -0.000000
  162        1.394711  -0.000000
  163        1.438728  -0.000000
  164        1.464912  -0.000000
  165        1.508570  -0.000000
  166        1.548386  -0.000000
  167        1.577405  -0.000000
  168        1.596872  -0.000000
  169        1.617531  -0.000000
  170        1.636454  -0.000000
  171        1.679902  -0.000000
  172        1.740818  -0.000000
  173        1.756057  -0.000000
  174        1.785773  -0.000000
  175        1.791805  -0.000000
  176        1.856778  -0.000000
  177        1.875982  -0.000000
  178        1.918046  -0.000000
  179        1.930527  -0.000000
  180        1.945506  -0.000000
  181        2.045516  -0.000000
  182        2.066370  -0.000000
  183        2.113146  -0.000000
  184        2.144004  -0.000000

  0.4000000E+00  0.3742002E-15  0.1262379E-14  0.4444444E-01
    1      -13.867313   1.000000
    2      -13.630378   1.000000
    3      -12.641445   1.000000
    4      -12.419675   1.000000
    5      -11.882148   1.000000
    6      -11.849292   1.000000
    7      -11.796860   1.000000
    8      -11.355786   1.000000
    9      -11.346131   1.000000
   10      -11.295081   1.000000
   11      -11.176988   1.000000
   12      -11.100811   1.000000
   13      -11.032460   1.000000
   14      -10.919755   1.000000
   15      -10.901827   1.000000
   16      -10.763710   1.000000
   17      -10.743444   1.000000
   18      -10.186440   1.000000
   19       -9.836716   1.000000
   20       -9.749149   1.000000
   21       -9.604819   1.000000
   22       -9.527107   1.000000
   23       -9.430883   1.000000
   24       -9.350554   1.000000
   25       -9.130171   1.000000
   26       -8.900398   1.000000
   27       -8.468737   1.000000
   28       -8.345428   1.000000
   29       -8.104347   1.000000
   30       -8.035770   1.000000
   31       -8.000407   1.000000
   32       -7.990842   1.000000
   33       -7.926180   1.000000
   34       -7.843116   1.000000
   35       -7.730506   1.000000
   36       -7.719876   1.000000
   37       -7.541418   1.000000
   38       -7.382474   1.000000
   39       -7.287799   1.000000
   40       -7.000325   1.000000
   41       -6.854053   1.000000
   42       -6.692679   1.000000
   43       -6.664866   1.000000
   44       -6.624539   1.000000
   45       -6.447441   1.000000
   46       -6.377906   1.000000
   47       -6.320641   1.000000
   48       -6.208965   1.000000
   49       -6.150014   1.000000
   50       -6.095444   1.000000
   51       -5.990149   1.000000
   52       -5.961406   1.000000
   53       -5.845446   1.000000
   54       -5.815904   1.000000
   55       -5.648344   1.000000
   56       -5.586872   1.000000
   57       -5.480365   1.000000
   58       -5.462181   1.000000
   59       -5.378120   1.000000
   60       -5.293938   1.000000
   61       -5.205071   1.000000
   62       -5.134138   1.000000
   63       -5.043770   1.000000
   64       -5.004972   1.000000
   65       -4.894758   1.000000
   66       -4.859603   1.000000
   67       -4.814472   1.000000
   68       -4.688943   1.000000
   69       -4.636380   1.000000
   70       -4.559108   1.000000
   71       -4.504775   1.000000
   72       -4.422584   1.000000
   73       -4.368951   1.000000
   74       -4.280100   1.000000
   75       -4.264620   1.000000
   76       -4.243456   1.000000
   77       -4.223309   1.000000
   78       -4.095142   1.000000
   79       -4.076913   1.000000
   80       -4.059719   1.000000
   81       -4.009738   1.000000
   82       -3.980183   1.000000
   83       -3.952327   1.000000
   84       -3.841628   1.000000
   85       -3.790966   1.000000
   86       -3.737615   1.000000
   87       -3.718914   1.000000
   88       -3.704335   1.000000
   89       -3.702411   1.000000
   90       -3.550164   1.000000
   91       -3.530092   1.000000
   92       -3.446020   1.000000
   93       -3.397065   1.000000
   94       -3.389924   1.000000
   95       -3.304375   1.000000
   96       -3.298240   1.000000
   97       -3.201722   1.000000
   98       -3.089819   1.000000
   99       -2.990492   1.000000
  100       -2.897758   1.000000
  101       -2.654219   1.000000
  102       -2.553488   1.000000
  103       -2.514409   1.000000
  104       -2.403175   1.000000
  105       -2.382711   1.000000
  106       -2.213464   1.000000
  107       -2.169772   1.000000
  108       -2.148223   1.000000
  109       -2.078782   1.000000
  110       -1.988058   1.000000
  111       -1.962520   1.000000
  112       -1.924709   1.000000
  113       -1.905250   1.000000
  114       -1.893341   1.000000
  115       -1.851816   1.000000
  116       -1.769768   1.000000
  117       -1.659477   1.000000
  118       -1.503431   1.000000
  119       -1.449073   1.000000
  120       -1.393366   1.000000
  121       -1.377834   1.000000
  122       -1.318020   1.000000
  123       -1.222617   1.000000
  124       -1.181395   1.000000
  125       -1.113819   1.000000
  126       -0.998267   1.000000
  127       -0.973669   1.000000
  128       -0.952031   1.000000
  129       -0.796650   1.000000
  130       -0.765651   1.000000
  131       -0.585374   1.000000
  132       -0.514746   1.000000
  133       -0.326522   1.000000
  134       -0.279484   1.000000
  135       -0.108157   1.000000
  136        0.111536   1.003089
  137        0.144743   1.009841
  138        0.175451   1.021832
  139        0.209242   1.034878
  140        0.269380   0.955435
  141        0.350849   0.393324
  142        0.417259   0.012213
  143        0.459790  -0.035448
  144        0.566647  -0.002864
  145        0.575732  -0.001979
  146        0.603735  -0.000561
  147        0.668167  -0.000016
  148        0.800546  -0.000000
  149        0.830333  -0.000000
  150        0.842453  -0.000000
  151        0.935550  -0.000000
  152        1.065735  -0.000000
  153        1.086461  -0.000000
  154        1.163910  -0.000000
  155        1.207954  -0.000000
  156        1.252095  -0.000000
  157        1.275000  -0.000000
  158        1.349221  -0.000000
  159        1.375917  -0.000000
  160        1.398628  -0.000000
  161        1.435705  -0.000000
  162        1.453140  -0.000000
  163        1.480733  -0.000000
  164        1.505061  -0.000000
  165        1.523534  -0.000000
  166        1.538531  -0.000000
  167        1.588645  -0.000000
  168        1.622273  -0.000000
  169        1.645643  -0.000000
  170        1.675622  -0.000000
  171        1.684809  -0.000000
  172        1.691288  -0.000000
  173        1.776969  -0.000000
  174        1.794607  -0.000000
  175        1.819550  -0.000000
  176        1.838221  -0.000000
  177        1.869415  -0.000000
  178        1.894310  -0.000000
  179        1.920589  -0.000000
  180        1.936184  -0.000000
  181        1.970331  -0.000000
  182        1.984127  -0.000000
  183        2.099436  -0.000000
  184        2.158879  -0.000000

  0.3742002E-15  0.1111111E+00  0.1262379E-14  0.4444444E-01
    1      -14.013246   1.000000
    2      -12.893021   1.000000
    3      -12.834244   1.000000
    4      -12.779788   1.000000
    5      -11.995959   1.000000
    6      -11.717418   1.000000
    7      -11.711387   1.000000
    8      -11.691491   1.000000
    9      -11.542458   1.000000
   10      -11.401619   1.000000
   11      -11.225790   1.000000
   12      -11.173527   1.000000
   13      -11.140276   1.000000
   14      -10.791066   1.000000
   15      -10.574524   1.000000
   16      -10.292210   1.000000
   17      -10.239890   1.000000
   18      -10.198806   1.000000
   19       -9.866154   1.000000
   20       -9.804841   1.000000
   21       -9.784991   1.000000
   22       -9.646118   1.000000
   23       -9.546560   1.000000
   24       -9.370235   1.000000
   25       -9.014728   1.000000
   26       -8.943726   1.000000
   27       -8.705333   1.000000
   28       -8.581948   1.000000
   29       -8.497275   1.000000
   30       -8.384630   1.000000
   31       -8.115656   1.000000
   32       -7.972773   1.000000
   33       -7.905954   1.000000
   34       -7.509188   1.000000
   35       -7.463074   1.000000
   36       -7.332615   1.000000
   37       -7.176669   1.000000
   38       -7.089638   1.000000
   39       -7.027793   1.000000
   40       -6.843929   1.000000
   41       -6.823649   1.000000
   42       -6.773034   1.000000
   43       -6.732019   1.000000
   44       -6.681737   1.000000
   45       -6.593512   1.000000
   46       -6.536691   1.000000
   47       -6.531777   1.000000
   48       -6.291333   1.000000
   49       -6.280761   1.000000
   50       -6.135270   1.000000
   51       -5.987591   1.000000
   52       -5.941726   1.000000
   53       -5.825673   1.000000
   54       -5.759875   1.000000
   55       -5.709392   1.000000
   56       -5.690553   1.000000
   57       -5.535481   1.000000
   58       -5.482394   1.000000
   59       -5.414566   1.000000
   60       -5.310077   1.000000
   61       -5.284368   1.000000
   62       -5.102051   1.000000
   63       -4.969052   1.000000
   64       -4.917339   1.000000
   65       -4.786082   1.000000
   66       -4.773384   1.000000
   67       -4.725747   1.000000
   68       -4.705598   1.000000
   69       -4.624059   1.000000
   70       -4.522512   1.000000
   71       -4.491030   1.000000
   72       -4.445004   1.000000
   73       -4.398367   1.000000
   74       -4.306458   1.000000
   75       -4.288630   1.000000
   76       -4.243445   1.000000
   77       -4.195186   1.000000
   78       -4.182794   1.000000
   79       -4.166849   1.000000
   80       -4.134788   1.000000
   81       -4.106555   1.000000
   82       -4.074071   1.000000
   83       -3.904956   1.000000
   84       -3.884862   1.000000
   85       -3.858249   1.000000
   86       -3.815169   1.000000
   87       -3.751439   1.000000
   88       -3.724803   1.000000
   89       -3.663072   1.000000
   90       -3.649873   1.000000
   91       -3.620215   1.000000
   92       -3.539678   1.000000
   93       -3.380975   1.000000
   94       -3.130252   1.000000
   95       -3.057242   1.000000
   96       -3.020093   1.000000
   97       -2.909648   1.000000
   98       -2.890751   1.000000
   99       -2.848255   1.000000
  100       -2.815567   1.000000
  101       -2.738599   1.000000
  102       -2.653311   1.000000
  103       -2.639704   1.000000
  104       -2.524124   1.000000
  105       -2.441646   1.000000
  106       -2.385737   1.000000
  107       -2.354782   1.000000
  108       -2.320561   1.000000
  109       -2.244017   1.000000
  110       -2.172311   1.000000
  111       -2.163066   1.000000
  112       -2.086240   1.000000
  113       -1.968210   1.000000
  114       -1.965428   1.000000
  115       -1.871857   1.000000
  116       -1.863388   1.000000
  117       -1.692045   1.000000
  118       -1.683405   1.000000
  119       -1.656247   1.000000
  120       -1.514366   1.000000
  121       -1.380420   1.000000
  122       -1.122675   1.000000
  123       -1.098654   1.000000
  124       -0.972537   1.000000
  125       -0.897569   1.000000
  126       -0.879175   1.000000
  127       -0.805706   1.000000
  128       -0.718377   1.000000
  129       -0.619055   1.000000
  130       -0.454910   1.000000
  131       -0.350329   1.000000
  132       -0.330404   1.000000
  133       -0.135120   1.000000
  134       -0.084854   1.000000
  135        0.002784   1.000011
  136        0.084196   1.000970
  137        0.114649   1.003484
  138        0.149028   1.011186
  139        0.160587   1.015394
  140        0.190501   1.028695
  141        0.281106   0.906212
  142        0.303438   0.774919
  143        0.452234  -0.034251
  144        0.458860  -0.035410
  145        0.461681  -0.035440
  146        0.572047  -0.002304
  147        0.647864  -0.000054
  148        0.668897  -0.000015
  149        0.840555  -0.000000
  150        0.872179  -0.000000
  151        0.961216  -0.000000
  152        0.972689  -0.000000
  153        0.991931  -0.000000
  154        1.100324  -0.000000
  155        1.139679  -0.000000
  156        1.146127  -0.000000
  157        1.178181  -0.000000
  158        1.204607  -0.000000
  159        1.313567  -0.000000
  160        1.327392  -0.000000
  161        1.332822  -0.000000
  162        1.346760  -0.000000
  163        1.373790  -0.000000
  164        1.383110  -0.000000
  165        1.476177  -0.000000
  166        1.527806  -0.000000
  167        1.563593  -0.000000
  168        1.609147  -0.000000
  169        1.633775  -0.000000
  170        1.650943  -0.000000
  171        1.684870  -0.000000
  172        1.697340  -0.000000
  173        1.735376  -0.000000
  174        1.760058  -0.000000
  175        1.780771  -0.000000
  176        1.806760  -0.000000
  177        1.816145  -0.000000
  178        1.873654  -0.000000
  179        1.894351  -0.000000
  180        1.923843  -0.000000
  181        1.956690  -0.000000
  182        2.050646  -0.000000
  183        2.110861  -0.000000
  184        2.287146  -0.000000

  0.2000000E+00  0.1111111E+00  0.1262379E-14  0.4444444E-01
    1      -13.965174   1.000000
    2      -13.265917   1.000000
    3      -12.735996   1.000000
    4      -12.389464   1.000000
    5      -12.084510   1.000000
    6      -11.979340   1.000000
    7      -11.780727   1.000000
    8      -11.455715   1.000000
    9      -11.396130   1.000000
   10      -11.259110   1.000000
   11      -11.231355   1.000000
   12      -11.180736   1.000000
   13      -11.047306   1.000000
   14      -10.862985   1.000000
   15      -10.661633   1.000000
   16      -10.631668   1.000000
   17      -10.600810   1.000000
   18       -9.900636   1.000000
   19       -9.828655   1.000000
   20       -9.783309   1.000000
   21       -9.640099   1.000000
   22       -9.575193   1.000000
   23       -9.532476   1.000000
   24       -9.484719   1.000000
   25       -9.160533   1.000000
   26       -8.926150   1.000000
   27       -8.540039   1.000000
   28       -8.453513   1.000000
   29       -8.313327   1.000000
   30       -8.258506   1.000000
   31       -8.239746   1.000000
   32       -8.050299   1.000000
   33       -7.795981   1.000000
   34       -7.696139   1.000000
   35       -7.531091   1.000000
   36       -7.397630   1.000000
   37       -7.228356   1.000000
   38       -7.215435   1.000000
   39       -7.103418   1.000000
   40       -6.933925   1.000000
   41       -6.827352   1.000000
   42       -6.772397   1.000000
   43       -6.750378   1.000000
   44       -6.721564   1.000000
   45       -6.668139   1.000000
   46       -6.599217   1.000000
   47       -6.349659   1.000000
   48       -6.255023   1.000000
   49       -6.114072   1.000000
   50       -6.077928   1.000000
   51       -5.938159   1.000000
   52       -5.895693   1.000000
   53       -5.788397   1.000000
   54       -5.774554   1.000000
   55       -5.636528   1.000000
   56       -5.611910   1.000000
   57       -5.540435   1.000000
   58       -5.432392   1.000000
   59       -5.406467   1.000000
   60       -5.326256   1.000000
   61       -5.286063   1.000000
   62       -5.249906   1.000000
   63       -4.992400   1.000000
   64       -4.929558   1.000000
   65       -4.854120   1.000000
   66       -4.784270   1.000000
   67       -4.712845   1.000000
   68       -4.689206   1.000000
   69       -4.620762   1.000000
   70       -4.489350   1.000000
   71       -4.481836   1.000000
   72       -4.378372   1.000000
   73       -4.366378   1.000000
   74       -4.303813   1.000000
   75       -4.277465   1.000000
   76       -4.266564   1.000000
   77       -4.248011   1.000000
   78       -4.218525   1.000000
   79       -4.168212   1.000000
   80       -4.136730   1.000000
   81       -4.105017   1.000000
   82       -3.987435   1.000000
   83       -3.949286   1.000000
   84       -3.884714   1.000000
   85       -3.855165   1.000000
   86       -3.772917   1.000000
   87       -3.753465   1.000000
   88       -3.737059   1.000000
   89       -3.706215   1.000000
   90       -3.640022   1.000000
   91       -3.600082   1.000000
   92       -3.508493   1.000000
   93       -3.338768   1.000000
   94       -3.229546   1.000000
   95       -3.131480   1.000000
   96       -3.070737   1.000000
   97       -3.045679   1.000000
   98       -2.965144   1.000000
   99       -2.904272   1.000000
  100       -2.883857   1.000000
  101       -2.785321   1.000000
  102       -2.596975   1.000000
  103       -2.504231   1.000000
  104       -2.484545   1.000000
  105       -2.415719   1.000000
  106       -2.393583   1.000000
  107       -2.280344   1.000000
  108       -2.225881   1.000000
  109       -2.173948   1.000000
  110       -2.157979   1.000000
  111       -2.099349   1.000000
  112       -2.043529   1.000000
  113       -1.957487   1.000000
  114       -1.928390   1.000000
  115       -1.867379   1.000000
  116       -1.824763   1.000000
  117       -1.779600   1.000000
  118       -1.709470   1.000000
  119       -1.526005   1.000000
  120       -1.457763   1.000000
  121       -1.382254   1.000000
  122       -1.175711   1.000000
  123       -1.124844   1.000000
  124       -1.053125   1.000000
  125       -1.002824   1.000000
  126       -0.942779   1.000000
  127       -0.883365   1.000000
  128       -0.791791   1.000000
  129       -0.586223   1.000000
  130       -0.522754   1.000000
  131       -0.370988   1.000000
  132       -0.314446   1.000000
  133       -0.171017   1.000000
  134       -0.131943   1.000000
  135       -0.078300   1.000000
  136       -0.050850   1.000000
  137        0.045742   1.000142
  138        0.115552   1.003607
  139        0.164034   1.016800
  140        0.328793   0.578633
  141        0.342905   0.459641
  142        0.368295   0.257144
  143        0.407071   0.043878
  144        0.498953  -0.022685
  145        0.513142  -0.016420
  146        0.580316  -0.001630
  147        0.721496  -0.000000
  148        0.734831  -0.000000
  149        0.764019  -0.000000
  150        0.864612  -0.000000
  151        0.931330  -0.000000
  152        1.006262  -0.000000
  153        1.082157  -0.000000
  154        1.148617  -0.000000
  155        1.186477  -0.000000
  156        1.215114  -0.000000
  157        1.238451  -0.000000