 running on   72 total cores
 distrk:  each k-point on   72 cores,    1 groups
 distr:  one band on    9 cores,    8 groups
 using from now: INCAR     
 vasp.5.4.4.18Apr17-6-g9f103f2a35 (build Dec  7 2020 12:43:57) complex           
 POSCAR found type information on POSCAR  Mo V  B  H 
 POSCAR found :  4 types and      73 ions
 scaLAPACK will be used
 LDA part: xc-table for Pade appr. of Perdew
 POSCAR, INCAR and KPOINTS ok, starting setup
 resort distribution
 resort distribution
 resort distribution
 resort distribution
 resort distribution
 resort distribution
 resort distribution
 resort distribution
 resort distribution
 resort distribution
 resort distribution
 resort distribution
 resort distribution
 resort distribution
 resort distribution
 resort distribution
 resort distribution
 resort distribution
 resort distribution
 resort distribution
 resort distribution
 resort distribution
 resort distribution
 resort distribution
 resort distribution
 resort distribution
 resort distribution
 resort distribution
 resort distribution
 resort distribution
 resort distribution
 resort distribution
 resort distribution
 resort distribution
 resort distribution
 resort distribution
 resort distribution
 resort distribution
 resort distribution
 resort distribution
 resort distribution
 resort distribution
 resort distribution
 resort distribution
 resort distribution
 resort distribution
 resort distribution
 resort distribution
 resort distribution
 resort distribution
 resort distribution
 resort distribution
 resort distribution
 resort distribution
 resort distribution
 resort distribution
 resort distribution
 resort distribution
 resort distribution
 resort distribution
 resort distribution
 resort distribution
 resort distribution
 resort distribution
 resort distribution
 resort distribution
 resort distribution
 resort distribution
 resort distribution
 resort distribution
 resort distribution
 resort distribution
 FFT: planning ...
 WAVECAR not read
 augmentation electrons   283.03520657121902     
 soft         electrons   0.0000000000000000     
 augmentation electrons   283.03520657121902     
 soft         electrons   0.0000000000000000     
 augmentation electrons   283.03520657121902     
 soft         electrons   0.0000000000000000     
 augmentation electrons   283.03520657121902     
 soft         electrons   0.0000000000000000     
 augmentation electrons   283.03520657121902     
 soft         electrons   0.0000000000000000     
 augmentation electrons   283.03520657121902     
 soft         electrons   0.0000000000000000     
 augmentation electrons   283.03520657121902     
 soft         electrons   0.0000000000000000     
 augmentation electrons   283.03520657121902     
 soft         electrons   0.0000000000000000     
 augmentation electrons   283.03520657121902     
 soft         electrons   0.0000000000000000     
 augmentation electrons   283.03520657121902     
 soft         electrons   0.0000000000000000     
 augmentation electrons   283.03520657121902     
 soft         electrons   0.0000000000000000     
 augmentation electrons   283.03520657121902     
 soft         electrons   0.0000000000000000     
 augmentation electrons   283.03520657121902     
 soft         electrons   0.0000000000000000     
 augmentation electrons   283.03520657121902     
 soft         electrons   0.0000000000000000     
 augmentation electrons   283.03520657121902     
 soft         electrons   0.0000000000000000     
 augmentation electrons   283.03520657121902     
 soft         electrons   0.0000000000000000     
 augmentation electrons   283.03520657121902     
 soft         electrons   0.0000000000000000     
 augmentation electrons   283.03520657121902     
 soft         electrons   0.0000000000000000     
 augmentation electrons   283.03520657121902     
 soft         electrons   0.0000000000000000     
 augmentation electrons   283.03520657121902     
 soft         electrons   0.0000000000000000     
 augmentation electrons   283.03520657121902     
 soft         electrons   0.0000000000000000     
 augmentation electrons   283.03520657121902     
 soft         electrons   0.0000000000000000     
 augmentation electrons   283.03520657121902     
 soft         electrons   0.0000000000000000     
 augmentation electrons   283.03520657121902     
 soft         electrons   0.0000000000000000     
 augmentation electrons   283.03520657121902     
 soft         electrons   0.0000000000000000     
 augmentation electrons   283.03520657121902     
 soft         electrons   0.0000000000000000     
 augmentation electrons   283.03520657121902     
 soft         electrons   0.0000000000000000     
 augmentation electrons   283.03520657121902     
 soft         electrons   0.0000000000000000     
 augmentation electrons   283.03520657121902     
 soft         electrons   0.0000000000000000     
 augmentation electrons   283.03520657121902     
 soft         electrons   0.0000000000000000     
 augmentation electrons   283.03520657121902     
 soft         electrons   0.0000000000000000     
 augmentation electrons   283.03520657121902     
 soft         electrons   0.0000000000000000     
 augmentation electrons   283.03520657121902     
 soft         electrons   0.0000000000000000     
 augmentation electrons   283.03520657121902     
 soft         electrons   0.0000000000000000     
 augmentation electrons   283.03520657121902     
 soft         electrons   0.0000000000000000     
 augmentation electrons   283.03520657121902     
 soft         electrons   0.0000000000000000     
 augmentation electrons   283.03520657121902     
 soft         electrons   0.0000000000000000     
 augmentation electrons   283.03520657121902     
 soft         electrons   0.0000000000000000     
 augmentation electrons   283.03520657121902     
 soft         electrons   0.0000000000000000     
 augmentation electrons   283.03520657121902     
 soft         electrons   0.0000000000000000     
 augmentation electrons   283.03520657121902     
 soft         electrons   0.0000000000000000     
 augmentation electrons   283.03520657121902     
 soft         electrons   0.0000000000000000     
 augmentation electrons   283.03520657121902     
 soft         electrons   0.0000000000000000     
 augmentation electrons   283.03520657121902     
 soft         electrons   0.0000000000000000     
 augmentation electrons   283.03520657121902     
 soft         electrons   0.0000000000000000     
 augmentation electrons   283.03520657121902     
 soft         electrons   0.0000000000000000     
 augmentation electrons   283.03520657121902     
 soft         electrons   0.0000000000000000     
 augmentation electrons   283.03520657121902     
 soft         electrons   0.0000000000000000     
 augmentation electrons   283.03520657121902     
 soft         electrons   0.0000000000000000     
 augmentation electrons   283.03520657121902     
 soft         electrons   0.0000000000000000     
 augmentation electrons   283.03520657121902     
 soft         electrons   0.0000000000000000     
 augmentation electrons   283.03520657121902     
 soft         electrons   0.0000000000000000     
 augmentation electrons   283.03520657121902     
 soft         electrons   0.0000000000000000     
 augmentation electrons   283.03520657121902     
 soft         electrons   0.0000000000000000     
 augmentation electrons   283.03520657121902     
 soft         electrons   0.0000000000000000     
 augmentation electrons   283.03520657121902     
 soft         electrons   0.0000000000000000     
 augmentation electrons   283.03520657121902     
 soft         electrons   0.0000000000000000     
 augmentation electrons   283.03520657121902     
 soft         electrons   0.0000000000000000     
 augmentation electrons   283.03520657121902     
 soft         electrons   0.0000000000000000     
 augmentation electrons   283.03520657121902     
 soft         electrons   0.0000000000000000     
 augmentation electrons   283.03520657121902     
 soft         electrons   0.0000000000000000     
 augmentation electrons   283.03520657121902     
 soft         electrons   0.0000000000000000     
 augmentation electrons   283.03520657121902     
 soft         electrons   0.0000000000000000     
 augmentation electrons   283.03520657121902     
 soft         electrons   0.0000000000000000     
 augmentation electrons   283.03520657121902     
 augmentation electrons   283.03520657121902     
 soft         electrons   0.0000000000000000     
 augmentation electrons   283.03520657121902     
 soft         electrons   0.0000000000000000     
 augmentation electrons   283.03520657121902     
 soft         electrons   0.0000000000000000     
 augmentation electrons   283.03520657121902     
 soft         electrons   0.0000000000000000     
 augmentation electrons   283.03520657121902     
 soft         electrons   0.0000000000000000     
 augmentation electrons   283.03520657121902     
 soft         electrons   0.0000000000000000     
 augmentation electrons   283.03520657121902     
 soft         electrons   0.0000000000000000     
 soft         electrons   0.0000000000000000     
 total        electrons   283.03520657121902     
 total        electrons   283.03520657121902     
 total        electrons   283.03520657121902     
 total        electrons   283.03520657121902     
 total        electrons   283.03520657121902     
 total        electrons   283.03520657121902     
 total        electrons   283.03520657121902     
 total        electrons   283.03520657121902     
 total        electrons   283.03520657121902     
 total        electrons   283.03520657121902     
 total        electrons   283.03520657121902     
 total        electrons   283.03520657121902     
 total        electrons   283.03520657121902     
 total        electrons   283.03520657121902     
 total        electrons   283.03520657121902     
 total        electrons   283.03520657121902     
 total        electrons   283.03520657121902     
 total        electrons   283.03520657121902     
 total        electrons   283.03520657121902     
 total        electrons   283.03520657121902     
 total        electrons   283.03520657121902     
 total        electrons   283.03520657121902     
 total        electrons   283.03520657121902     
 total        electrons   283.03520657121902     
 total        electrons   283.03520657121902     
 total        electrons   283.03520657121902     
 total        electrons   283.03520657121902     
 total        electrons   283.03520657121902     
 total        electrons   283.03520657121902     
 total        electrons   283.03520657121902     
 total        electrons   283.03520657121902     
 total        electrons   283.03520657121902     
 total        electrons   283.03520657121902     
 total        electrons   283.03520657121902     
 total        electrons   283.03520657121902     
 total        electrons   283.03520657121902     
 total        electrons   283.03520657121902     
 total        electrons   283.03520657121902     
 total        electrons   283.03520657121902     
 total        electrons   283.03520657121902     
 total        electrons   283.03520657121902     
 total        electrons   283.03520657121902     
 total        electrons   283.03520657121902     
 total        electrons   283.03520657121902     
 total        electrons   283.03520657121902     
 total        electrons   283.03520657121902     
 total        electrons   283.03520657121902     
 total        electrons   283.03520657121902     
 total        electrons   283.03520657121902     
 total        electrons   283.03520657121902     
 total        electrons   283.03520657121902     
 total        electrons   283.03520657121902     
 total        electrons   283.03520657121902     
 total        electrons   283.03520657121902     
 total        electrons   283.03520657121902     
 total        electrons   283.03520657121902     
 total        electrons   283.03520657121902     
 total        electrons   283.03520657121902     
 total        electrons   283.03520657121902     
 total        electrons   283.03520657121902     
 total        electrons   283.03520657121902     
 total        electrons   283.03520657121902     
 total        electrons   283.03520657121902     
 total        electrons   283.03520657121902     
 total        electrons   283.03520657121902     
 total        electrons   283.03520657121902     
 total        electrons   283.03520657121902     
 total        electrons   283.03520657121902     
 total        electrons   283.03520657121902     
 total        electrons   283.03520657121902     
 total        electrons   283.03520657121902     
 total        electrons   283.03520657121902     
 augmentation electrons   1046.9897952800966     
 soft         electrons   0.0000000000000000     
 total        electrons   1046.9897952800966     
 augmentation electrons   1046.9897952800966     
 soft         electrons   0.0000000000000000     
 total        electrons   1046.9897952800966     
 augmentation electrons   1046.9897952800966     
 soft         electrons   0.0000000000000000     
 total        electrons   1046.9897952800966     
 augmentation electrons   1046.9897952800966     
 soft         electrons   0.0000000000000000     
 total        electrons   1046.9897952800966     
 augmentation electrons   1046.9897952800966     
 soft         electrons   0.0000000000000000     
 total        electrons   1046.9897952800966     
 augmentation electrons   1046.9897952800966     
 soft         electrons   0.0000000000000000     
 total        electrons   1046.9897952800966     
 augmentation electrons   1046.9897952800966     
 soft         electrons   0.0000000000000000     
 total        electrons   1046.9897952800966     
 augmentation electrons   1046.9897952800966     
 soft         electrons   0.0000000000000000     
 total        electrons   1046.9897952800966     
 augmentation electrons   1046.9897952800966     
 soft         electrons   0.0000000000000000     
 total        electrons   1046.9897952800966     
 augmentation electrons   1046.9897952800966     
 soft         electrons   0.0000000000000000     
 total        electrons   1046.9897952800966     
 augmentation electrons   1046.9897952800966     
 soft         electrons   0.0000000000000000     
 total        electrons   1046.9897952800966     
 augmentation electrons   1046.9897952800966     
 soft         electrons   0.0000000000000000     
 total        electrons   1046.9897952800966     
 augmentation electrons   1046.9897952800966     
 soft         electrons   0.0000000000000000     
 total        electrons   1046.9897952800966     
 augmentation electrons   1046.9897952800966     
 soft         electrons   0.0000000000000000     
 total        electrons   1046.9897952800966     
 augmentation electrons   1046.9897952800966     
 soft         electrons   0.0000000000000000     
 total        electrons   1046.9897952800966     
 augmentation electrons   1046.9897952800966     
 soft         electrons   0.0000000000000000     
 total        electrons   1046.9897952800966     
 augmentation electrons   1046.9897952800966     
 soft         electrons   0.0000000000000000     
 total        electrons   1046.9897952800966     
 augmentation electrons   1046.9897952800966     
 soft         electrons   0.0000000000000000     
 total        electrons   1046.9897952800966     
 augmentation electrons   1046.9897952800966     
 soft         electrons   0.0000000000000000     
 total        electrons   1046.9897952800966     
 augmentation electrons   1046.9897952800966     
 soft         electrons   0.0000000000000000     
 total        electrons   1046.9897952800966     
 augmentation electrons   1046.9897952800966     
 soft         electrons   0.0000000000000000     
 total        electrons   1046.9897952800966     
 augmentation electrons   1046.9897952800966     
 soft         electrons   0.0000000000000000     
 total        electrons   1046.9897952800966     
 augmentation electrons   1046.9897952800966     
 soft         electrons   0.0000000000000000     
 total        electrons   1046.9897952800966     
 augmentation electrons   1046.9897952800966     
 soft         electrons   0.0000000000000000     
 total        electrons   1046.9897952800966     
 augmentation electrons   1046.9897952800966     
 soft         electrons   0.0000000000000000     
 total        electrons   1046.9897952800966     
 augmentation electrons   1046.9897952800966     
 soft         electrons   0.0000000000000000     
 total        electrons   1046.9897952800966     
 augmentation electrons   1046.9897952800966     
 soft         electrons   0.0000000000000000     
 total        electrons   1046.9897952800966     
 augmentation electrons   1046.9897952800966     
 soft         electrons   0.0000000000000000     
 total        electrons   1046.9897952800966     
 augmentation electrons   1046.9897952800966     
 soft         electrons   0.0000000000000000     
 total        electrons   1046.9897952800966     
 augmentation electrons   1046.9897952800966     
 soft         electrons   0.0000000000000000     
 total        electrons   1046.9897952800966     
 augmentation electrons   1046.9897952800966     
 soft         electrons   0.0000000000000000     
 total        electrons   1046.9897952800966     
 augmentation electrons   1046.9897952800966     
 soft         electrons   0.0000000000000000     
 total        electrons   1046.9897952800966     
 augmentation electrons   1046.9897952800966     
 soft         electrons   0.0000000000000000     
 total        electrons   1046.9897952800966     
 augmentation electrons   1046.9897952800966     
 soft         electrons   0.0000000000000000     
 total        electrons   1046.9897952800966     
 augmentation electrons   1046.9897952800966     
 soft         electrons   0.0000000000000000     
 total        electrons   1046.9897952800966     
 augmentation electrons   1046.9897952800966     
 soft         electrons   0.0000000000000000     
 total        electrons   1046.9897952800966     
 augmentation electrons   1046.9897952800966     
 soft         electrons   0.0000000000000000     
 total        electrons   1046.9897952800966     
 augmentation electrons   1046.9897952800966     
 soft         electrons   0.0000000000000000     
 total        electrons   1046.9897952800966     
 augmentation electrons   1046.9897952800966     
 soft         electrons   0.0000000000000000     
 total        electrons   1046.9897952800966     
 augmentation electrons   1046.9897952800966     
 soft         electrons   0.0000000000000000     
 total        electrons   1046.9897952800966     
 augmentation electrons   1046.9897952800966     
 soft         electrons   0.0000000000000000     
 total        electrons   1046.9897952800966     
 augmentation electrons   1046.9897952800966     
 soft         electrons   0.0000000000000000     
 total        electrons   1046.9897952800966     
 augmentation electrons   1046.9897952800966     
 soft         electrons   0.0000000000000000     
 total        electrons   1046.9897952800966     
 augmentation electrons   1046.9897952800966     
 soft         electrons   0.0000000000000000     
 total        electrons   1046.9897952800966     
 augmentation electrons   1046.9897952800966     
 soft         electrons   0.0000000000000000     
 total        electrons   1046.9897952800966     
 augmentation electrons   1046.9897952800966     
 soft         electrons   0.0000000000000000     
 total        electrons   1046.9897952800966     
 augmentation electrons   1046.9897952800966     
 soft         electrons   0.0000000000000000     
 total        electrons   1046.9897952800966     
 augmentation electrons   1046.9897952800966     
 soft         electrons   0.0000000000000000     
 total        electrons   1046.9897952800966     
 augmentation electrons   1046.9897952800966     
 soft         electrons   0.0000000000000000     
 total        electrons   1046.9897952800966     
 augmentation electrons   1046.9897952800966     
 soft         electrons   0.0000000000000000     
 total        electrons   1046.9897952800966     
 augmentation electrons   1046.9897952800966     
 soft         electrons   0.0000000000000000     
 augmentation electrons   1046.9897952800966     
 soft         electrons   0.0000000000000000     
 total        electrons   1046.9897952800966     
 augmentation electrons   1046.9897952800966     
 soft         electrons   0.0000000000000000     
 total        electrons   1046.9897952800966     
 augmentation electrons   1046.9897952800966     
 soft         electrons   0.0000000000000000     
 total        electrons   1046.9897952800966     
 augmentation electrons   1046.9897952800966     
 soft         electrons   0.0000000000000000     
 total        electrons   1046.9897952800966     
 augmentation electrons   1046.9897952800966     
 soft         electrons   0.0000000000000000     
 total        electrons   1046.9897952800966     
 augmentation electrons   1046.9897952800966     
 soft         electrons   0.0000000000000000     
 total        electrons   1046.9897952800966     
 augmentation electrons   1046.9897952800966     
 soft         electrons   0.0000000000000000     
 total        electrons   1046.9897952800966     
 augmentation electrons   1046.9897952800966     
 soft         electrons   0.0000000000000000     
 total        electrons   1046.9897952800966     
 augmentation electrons   1046.9897952800966     
 soft         electrons   0.0000000000000000     
 total        electrons   1046.9897952800966     
 augmentation electrons   1046.9897952800966     
 soft         electrons   0.0000000000000000     
 total        electrons   1046.9897952800966     
 augmentation electrons   1046.9897952800966     
 soft         electrons   0.0000000000000000     
 total        electrons   1046.9897952800966     
 augmentation electrons   1046.9897952800966     
 soft         electrons   0.0000000000000000     
 total        electrons   1046.9897952800966     
 augmentation electrons   1046.9897952800966     
 soft         electrons   0.0000000000000000     
 total        electrons   1046.9897952800966     
 augmentation electrons   1046.9897952800966     
 soft         electrons   0.0000000000000000     
 total        electrons   1046.9897952800966     
 augmentation electrons   1046.9897952800966     
 soft         electrons   0.0000000000000000     
 total        electrons   1046.9897952800966     
 augmentation electrons   1046.9897952800966     
 soft         electrons   0.0000000000000000     
 augmentation electrons   1046.9897952800966     
 soft         electrons   0.0000000000000000     
 total        electrons   1046.9897952800966     
 augmentation electrons   1046.9897952800966     
 soft         electrons   0.0000000000000000     
 total        electrons   1046.9897952800966     
 augmentation electrons   1046.9897952800966     
 soft         electrons   0.0000000000000000     
 total        electrons   1046.9897952800966     
 augmentation electrons   1046.9897952800966     
 soft         electrons   0.0000000000000000     
 total        electrons   1046.9897952800966     
 augmentation electrons   1046.9897952800966     
 soft         electrons   0.0000000000000000     
 total        electrons   1046.9897952800966     
 total        electrons   1046.9897952800966     
 total        electrons   1046.9897952800966     
 entering main loop
       N       E                     dE             d eps       ncg     rms          rms(c)
DAV:   1     0.245246857481E+04    0.24525E+04   -0.10289E+05  8464   0.126E+03
DAV:   2    -0.212962284262E+03   -0.26654E+04   -0.24718E+04  9640   0.313E+02
DAV:   3    -0.651405415480E+03   -0.43844E+03   -0.41653E+03 12000   0.147E+02
DAV:   4    -0.688753519162E+03   -0.37348E+02   -0.35639E+02 13688   0.464E+01
DAV:   5    -0.691183264916E+03   -0.24297E+01   -0.23483E+01 14480   0.111E+01    0.147E+02
RMM:   6    -0.640357433515E+03    0.50826E+02   -0.11566E+03 11603   0.886E+01    0.731E+01
RMM:   7    -0.720029358000E+03   -0.79672E+02   -0.36874E+02 11700   0.356E+01    0.535E+01
RMM:   8    -0.612727367897E+03    0.10730E+03   -0.86790E+01 10479   0.262E+01    0.337E+01
RMM:   9    -0.608241708360E+03    0.44857E+01   -0.41463E+01 11064   0.148E+01    0.303E+01
RMM:  10    -0.588043223281E+03    0.20198E+02   -0.19206E+01  9407   0.129E+01    0.196E+01
RMM:  11    -0.587478603449E+03    0.56462E+00   -0.58332E+00 10325   0.606E+00    0.170E+01
RMM:  12    -0.587592836879E+03   -0.11423E+00   -0.20208E+00 11537   0.194E+00    0.157E+01
RMM:  13    -0.587231111661E+03    0.36173E+00   -0.98820E-01  9015   0.290E+00    0.141E+01
RMM:  14    -0.586675390506E+03    0.55572E+00   -0.47676E+00  8581   0.754E+00    0.823E+00
RMM:  15    -0.586520156230E+03    0.15523E+00   -0.17625E+00 10934   0.293E+00    0.565E+00
RMM:  16    -0.586425571652E+03    0.94585E-01   -0.11375E+00 10080   0.271E+00    0.531E+00
RMM:  17    -0.586174870167E+03    0.25070E+00   -0.11168E+00 11067   0.216E+00    0.212E+00
RMM:  18    -0.586177107010E+03   -0.22368E-02   -0.56257E-01 11652   0.122E+00    0.193E+00
RMM:  19    -0.586167179989E+03    0.99270E-02   -0.78592E-02 10729   0.607E-01    0.161E+00
RMM:  20    -0.586151693354E+03    0.15487E-01   -0.22446E-02 10110   0.352E-01    0.122E+00
RMM:  21    -0.586133612688E+03    0.18081E-01   -0.84266E-02 11251   0.500E-01    0.540E-01
RMM:  22    -0.586132232385E+03    0.13803E-02   -0.28212E-02 11283   0.305E-01    0.404E-01
RMM:  23    -0.586131981473E+03    0.25091E-03   -0.57386E-03  9558   0.215E-01    0.272E-01
RMM:  24    -0.586131888897E+03    0.92577E-04   -0.22807E-03 10560   0.107E-01    0.105E-01
RMM:  25    -0.586132701700E+03   -0.81280E-03   -0.11754E-03 10513   0.753E-02    0.871E-02
RMM:  26    -0.586133717111E+03   -0.10154E-02   -0.99594E-04 11002   0.545E-02    0.802E-02
RMM:  27    -0.586134161836E+03   -0.44472E-03   -0.38353E-04  8757   0.568E-02    0.852E-02
RMM:  28    -0.586135178595E+03   -0.10168E-02   -0.85413E-04  9302   0.841E-02    0.121E-01
RMM:  29    -0.586135445850E+03   -0.26725E-03   -0.56610E-04  8755   0.712E-02    0.402E-02
RMM:  30    -0.586135568672E+03   -0.12282E-03   -0.26765E-04 11052   0.248E-02    0.248E-02
RMM:  31    -0.586135676489E+03   -0.10782E-03   -0.48953E-05  8472   0.864E-03    0.238E-02
RMM:  32    -0.586135750480E+03   -0.73991E-04   -0.28518E-05  9139   0.136E-02    0.136E-02
RMM:  33    -0.586135872765E+03   -0.12228E-03   -0.32309E-05  9101   0.782E-03    0.608E-03
RMM:  34    -0.586135967930E+03   -0.95166E-04   -0.83313E-06  6972   0.828E-03    0.536E-03
RMM:  35    -0.586136075082E+03   -0.10715E-03   -0.87786E-06  6979   0.584E-03    0.122E-02
RMM:  36    -0.586136139532E+03   -0.64450E-04   -0.50754E-06  6213   0.649E-03    0.638E-03
RMM:  37    -0.586136201191E+03   -0.61658E-04   -0.43643E-06  5973   0.314E-03    0.611E-03
RMM:  38    -0.586136226085E+03   -0.24895E-04   -0.32234E-06  5899   0.509E-03    0.395E-03
RMM:  39    -0.586136235955E+03   -0.98694E-05   -0.15085E-06  5394   0.335E-03    0.157E-03
RMM:  40    -0.586136242861E+03   -0.69062E-05   -0.10870E-06  5243   0.264E-03    0.204E-03
RMM:  41    -0.586136246763E+03   -0.39025E-05   -0.71288E-07  5033   0.254E-03    0.105E-03
RMM:  42    -0.586136248883E+03   -0.21196E-05   -0.35373E-07  4841   0.180E-03    0.660E-04
RMM:  43    -0.586136250183E+03   -0.13004E-05   -0.24105E-07  3507   0.106E-03    0.393E-04
RMM:  44    -0.586136251254E+03   -0.10703E-05   -0.18343E-07  3548   0.114E-03    0.521E-04
RMM:  45    -0.586136251515E+03   -0.26110E-06   -0.10537E-07  2813   0.731E-04
   1 F= -.58613625E+03 E0= -.58613724E+03  d E =-.586136E+03
 curvature:   0.00 expect dE= 0.000E+00 dE for cont linesearch  0.000E+00
 trial: gam= 0.00000 g(F)=  0.798E-01 g(S)=  0.000E+00 ort = 0.000E+00 (trialstep = 0.100E+01)
 search vector abs. value=  0.798E-01
 bond charge predicted
       N       E                     dE             d eps       ncg     rms          rms(c)
DAV:   1    -0.586186623292E+03   -0.50372E-01   -0.45484E+00  9040   0.423E+00    0.499E-01
RMM:   2    -0.586191956356E+03   -0.53331E-02   -0.86655E-02  9540   0.943E-01    0.489E-01
RMM:   3    -0.586195667142E+03   -0.37108E-02   -0.26523E-02 10697   0.417E-01    0.621E-01
RMM:   4    -0.586196449458E+03   -0.78232E-03   -0.14581E-02 11092   0.273E-01    0.681E-01
RMM:   5    -0.586190347115E+03    0.61023E-02   -0.69479E-03  9402   0.263E-01    0.210E-01
RMM:   6    -0.586190497096E+03   -0.14998E-03   -0.43370E-03 10923   0.141E-01    0.231E-01
RMM:   7    -0.586190277502E+03    0.21959E-03   -0.19231E-03  9169   0.132E-01    0.195E-01
RMM:   8    -0.586189892302E+03    0.38520E-03   -0.73254E-04 10053   0.754E-02    0.740E-02
RMM:   9    -0.586189847563E+03    0.44739E-04   -0.34427E-04  9986   0.420E-02    0.353E-02
RMM:  10    -0.586189848783E+03   -0.12194E-05   -0.14509E-04 10933   0.194E-02    0.236E-02
RMM:  11    -0.586189846581E+03    0.22017E-05   -0.50164E-05  9309   0.165E-02    0.213E-02
RMM:  12    -0.586189843906E+03    0.26754E-05   -0.21480E-05  8028   0.123E-02    0.134E-02
RMM:  13    -0.586189843245E+03    0.66006E-06   -0.11394E-05  6809   0.741E-03    0.702E-03
RMM:  14    -0.586189843077E+03    0.16861E-06   -0.42844E-06  6084   0.579E-03
   2 F= -.58618984E+03 E0= -.58619084E+03  d E =-.535916E-01
 trial-energy change:   -0.053592  1 .order   -0.052760   -0.079786   -0.025734
 step:   1.4209(harm=  1.4761)  dis= 0.03285  next Energy=  -586.195321 (dE=-0.591E-01)
 bond charge predicted
       N       E                     dE             d eps       ncg     rms          rms(c)
DAV:   1    -0.586194839429E+03   -0.49962E-02   -0.81182E-01  8848   0.179E+00    0.216E-01
RMM:   2    -0.586195619670E+03   -0.78024E-03   -0.14938E-02  9407   0.396E-01    0.192E-01
RMM:   3    -0.586196332659E+03   -0.71299E-03   -0.49392E-03 10420   0.189E-01    0.266E-01
RMM:   4    -0.586196370786E+03   -0.38127E-04   -0.23674E-03 10806   0.120E-01    0.269E-01
RMM:   5    -0.586195425889E+03    0.94490E-03   -0.10057E-03  9586   0.972E-02    0.950E-02
RMM:   6    -0.586195425281E+03    0.60818E-06   -0.71045E-04 10944   0.561E-02    0.944E-02
RMM:   7    -0.586195392605E+03    0.32676E-04   -0.33201E-04  9203   0.541E-02    0.819E-02
RMM:   8    -0.586195323058E+03    0.69548E-04   -0.12459E-04 10062   0.306E-02    0.276E-02
RMM:   9    -0.586195319184E+03    0.38739E-05   -0.63088E-05  9391   0.168E-02    0.154E-02
RMM:  10    -0.586195319132E+03    0.51768E-07   -0.22296E-05  7974   0.818E-03    0.967E-03
RMM:  11    -0.586195319400E+03   -0.26840E-06   -0.83605E-06  6658   0.766E-03
   3 F= -.58619532E+03 E0= -.58619633E+03  d E =-.590679E-01
 curvature:  -0.73 expect dE=-0.229E-01 dE for cont linesearch -0.247E-06
 trial: gam= 0.39593 g(F)=  0.314E-01 g(S)=  0.000E+00 ort =-0.164E-03 (trialstep = 0.108E+01)
 search vector abs. value=  0.438E-01
 bond charge predicted
       N       E                     dE             d eps       ncg     rms          rms(c)
DAV:   1    -0.586218182334E+03   -0.22863E-01   -0.18060E+00  8576   0.293E+00    0.423E-01
RMM:   2    -0.586219975937E+03   -0.17936E-02   -0.40003E-02  9442   0.644E-01    0.368E-01
RMM:   3    -0.586220970729E+03   -0.99479E-03   -0.12284E-02 10607   0.308E-01    0.429E-01
RMM:   4    -0.586221893181E+03   -0.92245E-03   -0.83050E-03  9692   0.275E-01    0.474E-01
RMM:   5    -0.586220121873E+03    0.17713E-02   -0.42016E-03 10408   0.173E-01    0.279E-01
RMM:   6    -0.586219247040E+03    0.87483E-03   -0.17346E-03 10096   0.109E-01    0.180E-01
RMM:   7    -0.586219044514E+03    0.20253E-03   -0.10395E-03  9562   0.909E-02    0.119E-01
RMM:   8    -0.586218915362E+03    0.12915E-03   -0.51883E-04 10381   0.545E-02    0.578E-02
RMM:   9    -0.586218886190E+03    0.29172E-04   -0.22464E-04 10145   0.350E-02    0.353E-02
RMM:  10    -0.586218877169E+03    0.90216E-05   -0.98258E-05 10391   0.202E-02    0.187E-02
RMM:  11    -0.586218875666E+03    0.15025E-05   -0.30215E-05  8203   0.109E-02    0.121E-02
RMM:  12    -0.586218874801E+03    0.86484E-06   -0.10333E-05  6738   0.759E-03    0.657E-03
RMM:  13    -0.586218876413E+03   -0.16122E-05   -0.62891E-06  6530   0.629E-03    0.867E-03
RMM:  14    -0.586218875822E+03    0.59138E-06   -0.21635E-06  5528   0.578E-03
   4 F= -.58621888E+03 E0= -.58622000E+03  d E =-.235564E-01
 trial-energy change:   -0.023556  1 .order   -0.023491   -0.034000   -0.012982
 step:   1.7344(harm=  1.7538)  dis= 0.01489  next Energy=  -586.222783 (dE=-0.275E-01)
 bond charge predicted
       N       E                     dE             d eps       ncg     rms          rms(c)
DAV:   1    -0.586222580248E+03   -0.37038E-02   -0.65250E-01  8688   0.176E+00    0.255E-01
RMM:   2    -0.586223213777E+03   -0.63353E-03   -0.14397E-02  9378   0.390E-01    0.225E-01
RMM:   3    -0.586223666035E+03   -0.45226E-03   -0.45437E-03 10517   0.191E-01    0.273E-01
RMM:   4    -0.586224049172E+03   -0.38314E-03   -0.29119E-03  9955   0.158E-01    0.284E-01
RMM:   5    -0.586223408493E+03    0.64068E-03   -0.16954E-03 10607   0.102E-01    0.196E-01
RMM:   6    -0.586222933457E+03    0.47504E-03   -0.69208E-04  9812   0.743E-02    0.103E-01
RMM:   7    -0.586222878668E+03    0.54789E-04   -0.41881E-04  9796   0.563E-02    0.703E-02
RMM:   8    -0.586222837443E+03    0.41225E-04   -0.20529E-04 10479   0.334E-02    0.364E-02
RMM:   9    -0.586222825815E+03    0.11629E-04   -0.85807E-05  9862   0.217E-02    0.216E-02
RMM:  10    -0.586222822469E+03    0.33455E-05   -0.35070E-05  9069   0.122E-02    0.110E-02
RMM:  11    -0.586222821881E+03    0.58790E-06   -0.10691E-05  6767   0.685E-03    0.753E-03
RMM:  12    -0.586222821657E+03    0.22389E-06   -0.35575E-06  5866   0.572E-03
   5 F= -.58622282E+03 E0= -.58622402E+03  d E =-.275023E-01
 curvature:  -1.22 expect dE=-0.273E-01 dE for cont linesearch -0.543E-07
 trial: gam= 0.70662 g(F)=  0.223E-01 g(S)=  0.000E+00 ort = 0.441E-04 (trialstep = 0.120E+01)
 search vector abs. value=  0.443E-01
 bond charge predicted
       N       E                     dE             d eps       ncg     rms          rms(c)
DAV:   1    -0.586239299455E+03   -0.16478E-01   -0.17008E+00  8480   0.293E+00    0.391E-01
RMM:   2    -0.586240668936E+03   -0.13695E-02   -0.30623E-02  9237   0.585E-01    0.295E-01
RMM:   3    -0.586243241876E+03   -0.25729E-02   -0.12630E-02 11333   0.259E-01    0.469E-01
RMM:   4    -0.586243059273E+03    0.18260E-03   -0.63498E-03 10153   0.225E-01    0.450E-01
RMM:   5    -0.586240702049E+03    0.23572E-02   -0.34671E-03  9884   0.166E-01    0.249E-01
RMM:   6    -0.586240173415E+03    0.52863E-03   -0.14687E-03  9890   0.110E-01    0.133E-01
RMM:   7    -0.586240145020E+03    0.28395E-04   -0.79878E-04  9548   0.798E-02    0.117E-01
RMM:   8    -0.586239970943E+03    0.17408E-03   -0.29041E-04  9329   0.527E-02    0.300E-02
RMM:   9    -0.586239990247E+03   -0.19304E-04   -0.22408E-04 11106   0.250E-02    0.369E-02
RMM:  10    -0.586239974702E+03    0.15545E-04   -0.54234E-05  9048   0.185E-02    0.127E-02
RMM:  11    -0.586239975384E+03   -0.68179E-06   -0.26381E-05  8039   0.755E-03    0.815E-03
RMM:  12    -0.586239975583E+03   -0.19872E-06   -0.72052E-06  6385   0.655E-03
   6 F= -.58623998E+03 E0= -.58624114E+03  d E =-.171539E-01
 trial-energy change:   -0.017154  1 .order   -0.017173   -0.026869   -0.007477
 step:   1.6649(harm=  1.6649)  dis= 0.01340  next Energy=  -586.241436 (dE=-0.186E-01)
 bond charge predicted
       N       E                     dE             d eps       ncg     rms          rms(c)
DAV:   1    -0.586241332948E+03   -0.13576E-02   -0.25336E-01  8784   0.113E+00    0.151E-01
RMM:   2    -0.586241548764E+03   -0.21582E-03   -0.45714E-03  9219   0.227E-01    0.117E-01
RMM:   3    -0.586242047459E+03   -0.49869E-03   -0.19132E-03 11228   0.104E-01    0.206E-01
RMM:   4    -0.586241855075E+03    0.19238E-03   -0.89773E-04 10327   0.834E-02    0.157E-01
RMM:   5    -0.586241558069E+03    0.29701E-03   -0.55792E-04 10021   0.633E-02    0.997E-02
RMM:   6    -0.586241471859E+03    0.86210E-04   -0.23795E-04  9863   0.442E-02    0.521E-02
RMM:   7    -0.586241470216E+03    0.16422E-05   -0.12254E-04  9281   0.324E-02    0.462E-02
RMM:   8    -0.586241443765E+03    0.26452E-04   -0.43394E-05  8931   0.205E-02    0.110E-02
RMM:   9    -0.586241447490E+03   -0.37251E-05   -0.34178E-05  8647   0.994E-03    0.148E-02
RMM:  10    -0.586241445552E+03    0.19380E-05   -0.79203E-06  6389   0.776E-03    0.474E-03
RMM:  11    -0.586241445963E+03   -0.41076E-06   -0.34314E-06  5982   0.379E-03
   7 F= -.58624145E+03 E0= -.58624260E+03  d E =-.186243E-01
 curvature:  -1.65 expect dE=-0.172E-01 dE for cont linesearch -0.177E-06
 trial: gam= 0.46772 g(F)=  0.104E-01 g(S)=  0.000E+00 ort = 0.690E-04 (trialstep = 0.129E+01)
 search vector abs. value=  0.202E-01
 bond charge predicted
       N       E                     dE             d eps       ncg     rms          rms(c)
DAV:   1    -0.586248171547E+03   -0.67260E-02   -0.10166E+00  8496   0.220E+00    0.293E-01
RMM:   2    -0.586249833258E+03   -0.16617E-02   -0.21937E-02  9229   0.508E-01    0.271E-01
RMM:   3    -0.586251694331E+03   -0.18611E-02   -0.67655E-03 10979   0.216E-01    0.403E-01
RMM:   4    -0.586250744046E+03    0.95029E-03   -0.40225E-03 10497   0.168E-01    0.346E-01
RMM:   5    -0.586249317117E+03    0.14269E-02   -0.23065E-03  9128   0.161E-01    0.128E-01
RMM:   6    -0.586249238640E+03    0.78477E-04   -0.96726E-04 10513   0.753E-02    0.784E-02
RMM:   7    -0.586249236092E+03    0.25477E-05   -0.39902E-04  9637   0.571E-02    0.880E-02
RMM:   8    -0.586249162964E+03    0.73128E-04   -0.17619E-04  9624   0.377E-02    0.415E-02
RMM:   9    -0.586249151277E+03    0.11687E-04   -0.98566E-05 10076   0.196E-02    0.178E-02
RMM:  10    -0.586249152430E+03   -0.11529E-05   -0.37102E-05  8685   0.116E-02    0.154E-02
RMM:  11    -0.586249150896E+03    0.15340E-05   -0.12360E-05  6758   0.926E-03    0.904E-03
RMM:  12    -0.586249150797E+03    0.98462E-07   -0.56765E-06  6291   0.594E-03
   8 F= -.58624915E+03 E0= -.58625026E+03  d E =-.770483E-02
 trial-energy change:   -0.007705  1 .order   -0.007677   -0.013528   -0.001827
 step:   1.4931(harm=  1.4963)  dis= 0.01634  next Energy=  -586.249291 (dE=-0.785E-02)
 bond charge predicted
       N       E                     dE             d eps       ncg     rms          rms(c)
DAV:   1    -0.586249277538E+03   -0.12664E-03   -0.24077E-02  9008   0.338E-01    0.456E-02
RMM:   2    -0.586249319821E+03   -0.42282E-04   -0.53338E-04  9213   0.795E-02    0.435E-02
RMM:   3    -0.586249357355E+03   -0.37534E-04   -0.16554E-04 10821   0.347E-02    0.594E-02
RMM:   4    -0.586249346819E+03    0.10536E-04   -0.10051E-04 10431   0.252E-02    0.565E-02
RMM:   5    -0.586249307559E+03    0.39260E-04   -0.56600E-05  9029   0.248E-02    0.194E-02
RMM:   6    -0.586249307159E+03    0.39960E-06   -0.28796E-05  9460   0.121E-02    0.130E-02
RMM:   7    -0.586249306766E+03    0.39272E-06   -0.10089E-05  6824   0.981E-03    0.131E-02
RMM:   8    -0.586249305190E+03    0.15761E-05   -0.39164E-06  5976   0.703E-03    0.625E-03
RMM:   9    -0.586249305113E+03    0.76834E-07   -0.18745E-06  5525   0.393E-03
   9 F= -.58624931E+03 E0= -.58625041E+03  d E =-.785915E-02
 curvature:  -1.44 expect dE=-0.724E-02 dE for cont linesearch -0.197E-06
 trial: gam= 0.47764 g(F)=  0.502E-02 g(S)=  0.000E+00 ort = 0.524E-04 (trialstep = 0.133E+01)
 search vector abs. value=  0.967E-02
 bond charge predicted
       N       E                     dE             d eps       ncg     rms          rms(c)
DAV:   1    -0.586252387217E+03   -0.30820E-02   -0.59598E-01  8480   0.166E+00    0.214E-01
RMM:   2    -0.586252891380E+03   -0.50416E-03   -0.96487E-03  8817   0.363E-01    0.168E-01
RMM:   3    -0.586253972654E+03   -0.10813E-02   -0.44218E-03 10529   0.189E-01    0.311E-01
RMM:   4    -0.586253297007E+03    0.67565E-03   -0.17911E-03 10000   0.124E-01    0.202E-01
RMM:   5    -0.586252936672E+03    0.36034E-03   -0.10533E-03 10026   0.876E-02    0.116E-01
RMM:   6    -0.586252970505E+03   -0.33833E-04   -0.61702E-04 10506   0.576E-02    0.126E-01
RMM:   7    -0.586252791350E+03    0.17915E-03   -0.25783E-04  9064   0.496E-02    0.369E-02
RMM:   8    -0.586252787557E+03    0.37932E-05   -0.14271E-04 10651   0.227E-02    0.261E-02
RMM:   9    -0.586252781985E+03    0.55715E-05   -0.39633E-05  8889   0.156E-02    0.120E-02
RMM:  10    -0.586252782806E+03   -0.82058E-06   -0.17105E-05  7633   0.738E-03    0.978E-03
RMM:  11    -0.586252781811E+03    0.99473E-06   -0.51107E-06  6163   0.676E-03
  10 F= -.58625278E+03 E0= -.58625380E+03  d E =-.347670E-02
 trial-energy change:   -0.003477  1 .order   -0.003463   -0.006729   -0.000197
 step:   1.3737(harm=  1.3742)  dis= 0.00761  next Energy=  -586.252785 (dE=-0.348E-02)
 bond charge predicted
       N       E                     dE             d eps       ncg     rms          rms(c)
DAV:   1    -0.586252785246E+03   -0.24401E-05   -0.53235E-04 10304   0.503E-02    0.742E-03
RMM:   2    -0.586252787888E+03   -0.26420E-05   -0.19341E-05  9555   0.120E-02    0.113E-02
RMM:   3    -0.586252786730E+03    0.11583E-05   -0.40197E-06  6003   0.739E-03    0.673E-03
RMM:   4    -0.586252787242E+03   -0.51246E-06   -0.21822E-06  5598   0.481E-03    0.684E-03
RMM:   5    -0.586252787357E+03   -0.11471E-06   -0.12540E-06  5312   0.436E-03
  11 F= -.58625279E+03 E0= -.58625381E+03  d E =-.348224E-02
 curvature:  -1.32 expect dE=-0.309E-02 dE for cont linesearch -0.647E-07
 trial: gam= 0.48087 g(F)=  0.234E-02 g(S)=  0.000E+00 ort = 0.218E-04 (trialstep = 0.134E+01)
 search vector abs. value=  0.460E-02
 bond charge predicted
       N       E                     dE             d eps       ncg     rms          rms(c)
DAV:   1    -0.586254311779E+03   -0.15245E-02   -0.28081E-01  8480   0.118E+00    0.133E-01
RMM:   2    -0.586254657386E+03   -0.34561E-03   -0.54430E-03  8983   0.266E-01    0.117E-01
RMM:   3    -0.586254938510E+03   -0.28112E-03   -0.17535E-03 10533   0.121E-01    0.172E-01
RMM:   4    -0.586254990233E+03   -0.51723E-04   -0.88693E-04 11049   0.708E-02    0.146E-01
RMM:   5    -0.586254631923E+03    0.35831E-03   -0.41760E-04 10365   0.519E-02    0.624E-02
RMM:   6    -0.586254605386E+03    0.26537E-04   -0.20970E-04  9957   0.376E-02    0.413E-02
RMM:   7    -0.586254599304E+03    0.60822E-05   -0.98763E-05  9858   0.266E-02    0.320E-02
RMM:   8    -0.586254588067E+03    0.11237E-04   -0.42161E-05  9056   0.166E-02    0.197E-02
RMM:   9    -0.586254586880E+03    0.11871E-05   -0.20083E-05  7505   0.106E-02    0.143E-02
RMM:  10    -0.586254585953E+03    0.92647E-06   -0.96081E-06  6653   0.777E-03
  12 F= -.58625459E+03 E0= -.58625556E+03  d E =-.179860E-02
 trial-energy change:   -0.001799  1 .order   -0.001783   -0.003158   -0.000407
 step:   1.5330(harm=  1.5406)  dis= 0.01142  next Energy=  -586.254615 (dE=-0.183E-02)
 bond charge predicted
       N       E                     dE             d eps       ncg     rms          rms(c)
DAV:   1    -0.586254610451E+03   -0.23572E-04   -0.56974E-03  8928   0.168E-01    0.197E-02
RMM:   2    -0.586254622707E+03   -0.12256E-04   -0.14011E-04  9522   0.389E-02    0.213E-02
RMM:   3    -0.586254623174E+03   -0.46696E-06   -0.38505E-05  9794   0.189E-02    0.213E-02
RMM:   4    -0.586254627452E+03   -0.42783E-05   -0.17947E-05  8609   0.983E-03    0.209E-02
RMM:   5    -0.586254620190E+03    0.72621E-05   -0.69552E-06  6771   0.686E-03    0.106E-02
RMM:   6    -0.586254619895E+03    0.29500E-06   -0.49623E-06  6323   0.811E-03
  13 F= -.58625462E+03 E0= -.58625559E+03  d E =-.183254E-02
 curvature:  -1.50 expect dE=-0.133E-02 dE for cont linesearch -0.284E-06
 trial: gam= 0.37849 g(F)=  0.881E-03 g(S)=  0.000E+00 ort = 0.295E-04 (trialstep = 0.138E+01)
 search vector abs. value=  0.156E-02
 bond charge predicted
       N       E                     dE             d eps       ncg     rms          rms(c)
DAV:   1    -0.586255222360E+03   -0.60217E-03   -0.12292E-01  8464   0.772E-01    0.896E-02
RMM:   2    -0.586255455725E+03   -0.23337E-03   -0.22038E-03  8712   0.181E-01    0.113E-01
RMM:   3    -0.586255518031E+03   -0.62306E-04   -0.85323E-04 11314   0.707E-02    0.112E-01
RMM:   4    -0.586255431488E+03    0.86542E-04   -0.36297E-04 11090   0.430E-02    0.870E-02
RMM:   5    -0.586255372237E+03    0.59251E-04   -0.22080E-04  9027   0.467E-02    0.607E-02
RMM:   6    -0.586255351777E+03    0.20461E-04   -0.11320E-04 10297   0.272E-02    0.382E-02
RMM:   7    -0.586255344202E+03    0.75749E-05   -0.55500E-05  8898   0.237E-02    0.281E-02
RMM:   8    -0.586255334838E+03    0.93632E-05   -0.21740E-05  8103   0.119E-02    0.820E-03
RMM:   9    -0.586255334616E+03    0.22213E-06   -0.88788E-06  6579   0.551E-03
  14 F= -.58625533E+03 E0= -.58625630E+03  d E =-.714721E-03
 trial-energy change:   -0.000715  1 .order   -0.000714   -0.001232   -0.000196
 step:   1.6416(harm=  1.6416)  dis= 0.00579  next Energy=  -586.255352 (dE=-0.733E-03)
 bond charge predicted
       N       E                     dE             d eps       ncg     rms          rms(c)
DAV:   1    -0.586255348953E+03   -0.14115E-04   -0.44150E-03  8928   0.147E-01    0.177E-02
RMM:   2    -0.586255362981E+03   -0.14028E-04   -0.10750E-04  9476   0.337E-02    0.267E-02
RMM:   3    -0.586255360617E+03    0.23639E-05   -0.29158E-05  9752   0.153E-02    0.207E-02
RMM:   4    -0.586255359934E+03    0.68316E-06   -0.17688E-05  8381   0.992E-03    0.197E-02
RMM:   5    -0.586255355256E+03    0.46783E-05   -0.70606E-06  6408   0.929E-03    0.782E-03
RMM:   6    -0.586255356366E+03   -0.11098E-05   -0.55792E-06  6271   0.748E-03    0.127E-02
RMM:   7    -0.586255355014E+03    0.13515E-05   -0.27414E-06  5741   0.663E-03    0.493E-03
RMM:   8    -0.586255355010E+03    0.44656E-08   -0.11792E-06  5337   0.384E-03
  15 F= -.58625536E+03 E0= -.58625632E+03  d E =-.735114E-03
 curvature:  -1.44 expect dE=-0.657E-03 dE for cont linesearch -0.683E-07
 trial: gam= 0.52166 g(F)=  0.457E-03 g(S)=  0.000E+00 ort = 0.862E-05 (trialstep = 0.143E+01)
 search vector abs. value=  0.892E-03
 bond charge predicted
       N       E                     dE             d eps       ncg     rms          rms(c)
DAV:   1    -0.586255622022E+03   -0.26701E-03   -0.91714E-02  8464   0.649E-01    0.736E-02
RMM:   2    -0.586255681123E+03   -0.59101E-04   -0.13266E-03  8604   0.141E-01    0.478E-02
RMM:   3    -0.586255989319E+03   -0.30820E-03   -0.73114E-04 11400   0.635E-02    0.149E-01
RMM:   4    -0.586255705063E+03    0.28426E-03   -0.19747E-04 10176   0.403E-02    0.361E-02
RMM:   5    -0.586255708162E+03   -0.30985E-05   -0.15673E-04 10433   0.262E-02    0.405E-02
RMM:   6    -0.586255696685E+03    0.11477E-04   -0.47471E-05  9255   0.189E-02    0.256E-02
RMM:   7    -0.586255692798E+03    0.38870E-05   -0.22055E-05  7744   0.137E-02    0.178E-02
RMM:   8    -0.586255689722E+03    0.30755E-05   -0.92373E-06  6609   0.814E-03    0.667E-03
RMM:   9    -0.586255689933E+03   -0.21052E-06   -0.48160E-06  6091   0.613E-03
  16 F= -.58625569E+03 E0= -.58625667E+03  d E =-.334923E-03
 trial-energy change:   -0.000335  1 .order   -0.000336   -0.000662   -0.000010
 step:   1.4555(harm=  1.4555)  dis= 0.00418  next Energy=  -586.255691 (dE=-0.336E-03)
 bond charge predicted
       N       E                     dE             d eps       ncg     rms          rms(c)
DAV:   1    -0.586255690054E+03   -0.33184E-06   -0.28515E-05 12032   0.145E-02    0.398E-03
RMM:   2    -0.586255691915E+03   -0.18605E-05   -0.69641E-06  6693   0.725E-03    0.119E-02
RMM:   3    -0.586255690097E+03    0.18180E-05   -0.18103E-06  5491   0.648E-03    0.286E-03
RMM:   4    -0.586255690107E+03   -0.10070E-07   -0.38643E-07  4796   0.203E-03    0.282E-03
RMM:   5    -0.586255690083E+03    0.23667E-07   -0.24091E-07  4702   0.206E-03
  17 F= -.58625569E+03 E0= -.58625667E+03  d E =-.335074E-03
 curvature:  -1.40 expect dE=-0.316E-03 dE for cont linesearch -0.302E-07
 trial: gam= 0.49222 g(F)=  0.225E-03 g(S)=  0.000E+00 ort = 0.438E-05 (trialstep = 0.144E+01)
 search vector abs. value=  0.445E-03
 bond charge predicted
       N       E                     dE             d eps       ncg     rms          rms(c)
DAV:   1    -0.586255845173E+03   -0.15507E-03   -0.44485E-02  8512   0.461E-01    0.511E-02
RMM:   2    -0.586255903945E+03   -0.58771E-04   -0.75676E-04  8575   0.110E-01    0.576E-02
RMM:   3    -0.586255922079E+03   -0.18135E-04   -0.27638E-04 10828   0.477E-02    0.571E-02
RMM:   4    -0.586255958410E+03   -0.36330E-04   -0.13117E-04 10892   0.236E-02    0.623E-02
RMM:   5    -0.586255891313E+03    0.67097E-04   -0.62339E-05  9793   0.214E-02    0.263E-02
RMM:   6    -0.586255891416E+03   -0.10325E-06   -0.40442E-05  9138   0.178E-02    0.261E-02
RMM:   7    -0.586255888944E+03    0.24717E-05   -0.20975E-05  7706   0.136E-02    0.208E-02
RMM:   8    -0.586255884478E+03    0.44659E-05   -0.81582E-06  6400   0.943E-03    0.775E-03
RMM:   9    -0.586255884036E+03    0.44266E-06   -0.38930E-06  5874   0.493E-03
  18 F= -.58625588E+03 E0= -.58625686E+03  d E =-.193953E-03
 trial-energy change:   -0.000194  1 .order   -0.000193   -0.000326   -0.000060
 step:   1.7634(harm=  1.7634)  dis= 0.00250  next Energy=  -586.255890 (dE=-0.200E-03)
 reached required accuracy - stopping structural energy minimisation
 augmentation electrons   31.405346257550974     
 soft         electrons   251.68694451919308     
 total        electrons   283.09229077674405     
 augmentation electrons   31.405346257550974     
 soft         electrons   251.68694451919308     
 total        electrons   283.09229077674405     
 augmentation electrons   31.405346257550974     
 soft         electrons   251.68694451919308     
 total        electrons   283.09229077674405     
 augmentation electrons   31.405346257550974     
 soft         electrons   251.68694451919308     
 total        electrons   283.09229077674405     
 augmentation electrons   31.405346257550974     
 soft         electrons   251.68694451919308     
 total        electrons   283.09229077674405     
 augmentation electrons   31.405346257550974     
 soft         electrons   251.68694451919308     
 total        electrons   283.09229077674405     
 augmentation electrons   31.405346257550974     
 soft         electrons   251.68694451919308     
 total        electrons   283.09229077674405     
 augmentation electrons   31.405346257550974     
 soft         electrons   251.68694451919308     
 total        electrons   283.09229077674405     
 augmentation electrons   31.405346257550974     
 soft         electrons   251.68694451919308     
 total        electrons   283.09229077674405     
 augmentation electrons   31.405346257550974     
 soft         electrons   251.68694451919308     
 total        electrons   283.09229077674405     
 augmentation electrons   31.405346257550974     
 soft         electrons   251.68694451919308     
 total        electrons   283.09229077674405     
 augmentation electrons   31.405346257550974     
 soft         electrons   251.68694451919308     
 total        electrons   283.09229077674405     
 augmentation electrons   31.405346257550974     
 soft         electrons   251.68694451919308     
 total        electrons   283.09229077674405     
 augmentation electrons   31.405346257550974     
 soft         electrons   251.68694451919308     
 total        electrons   283.09229077674405     
 augmentation electrons   31.405346257550974     
 soft         electrons   251.68694451919308     
 total        electrons   283.09229077674405     
 augmentation electrons   31.405346257550974     
 soft         electrons   251.68694451919308     
 total        electrons   283.09229077674405     
 augmentation electrons   31.405346257550974     
 soft         electrons   251.68694451919308     
 total        electrons   283.09229077674405     
 augmentation electrons   31.405346257550974     
 soft         electrons   251.68694451919308     
 total        electrons   283.09229077674405     
 augmentation electrons   31.405346257550974     
 soft         electrons   251.68694451919308     
 total        electrons   283.09229077674405     
 augmentation electrons   31.405346257550974     
 soft         electrons   251.68694451919308     
 total        electrons   283.09229077674405     
 augmentation electrons   31.405346257550974     
 soft         electrons   251.68694451919308     
 total        electrons   283.09229077674405     
 augmentation electrons   31.405346257550974     
 soft         electrons   251.68694451919308     
 total        electrons   283.09229077674405     
 augmentation electrons   31.405346257550974     
 soft         electrons   251.68694451919308     
 total        electrons   283.09229077674405     
 augmentation electrons   31.405346257550974     
 soft         electrons   251.68694451919308     
 total        electrons   283.09229077674405     
 augmentation electrons   31.405346257550974     
 soft         electrons   251.68694451919308     
 total        electrons   283.09229077674405     
 augmentation electrons   31.405346257550974     
 soft         electrons   251.68694451919308     
 total        electrons   283.09229077674405     
 augmentation electrons   31.405346257550974     
 soft         electrons   251.68694451919308     
 total        electrons   283.09229077674405     
 augmentation electrons   31.405346257550974     
 soft         electrons   251.68694451919308     
 total        electrons   283.09229077674405     
 augmentation electrons   31.405346257550974     
 soft         electrons   251.68694451919308     
 total        electrons   283.09229077674405     
 augmentation electrons   31.405346257550974     
 soft         electrons   251.68694451919308     
 total        electrons   283.09229077674405     
 augmentation electrons   31.405346257550974     
 soft         electrons   251.68694451919308     
 total        electrons   283.09229077674405     
 augmentation electrons   31.405346257550974     
 soft         electrons   251.68694451919308     
 total        electrons   283.09229077674405     
 augmentation electrons   31.405346257550974     
 soft         electrons   251.68694451919308     
 total        electrons   283.09229077674405     
 augmentation electrons   31.405346257550974     
 soft         electrons   251.68694451919308     
 total        electrons   283.09229077674405     
 augmentation electrons   31.405346257550974     
 soft         electrons   251.68694451919308     
 total        electrons   283.09229077674405     
 augmentation electrons   31.405346257550974     
 soft         electrons   251.68694451919308     
 total        electrons   283.09229077674405     
 augmentation electrons   31.405346257550974     
 soft         electrons   251.68694451919308     
 total        electrons   283.09229077674405     
 augmentation electrons   31.405346257550974     
 soft         electrons   251.68694451919308     
 total        electrons   283.09229077674405     
 augmentation electrons   31.405346257550974     
 soft         electrons   251.68694451919308     
 total        electrons   283.09229077674405     
 augmentation electrons   31.405346257550974     
 soft         electrons   251.68694451919308     
 total        electrons   283.09229077674405     
 augmentation electrons   31.405346257550974     
 soft         electrons   251.68694451919308     
 total        electrons   283.09229077674405     
 augmentation electrons   31.405346257550974     
 soft         electrons   251.68694451919308     
 total        electrons   283.09229077674405     
 augmentation electrons   31.405346257550974     
 soft         electrons   251.68694451919308     
 total        electrons   283.09229077674405     
 augmentation electrons   31.405346257550974     
 soft         electrons   251.68694451919308     
 total        electrons   283.09229077674405     
 augmentation electrons   31.405346257550974     
 soft         electrons   251.68694451919308     
 total        electrons   283.09229077674405     
 augmentation electrons   31.405346257550974     
 soft         electrons   251.68694451919308     
 total        electrons   283.09229077674405     
 augmentation electrons   31.405346257550974     
 soft         electrons   251.68694451919308     
 total        electrons   283.09229077674405     
 augmentation electrons   31.405346257550974     
 soft         electrons   251.68694451919308     
 total        electrons   283.09229077674405     
 augmentation electrons   31.405346257550974     
 soft         electrons   251.68694451919308     
 total        electrons   283.09229077674405     
 augmentation electrons   31.405346257550974     
 soft         electrons   251.68694451919308     
 total        electrons   283.09229077674405     
 augmentation electrons   31.405346257550974     
 soft         electrons   251.68694451919308     
 total        electrons   283.09229077674405     
 augmentation electrons   31.405346257550974     
 soft         electrons   251.68694451919308     
 total        electrons   283.09229077674405     
 augmentation electrons   31.405346257550974     
 soft         electrons   251.68694451919308     
 total        electrons   283.09229077674405     
 augmentation electrons   31.405346257550974     
 soft         electrons   251.68694451919308     
 total        electrons   283.09229077674405     
 augmentation electrons   31.405346257550974     
 soft         electrons   251.68694451919308     
 total        electrons   283.09229077674405     
 augmentation electrons   31.405346257550974     
 soft         electrons   251.68694451919308     
 total        electrons   283.09229077674405     
 augmentation electrons   31.405346257550974     
 soft         electrons   251.68694451919308     
 total        electrons   283.09229077674405     
 augmentation electrons   31.405346257550974     
 soft         electrons   251.68694451919308     
 total        electrons   283.09229077674405     
 augmentation electrons   31.405346257550974     
 soft         electrons   251.68694451919308     
 total        electrons   283.09229077674405     
 augmentation electrons   31.405346257550974     
 soft         electrons   251.68694451919308     
 total        electrons   283.09229077674405     
 augmentation electrons   31.405346257550974     
 soft         electrons   251.68694451919308     
 total        electrons   283.09229077674405     
 augmentation electrons   31.405346257550974     
 soft         electrons   251.68694451919308     
 total        electrons   283.09229077674405     
 augmentation electrons   31.405346257550974     
 soft         electrons   251.68694451919308     
 total        electrons   283.09229077674405     
 augmentation electrons   31.405346257550974     
 soft         electrons   251.68694451919308     
 total        electrons   283.09229077674405     
 augmentation electrons   31.405346257550974     
 soft         electrons   251.68694451919308     
 total        electrons   283.09229077674405     
 augmentation electrons   31.405346257550974     
 soft         electrons   251.68694451919308     
 total        electrons   283.09229077674405     
 augmentation electrons   31.405346257550974     
 soft         electrons   251.68694451919308     
 total        electrons   283.09229077674405     
 augmentation electrons   31.405346257550974     
 soft         electrons   251.68694451919308     
 total        electrons   283.09229077674405     
 augmentation electrons   31.405346257550974     
 soft         electrons   251.68694451919308     
 total        electrons   283.09229077674405     
 augmentation electrons   31.405346257550974     
 soft         electrons   251.68694451919308     
 total        electrons   283.09229077674405     
 augmentation electrons   31.405346257550974     
 soft         electrons   251.68694451919308     
 augmentation electrons   31.405346257550974     
 soft         electrons   251.68694451919308     
 total        electrons   283.09229077674405     
 total        electrons   283.09229077674405     
Note: The following floating-point exceptions are signalling: IEEE_OVERFLOW_FLAG
Note: The following floating-point exceptions are signalling: IEEE_OVERFLOW_FLAG
Note: The following floating-point exceptions are signalling: IEEE_OVERFLOW_FLAG
Note: The following floating-point exceptions are signalling: IEEE_OVERFLOW_FLAG
Note: The following floating-point exceptions are signalling: IEEE_OVERFLOW_FLAG
Note: The following floating-point exceptions are signalling: IEEE_OVERFLOW_FLAG
Note: The following floating-point exceptions are signalling: IEEE_OVERFLOW_FLAG
Note: The following floating-point exceptions are signalling: IEEE_OVERFLOW_FLAG
Note: The following floating-point exceptions are signalling: IEEE_OVERFLOW_FLAG
Note: The following floating-point exceptions are signalling: IEEE_OVERFLOW_FLAG
Note: The following floating-point exceptions are signalling: IEEE_OVERFLOW_FLAG
Note: The following floating-point exceptions are signalling: IEEE_OVERFLOW_FLAG
Note: The following floating-point exceptions are signalling: IEEE_OVERFLOW_FLAG
Note: The following floating-point exceptions are signalling: IEEE_OVERFLOW_FLAG
Note: The following floating-point exceptions are signalling: IEEE_OVERFLOW_FLAG
Note: The following floating-point exceptions are signalling: IEEE_OVERFLOW_FLAG
Note: The following floating-point exceptions are signalling: IEEE_OVERFLOW_FLAG
Note: The following floating-point exceptions are signalling: IEEE_OVERFLOW_FLAG
Note: The following floating-point exceptions are signalling: IEEE_OVERFLOW_FLAG
Note: The following floating-point exceptions are signalling: IEEE_OVERFLOW_FLAG
Note: The following floating-point exceptions are signalling: IEEE_OVERFLOW_FLAG
Note: The following floating-point exceptions are signalling: IEEE_OVERFLOW_FLAG
Note: The following floating-point exceptions are signalling: IEEE_OVERFLOW_FLAG
Note: The following floating-point exceptions are signalling: IEEE_OVERFLOW_FLAG
Note: The following floating-point exceptions are signalling: IEEE_OVERFLOW_FLAG
Note: The following floating-point exceptions are signalling: IEEE_OVERFLOW_FLAG
Note: The following floating-point exceptions are signalling: IEEE_OVERFLOW_FLAG
Note: The following floating-point exceptions are signalling: IEEE_OVERFLOW_FLAG
Note: The following floating-point exceptions are signalling: IEEE_OVERFLOW_FLAG
Note: The following floating-point exceptions are signalling: IEEE_OVERFLOW_FLAG
Note: The following floating-point exceptions are signalling: IEEE_OVERFLOW_FLAG
Note: The following floating-point exceptions are signalling: IEEE_OVERFLOW_FLAG
Note: The following floating-point exceptions are signalling: IEEE_OVERFLOW_FLAG
Note: The following floating-point exceptions are signalling: IEEE_OVERFLOW_FLAG
Note: The following floating-point exceptions are signalling: IEEE_OVERFLOW_FLAG
Note: The following floating-point exceptions are signalling: IEEE_OVERFLOW_FLAG
Note: The following floating-point exceptions are signalling: IEEE_OVERFLOW_FLAG
Note: The following floating-point exceptions are signalling: IEEE_OVERFLOW_FLAG
Note: The following floating-point exceptions are signalling: IEEE_OVERFLOW_FLAG
Note: The following floating-point exceptions are signalling: IEEE_OVERFLOW_FLAG
Note: The following floating-point exceptions are signalling: IEEE_OVERFLOW_FLAG
Note: The following floating-point exceptions are signalling: IEEE_OVERFLOW_FLAG
Note: The following floating-point exceptions are signalling: IEEE_OVERFLOW_FLAG
Note: The following floating-point exceptions are signalling: IEEE_OVERFLOW_FLAG
Note: The following floating-point exceptions are signalling: IEEE_OVERFLOW_FLAG
Note: The following floating-point exceptions are signalling: IEEE_OVERFLOW_FLAG
Note: The following floating-point exceptions are signalling: IEEE_OVERFLOW_FLAG
Note: The following floating-point exceptions are signalling: IEEE_OVERFLOW_FLAG
Note: The following floating-point exceptions are signalling: IEEE_OVERFLOW_FLAG
Note: The following floating-point exceptions are signalling: IEEE_OVERFLOW_FLAG
Note: The following floating-point exceptions are signalling: IEEE_OVERFLOW_FLAG
Note: The following floating-point exceptions are signalling: IEEE_OVERFLOW_FLAG
Note: The following floating-point exceptions are signalling: IEEE_OVERFLOW_FLAG
Note: The following floating-point exceptions are signalling: IEEE_OVERFLOW_FLAG
Note: The following floating-point exceptions are signalling: IEEE_OVERFLOW_FLAG
Note: The following floating-point exceptions are signalling: IEEE_OVERFLOW_FLAG
Note: The following floating-point exceptions are signalling: IEEE_OVERFLOW_FLAG
Note: The following floating-point exceptions are signalling: IEEE_OVERFLOW_FLAG
Note: The following floating-point exceptions are signalling: IEEE_OVERFLOW_FLAG
Note: The following floating-point exceptions are signalling: IEEE_OVERFLOW_FLAG
Note: The following floating-point exceptions are signalling: IEEE_OVERFLOW_FLAG
Note: The following floating-point exceptions are signalling: IEEE_OVERFLOW_FLAG
Note: The following floating-point exceptions are signalling: IEEE_OVERFLOW_FLAG
Note: The following floating-point exceptions are signalling: IEEE_OVERFLOW_FLAG
Note: The following floating-point exceptions are signalling: IEEE_OVERFLOW_FLAG
Note: The following floating-point exceptions are signalling: IEEE_OVERFLOW_FLAG
Note: The following floating-point exceptions are signalling: IEEE_OVERFLOW_FLAG
Note: The following floating-point exceptions are signalling: IEEE_OVERFLOW_FLAG
Note: The following floating-point exceptions are signalling: IEEE_OVERFLOW_FLAG
Note: The following floating-point exceptions are signalling: IEEE_OVERFLOW_FLAG
Note: The following floating-point exceptions are signalling: IEEE_OVERFLOW_FLAG
Note: The following floating-point exceptions are signalling: IEEE_OVERFLOW_FLAG
