    3    3   60    1
  0.8144830E+01  0.3039000E-09  0.3039000E-09  0.3055000E-09  0.5000000E-15
   1.0000000000000000E-004
  CAR 
 Name                                    
     12    216     10

  0.3742002E-15  0.3742002E-15  0.3742002E-15  0.2962963E-03
    1       -5.777726   1.000000
    2        4.040882   1.000000
    3        4.543765   1.000000
    4        4.543767   1.000000
    5        5.150914   1.000000
    6        9.046359  -0.030016
    7        9.046360  -0.030016
    8       11.099788  -0.000000
    9       11.099791  -0.000000
   10       13.742558   0.000000

  0.6666667E-01  0.3766815E-15  0.3742002E-15  0.1777778E-02
    1       -5.690440   1.000000
    2        4.112539   1.000000
    3        4.324506   1.000000
    4        4.577393   1.000000
    5        4.986813   1.000000
    6        9.006370  -0.029201
    7        9.291346  -0.000000
    8       10.704535  -0.000000
    9       10.790550  -0.000000
   10       14.007850   0.000000

  0.1333333E+00  0.3754153E-15  0.3742002E-15  0.1777778E-02
    1       -5.432148   1.000000
    2        3.723628   1.000000
    3        4.311461   1.000000
    4        4.603635   1.000000
    5        4.659883   1.000000
    6        8.895620   0.552643
    7        9.888387  -0.000000
    8        9.952128  -0.000000
    9       10.275001  -0.000000
   10       14.388109   0.000000

  0.2000000E+00  0.3870416E-15  0.3742002E-15  0.1777778E-02
    1       -5.012996   1.000000
    2        2.901490   1.000000
    3        4.167428   1.000000
    4        4.512500   1.000000
    5        4.743259   1.000000
    6        8.738039   1.021312
    7        9.350597  -0.000000
    8        9.919922  -0.000000
    9       10.564934  -0.000000
   10       14.618933   0.000000

  0.2666667E+00  0.4120044E-15  0.3742002E-15  0.1777778E-02
    1       -4.448097   1.000000
    2        1.959709   1.000000
    3        3.773167   1.000000
    4        4.565585   1.000000
    5        4.778423   1.000000
    6        8.564661   1.000010
    7        9.208931  -0.000063
    8        9.826722  -0.000000
    9       11.014502  -0.000000
   10       14.735208   0.000000

  0.3333333E+00  0.4025434E-15  0.3742002E-15  0.1777778E-02
    1       -3.756226   1.000000
    2        0.963823   1.000000
    3        3.462450   1.000000
    4        4.417334   1.000000
    5        4.753380   1.000000
    6        8.405693   1.000000
    7        9.608634  -0.000000
    8        9.962738  -0.000000
    9       11.060850  -0.000000
   10       14.791706   0.000000

  0.4000000E+00  0.3732510E-15  0.3742002E-15  0.1777778E-02
    1       -2.960572   1.000000
    2       -0.043306   1.000000
    3        3.251556   1.000000
    4        4.199480   1.000000
    5        4.699672   1.000000
    6        8.285720   1.000000
    7       10.200411  -0.000000
    8       10.331760  -0.000000
    9       10.889475  -0.000000
   10       14.823889   0.000000

  0.4666667E+00  0.3915456E-15  0.3742002E-15  0.1777778E-02
    1       -2.113861   1.000000
    2       -0.998584   1.000000
    3        3.145592   1.000000
    4        4.056636   1.000000
    5        4.659903   1.000000
    6        8.221543   1.000000
    7       10.377228  -0.000000
    8       10.748755  -0.000000
    9       10.952342  -0.000000
   10       14.850938   0.000000

  0.6666667E-01  0.6666667E-01  0.3742002E-15  0.1777778E-02
    1       -5.517624   1.000000
    2        3.932347   1.000000
    3        4.229302   1.000000
    4        4.635994   1.000000
    5        4.718637   1.000000
    6        8.908454   0.444280
    7        9.731950  -0.000000
    8       10.191312  -0.000000
    9       10.365162  -0.000000
   10       14.406210   0.000000

  0.1333333E+00  0.6666667E-01  0.3742002E-15  0.3555556E-02
    1       -5.178734   1.000000
    2        3.261532   1.000000
    3        4.316702   1.000000
    4        4.328581   1.000000
    5        4.793314   1.000000
    6        8.713200   1.011334
    7        9.520060  -0.000000
    8       10.009652  -0.000000
    9       10.431141  -0.000000
   10       14.750534   0.000000

  0.2000000E+00  0.6666667E-01  0.3742002E-15  0.3555556E-02
    1       -4.686205   1.000000
    2        2.417776   1.000000
    3        3.940528   1.000000
    4        4.226153   1.000000
    5        5.048249   1.000000
    6        8.459749   1.000000
    7        9.046149  -0.030102
    8        9.943697  -0.000000
    9       11.113241  -0.000000
   10       15.096072   0.000000

  0.2666667E+00  0.6666667E-01  0.3742002E-15  0.3555556E-02
    1       -4.056656   1.000000
    2        1.477945   1.000000
    3        3.616179   1.000000
    4        3.999777   1.000000
    5        5.223662   1.000000
    6        8.190905   1.000000
    7        9.002868  -0.026148
    8       10.162230  -0.000000
    9       11.479932  -0.000000
   10       15.131189   0.000000

  0.3333333E+00  0.6666667E-01  0.3742002E-15  0.3555556E-02
    1       -3.310194   1.000000
    2        0.491839   1.000000
    3        3.379996   1.000000
    4        3.740512   1.000000
    5        5.244708   1.000000
    6        7.952321   1.000000
    7        9.386980  -0.000000
    8       10.534004  -0.000000
    9       11.479995  -0.000000
   10       15.008773   0.000000

  0.4000000E+00  0.6666667E-01  0.3742002E-15  0.3555556E-02
    1       -2.475255   1.000000
    2       -0.494693   1.000000
    3        3.238611   1.000000
    4        3.545256   1.000000
    5        5.196294   1.000000
    6        7.787394   1.000000
    7        9.923630  -0.000000
    8       10.855051  -0.000000
    9       11.363960  -0.000000
   10       15.088481   0.000000

  0.4666667E+00  0.6666667E-01  0.3742002E-15  0.1777778E-02
    1       -1.771320   1.000000
    2       -1.250569   1.000000
    3        3.191772   1.000000
    4        3.473838   1.000000
    5        5.169972   1.000000
    6        7.728388   1.000000
    7       10.192553  -0.000000
    8       10.966937  -0.000000
    9       11.309471  -0.000000
   10       15.171526   0.000000

  0.1333333E+00  0.1333333E+00  0.3742002E-15  0.1777778E-02
    1       -4.766084   1.000000
    2        2.645462   1.000000
    3        4.014934   1.000000
    4        4.021913   1.000000
    5        5.148547   1.000000
    6        8.343995   1.000000
    7        8.977100   0.023134
    8       10.011623  -0.000000
    9       11.238962  -0.000000
   10       15.073051   0.000000

  0.2000000E+00  0.1333333E+00  0.3742002E-15  0.3555556E-02
    1       -4.207604   1.000000
    2        1.901338   1.000000
    3        3.570798   1.000000
    4        3.742905   1.000000
    5        5.573918   1.000000
    6        7.886036   1.000000
    7        8.566373   1.000011
    8       10.322999  -0.000000
    9       12.034114   0.000000
   10       14.801749   0.000000

  0.2666667E+00  0.1333333E+00  0.3742002E-15  0.3555556E-02
    1       -3.520489   1.000000
    2        1.042134   1.000000
    3        3.131996   1.000000
    4        3.546110   1.000000
    5        5.870003   1.000000
    6        7.433100   1.000000
    7        8.555134   1.000005
    8       10.721388  -0.000000
    9       12.466606   0.000000
   10       15.081186   0.000000

  0.3333333E+00  0.1333333E+00  0.3742002E-15  0.3555556E-02
    1       -2.726158   1.000000
    2        0.105384   1.000000
    3        2.809025   1.000000
    4        3.427858   1.000000
    5        5.939935   1.000000
    6        7.070701   1.000000
    7        9.001329  -0.024573
    8       10.917325  -0.000000
    9       12.517592   0.000000
   10       15.789358   0.000000

  0.4000000E+00  0.1333333E+00  0.3742002E-15  0.3555556E-02
    1       -1.864784   1.000000
    2       -0.837733   1.000000
    3        2.642031   1.000000
    4        3.375365   1.000000
    5        5.915572   1.000000
    6        6.868859   1.000000
    7        9.582800  -0.000000
    8       10.777422  -0.000000
    9       12.475923   0.000000
   10       15.903602   0.000000

  0.2000000E+00  0.2000000E+00  0.3742002E-15  0.1777778E-02
    1       -3.590607   1.000000
    2        1.345552   1.000000
    3        2.807237   1.000000
    4        3.626504   1.000000
    5        6.180886   1.000000
    6        7.213229   1.000000
    7        8.161040   1.000000
    8       10.787104  -0.000000
    9       13.062629   0.000000
   10       14.645017   0.000000

  0.2666667E+00  0.2000000E+00  0.3742002E-15  0.3555556E-02
    1       -2.852752   1.000000
    2        0.665786   1.000000
    3        2.172756   1.000000
    4        3.601349   1.000000
    5        6.589596   1.000000
    6        6.642494   1.000000
    7        8.139584   1.000000
    8       10.965592  -0.000000
    9       13.686060   0.000000
   10       15.009891   0.000000

  0.3333333E+00  0.2000000E+00  0.3742002E-15  0.3555556E-02
    1       -2.017758   1.000000
    2       -0.178378   1.000000
    3        1.810242   1.000000
    4        3.635806   1.000000
    5        6.135641   1.000000
    6        6.734825   1.000000
    7        8.679580   1.003649
    8       10.673412  -0.000000
    9       13.755569   0.000000
   10       15.831683   0.000000

  0.4000000E+00  0.2000000E+00  0.3742002E-15  0.1777778E-02
    1       -1.210157   1.000000
    2       -1.002281   1.000000
    3        1.698726   1.000000
    4        3.661832   1.000000
    5        5.965096   1.000000
    6        6.718357   1.000000
    7        9.149326  -0.001295
    8       10.311038  -0.000000
    9       13.743817   0.000000
   10       16.238757   0.000000

  0.2666667E+00  0.2666667E+00  0.3742002E-15  0.1777778E-02
    1       -2.072868   1.000000
    2        0.282133   1.000000
    3        1.293685   1.000000
    4        3.783688   1.000000
    5        5.822971   1.000000
    6        7.454932   1.000000
    7        7.903978   1.000000
    8       10.643999  -0.000000
    9       14.897477   0.000000
   10       14.961762   0.000000

  0.3333333E+00  0.2666667E+00  0.3742002E-15  0.3555556E-02
    1       -1.213378   1.000000
    2       -0.353637   1.000000
    3        0.818469   1.000000
    4        4.016017   1.000000
    5        5.283727   1.000000
    6        7.590511   1.000000
    7        8.461679   1.000000
    8        9.989060  -0.000000
    9       14.905322   0.000000
   10       15.804896   0.000000

  0.3333333E+00  0.3333333E+00  0.3742002E-15  0.5925926E-03
    1       -0.496901   1.000000
    2       -0.496898   1.000000
    3        0.121516   1.000000
    4        4.568815   1.000000
    5        4.568817   1.000000
    6        8.256961   1.000000
    7        8.256962   1.000000
    8        9.478886  -0.000000
    9       15.605973   0.000000
   10       15.605974   0.000000

  0.3742002E-15  0.3742002E-15  0.6666667E-01  0.5925926E-03
    1       -5.719109   1.000000
    2        3.706662   1.000000
    3        4.591287   1.000000
    4        4.591290   1.000000
    5        5.428487   1.000000
    6        8.885110   0.639524
    7        8.885111   0.639516
    8       10.975571  -0.000000
    9       10.975574  -0.000000
   10       14.003774   0.000000

  0.6666667E-01  0.3766815E-15  0.6666667E-01  0.3555556E-02
    1       -5.632760   1.000000
    2        3.756909   1.000000
    3        4.363773   1.000000
    4        4.620036   1.000000
    5        5.282288   1.000000
    6        8.821506   0.990932
    7        9.096815  -0.009376
    8       10.693809  -0.000000
    9       10.774776  -0.000000
   10       14.179899   0.000000

  0.1333333E+00  0.3754153E-15  0.6666667E-01  0.3555556E-02
    1       -5.377346   1.000000
    2        3.745334   1.000000
    3        3.860487   1.000000
    4        4.685452   1.000000
    5        4.994199   1.000000
    6        8.671135   1.002623
    7        9.390277  -0.000000
    8       10.350045  -0.000000
    9       10.415742  -0.000000
   10       14.423382   0.000000

  0.2000000E+00  0.3870416E-15  0.6666667E-01  0.3555556E-02
    1       -4.963053   1.000000
    2        2.897961   1.000000
    3        3.859403   1.000000
    4        4.735612   1.000000
    5        4.778110   1.000000
    6        8.532763   1.000001
    7        9.171556  -0.000459
    8       10.137054  -0.000000
    9       10.699932  -0.000000
   10       14.528279   0.000000

  0.2666667E+00  0.4120044E-15  0.6666667E-01  0.3555556E-02
    1       -4.405034   1.000000
    2        1.937394   1.000000
    3        3.692833   1.000000
    4        4.636306   1.000000
    5        4.723790   1.000000
    6        8.475191   1.000000
    7        9.106742  -0.006805
    8       10.012055  -0.000000
    9       11.075008  -0.000000
   10       14.664001   0.000000

  0.3333333E+00  0.4025434E-15  0.6666667E-01  0.3555556E-02
    1       -3.721571   1.000000
    2        0.933025   1.000000
    3        3.484394   1.000000
    4        4.430771   1.000000
    5        4.651668   1.000000
    6        8.468591   1.000000
    7        9.470222  -0.000000
    8       10.064929  -0.000000
    9       11.135005  -0.000000
   10       15.000775   0.000000

  0.4000000E+00  0.3732510E-15  0.6666667E-01  0.3555556E-02
    1       -2.933886   1.000000
    2       -0.075370   1.000000
    3        3.324042   1.000000
    4        4.202286   1.000000
    5        4.563817   1.000000
    6        8.458611   1.000000
    7        9.982123  -0.000000
    8       10.239546  -0.000000
    9       11.173648  -0.000000
   10       14.872180   0.000000

  0.4666667E+00  0.3915456E-15  0.6666667E-01  0.3555556E-02
    1       -2.081574   1.000000
    2       -1.040018   1.000000
    3        3.240458   1.000000
    4        4.058821   1.000000
    5        4.507057   1.000000
    6        8.444724   1.000000
    7       10.183663  -0.000000
    8       10.389011  -0.000000
    9       11.481200  -0.000000
   10       14.663592   0.000000

  0.6666667E-01  0.6666667E-01  0.6666667E-01  0.3555556E-02
    1       -5.461853   1.000000
    2        3.832354   1.000000
    3        3.968624   1.000000
    4        4.601583   1.000000
    5        5.114918   1.000000
    6        8.654012   1.001274
    7        9.445438  -0.000000
    8       10.305390  -0.000000
    9       10.550572  -0.000000
   10       14.501687   0.000000

  0.1333333E+00  0.6666667E-01  0.6666667E-01  0.7111111E-02
    1       -5.126851   1.000000
    2        3.281042   1.000000
    3        3.878456   1.000000
    4        4.433340   1.000000
    5        5.088127   1.000000
    6        8.364329   1.000000
    7        9.560432  -0.000000
    8       10.005083  -0.000000
    9       10.641983  -0.000000
   10       14.749731   0.000000

  0.2000000E+00  0.6666667E-01  0.6666667E-01  0.7111111E-02
    1       -4.640260   1.000000
    2        2.412823   1.000000
    3        3.765674   1.000000
    4        4.227325   1.000000
    5        5.182984   1.000000
    6        8.110690   1.000000
    7        9.299854  -0.000000
    8        9.983859  -0.000000
    9       11.155846  -0.000000
   10       14.734324   0.000000

  0.2666667E+00  0.6666667E-01  0.6666667E-01  0.7111111E-02
    1       -4.018556   1.000000
    2        1.455590   1.000000
    3        3.568784   1.000000
    4        3.992485   1.000000
    5        5.218924   1.000000
    6        8.029296   1.000000
    7        9.244629  -0.000007
    8       10.140462  -0.000000
    9       11.480013  -0.000000
   10       14.915700   0.000000

  0.3333333E+00  0.6666667E-01  0.6666667E-01  0.7111111E-02
    1       -3.280948   1.000000
    2        0.462710   1.000000
    3        3.404429   1.000000
    4        3.738354   1.000000
    5        5.135718   1.000000
    6        8.039246   1.000000
    7        9.493109  -0.000000
    8       10.413192  -0.000000
    9       11.545402  -0.000000
   10       15.081498   0.000000

  0.4000000E+00  0.6666667E-01  0.6666667E-01  0.7111111E-02
    1       -2.451724   1.000000
    2       -0.525639   1.000000
    3        3.310646   1.000000
    4        3.539241   1.000000
    5        5.027881   1.000000
    6        8.011377   1.000000
    7        9.941915  -0.000000
    8       10.557947  -0.000000
    9       11.636510   0.000000
   10       14.957556   0.000000

  0.4666667E+00  0.6666667E-01  0.6666667E-01  0.3555556E-02
    1       -1.709985   1.000000
    2       -1.321441   1.000000
    3        3.284426   1.000000
    4        3.461508   1.000000
    5        4.982837   1.000000
    6        7.990319   1.000000
    7       10.209422  -0.000000
    8       10.530785  -0.000000
    9       11.726335   0.000000
   10       14.883391   0.000000

  0.1333333E+00  0.1333333E+00  0.6666667E-01  0.3555556E-02
    1       -4.719203   1.000000
    2        2.664644   1.000000
    3        3.749591   1.000000
    4        4.033111   1.000000
    5        5.388006   1.000000
    6        7.856205   1.000000
    7        9.446114  -0.000000
    8        9.936495  -0.000000
    9       11.256274  -0.000000
   10       14.958555   0.000000

  0.2000000E+00  0.1333333E+00  0.6666667E-01  0.7111111E-02
    1       -4.167828   1.000000
    2        1.904244   1.000000
    3        3.399939   1.000000
    4        3.782443   1.000000
    5        5.710942   1.000000
    6        7.433679   1.000000
    7        9.067960  -0.020274
    8       10.285815  -0.000000
    9       11.956703   0.000000
   10       14.695915   0.000000

  0.2666667E+00  0.1333333E+00  0.6666667E-01  0.7111111E-02
    1       -3.489636   1.000000
    2        1.026185   1.000000
    3        3.042595   1.000000
    4        3.606768   1.000000
    5        5.807922   1.000000
    6        7.318361   1.000000
    7        8.897125   0.539971
    8       10.664924  -0.000000
    9       12.373732   0.000000
   10       14.896276   0.000000

  0.3333333E+00  0.1333333E+00  0.6666667E-01  0.7111111E-02
    1       -2.704671   1.000000
    2        0.081466   1.000000
    3        2.775985   1.000000
    4        3.498383   1.000000
    5        5.657384   1.000000
    6        7.355961   1.000000
    7        9.140601  -0.001886
    8       10.828044  -0.000000
    9       12.499974   0.000000
   10       15.251338   0.000000

  0.4000000E+00  0.1333333E+00  0.6666667E-01  0.7111111E-02
    1       -1.843399   1.000000
    2       -0.868416   1.000000
    3        2.635039   1.000000
    4        3.452036   1.000000
    5        5.520283   1.000000
    6        7.334565   1.000000
    7        9.630560  -0.000000
    8       10.679680  -0.000000
    9       12.524635   0.000000
   10       15.432823   0.000000

  0.2000000E+00  0.2000000E+00  0.6666667E-01  0.3555556E-02
    1       -3.559207   1.000000
    2        1.348286   1.000000
    3        2.704618   1.000000
    4        3.660361   1.000000
    5        6.320654   1.000000
    6        6.771413   1.000000
    7        8.658608   1.001557
    8       10.748738  -0.000000
    9       12.884951   0.000000
   10       14.564755   0.000000

  0.2666667E+00  0.2000000E+00  0.6666667E-01  0.7111111E-02
    1       -2.831702   1.000000
    2        0.654464   1.000000
    3        2.127688   1.000000
    4        3.641876   1.000000
    5        6.125912   1.000000
    6        6.965091   1.000000
    7        8.470530   1.000000
    8       10.924001  -0.000000
    9       13.521344   0.000000
   10       14.846769   0.000000

  0.3333333E+00  0.2000000E+00  0.6666667E-01  0.7111111E-02
    1       -2.007332   1.000000
    2       -0.197284   1.000000
    3        1.803280   1.000000
    4        3.683162   1.000000
    5        5.702686   1.000000
    6        7.212662   1.000000
    7        8.806455   1.019670
    8       10.646988  -0.000000
    9       13.678478   0.000000
   10       15.493692   0.000000

  0.4000000E+00  0.2000000E+00  0.6666667E-01  0.3555556E-02
    1       -1.164994   1.000000
    2       -1.060703   1.000000
    3        1.703137   1.000000
    4        3.713563   1.000000
    5        5.540588   1.000000
    6        7.230465   1.000000
    7        9.215918  -0.000042
    8       10.302753  -0.000000
    9       13.690656   0.000000
   10       15.824297   0.000000

  0.2666667E+00  0.2666667E+00  0.6666667E-01  0.3555556E-02
    1       -2.064404   1.000000
    2        0.265758   1.000000
    3        1.285679   1.000000
    4        3.809763   1.000000
    5        5.615548   1.000000
    6        7.564201   1.000000
    7        8.204923   1.000000
    8       10.630038  -0.000000
    9       14.665647   0.000000
   10       14.883062   0.000000

  0.3333333E+00  0.2666667E+00  0.6666667E-01  0.7111111E-02
    1       -1.221143   1.000000
    2       -0.371222   1.000000
    3        0.837080   1.000000
    4        4.030810   1.000000
    5        5.139865   1.000000
    6        7.818271   1.000000
    7        8.581660   1.000029
    8       10.002390  -0.000000
    9       14.810372   0.000000
   10       15.614025   0.000000

  0.3333333E+00  0.3333333E+00  0.6666667E-01  0.1185185E-02
    1       -0.535038   1.000000
    2       -0.535035   1.000000
    3        0.193648   1.000000
    4        4.529165   1.000000
    5        4.529167   1.000000
    6        8.409512   1.000000
    7        8.409513   1.000000
    8        9.497123  -0.000000
    9       15.489590   0.000000
   10       15.489590   0.000000

  0.3742002E-15  0.3742002E-15  0.1333333E+00  0.5925926E-03
    1       -5.546897   1.000000
    2        3.057020   1.000000
    3        4.733424   1.000000
    4        4.733426   1.000000
    5        5.922852   1.000000
    6        8.494852   1.000000
    7        8.494854   1.000000
    8       10.624682  -0.000000
    9       10.624684  -0.000000
   10       14.558740   0.000000

  0.6666667E-01  0.3766815E-15  0.1333333E+00  0.3555556E-02
    1       -5.463473   1.000000
    2        3.104213   1.000000
    3        4.490334   1.000000
    4        4.746283   1.000000
    5        5.758423   1.000000
    6        8.398636   1.000000
    7        8.669210   1.002427
    8       10.533044  -0.000000
    9       10.622535  -0.000000
   10       14.696345   0.000000

  0.1333333E+00  0.3754153E-15  0.1333333E+00  0.3555556E-02
    1       -5.216927   1.000000
    2        3.200932   1.000000
    3        3.856627   1.000000
    4        4.757396   1.000000
    5        5.440988   1.000000
    6        8.228906   1.000000
    7        8.847844   0.891324
    8       10.554446  -0.000000
    9       10.586637  -0.000000
   10       14.607493   0.000000

  0.2000000E+00  0.3870416E-15  0.1333333E+00  0.3555556E-02
    1       -4.817805   1.000000
    2        2.829227   1.000000
    3        3.466975   1.000000
    4        4.707459   1.000000
    5        5.115818   1.000000
    6        8.182611   1.000000
    7        8.783298   1.035208
    8       10.503166  -0.000000
    9       10.934028  -0.000000
   10       14.375902   0.000000

  0.2666667E+00  0.4120044E-15  0.1333333E+00  0.3555556E-02
    1       -4.281261   1.000000
    2        1.872961   1.000000
    3        3.513322   1.000000
    4        4.571221   1.000000
    5        4.790610   1.000000
    6        8.338765   1.000000
    7        8.831596   0.960771
    8       10.407788  -0.000000
    9       11.270399  -0.000000
   10       14.326021   0.000000

  0.3333333E+00  0.4025434E-15  0.1333333E+00  0.3555556E-02
    1       -3.624686   1.000000
    2        0.863059   1.000000
    3        3.524381   1.000000
    4        4.391575   1.000000
    5        4.468081   1.000000
    6        8.620532   1.000255
    7        9.136860  -0.002204
    8       10.352408  -0.000000
    9       11.365015  -0.000000
   10       14.632577   0.000000

  0.4000000E+00  0.3732510E-15  0.1333333E+00  0.3555556E-02
    1       -2.865583   1.000000
    2       -0.138287   1.000000
    3        3.508603   1.000000
    4        4.199935   1.000000
    5        4.233825   1.000000
    6        8.878375   0.692751
    7        9.462836  -0.000000
    8       10.371243  -0.000000
    9       11.565709  -0.000000
   10       14.640939   0.000000

  0.4666667E+00  0.3915456E-15  0.1333333E+00  0.3555556E-02
    1       -2.021112   1.000000
    2       -1.105139   1.000000
    3        3.494491   1.000000
    4        4.048562   1.000000
    5        4.144294   1.000000
    6        9.011979  -0.032695
    7        9.581946  -0.000000
    8       10.425709  -0.000000
    9       12.002726   0.000000
   10       14.240882   0.000000

  0.6666667E-01  0.6666667E-01  0.1333333E+00  0.3555556E-02
    1       -5.298476   1.000000
    2        3.182403   1.000000
    3        4.075338   1.000000
    4        4.681204   1.000000
    5        5.594472   1.000000
    6        8.144252   1.000000
    7        8.972577   0.037629
    8       10.374129  -0.000000
    9       10.694905  -0.000000
   10       15.277569   0.000000

  0.1333333E+00  0.6666667E-01  0.1333333E+00  0.7111111E-02
    1       -4.975553   1.000000
    2        3.197309   1.000000
    3        3.441834   1.000000
    4        4.469264   1.000000
    5        5.524607   1.000000
    6        7.803239   1.000000
    7        9.209621  -0.000060
    8       10.292634  -0.000000
    9       10.905803  -0.000000
   10       14.768216   0.000000

  0.2000000E+00  0.6666667E-01  0.1333333E+00  0.7111111E-02
    1       -4.507436   1.000000
    2        2.381467   1.000000
    3        3.426711   1.000000
    4        4.212091   1.000000
    5        5.424762   1.000000
    6        7.667316   1.000000
    7        9.287938  -0.000000
    8       10.282742  -0.000000
    9       11.292495  -0.000000
   10       14.466073   0.000000

  0.2666667E+00  0.6666667E-01  0.1333333E+00  0.7111111E-02
    1       -3.910369   1.000000
    2        1.399245   1.000000
    3        3.448119   1.000000
    4        3.956949   1.000000
    5        5.184383   1.000000
    6        7.858945   1.000000
    7        9.459952  -0.000000
    8       10.257849  -0.000000
    9       11.565215  -0.000000
   10       14.499308   0.000000

  0.3333333E+00  0.6666667E-01  0.1333333E+00  0.7111111E-02
    1       -3.201831   1.000000
    2        0.400681   1.000000
    3        3.437951   1.000000
    4        3.730856   1.000000
    5        4.893395   1.000000
    6        8.225372   1.000000
    7        9.694056  -0.000000
    8       10.271955  -0.000000
    9       11.717591   0.000000
   10       14.714416   0.000000

  0.4000000E+00  0.6666667E-01  0.1333333E+00  0.7111111E-02
    1       -2.399219   1.000000
    2       -0.579762   1.000000
    3        3.419939   1.000000
    4        3.579667   1.000000
    5        4.672953   1.000000
    6        8.495964   1.000000
    7        9.929166  -0.000000
    8       10.277559  -0.000000
    9       11.995631   0.000000
   10       14.553819   0.000000

  0.4666667E+00  0.6666667E-01  0.1333333E+00  0.3555556E-02
    1       -1.530479   1.000000
    2       -1.508296   1.000000
    3        3.406522   1.000000
    4        3.533305   1.000000
    5        4.591855   1.000000
    6        8.575493   1.000020
    7       10.057200  -0.000000
    8       10.258748  -0.000000
    9       12.197978   0.000000
   10       14.359597   0.000000

  0.1333333E+00  0.1333333E+00  0.1333333E+00  0.3555556E-02
    1       -4.583418   1.000000
    2        2.719807   1.000000
    3        3.253160   1.000000
    4        4.034345   1.000000
    5        5.847022   1.000000
    6        7.192098   1.000000
    7        9.709383  -0.000000
    8       10.013717  -0.000000
    9       11.340565  -0.000000
   10       14.792246   0.000000

  0.2000000E+00  0.1333333E+00  0.1333333E+00  0.7111111E-02
    1       -4.054163   1.000000
    2        1.909326   1.000000
    3        3.087686   1.000000
    4        3.793412   1.000000
    5        5.952775   1.000000
    6        6.937807   1.000000
    7        9.728724  -0.000000
    8       10.174342  -0.000000
    9       11.857787   0.000000
   10       14.484721   0.000000

  0.2666667E+00  0.1333333E+00  0.1333333E+00  0.7111111E-02
    1       -3.404168   1.000000
    2        0.988356   1.000000
    3        2.879589   1.000000
    4        3.687573   1.000000
    5        5.576593   1.000000
    6        7.339668   1.000000
    7        9.552219  -0.000000
    8       10.497584  -0.000000
    9       12.243727   0.000000
   10       14.549262   0.000000

  0.3333333E+00  0.1333333E+00  0.1333333E+00  0.7111111E-02
    1       -2.651149   1.000000
    2        0.033869   1.000000
    3        2.707416   1.000000
    4        3.650994   1.000000
    5        5.180812   1.000000
    6        7.839151   1.000000
    7        9.543293  -0.000000
    8       10.602501  -0.000000
    9       12.493722   0.000000
   10       14.753580   0.000000

  0.4000000E+00  0.1333333E+00  0.1333333E+00  0.7111111E-02
    1       -1.813975   1.000000
    2       -0.909262   1.000000
    3        2.611602   1.000000
    4        3.652512   1.000000
    5        4.947695   1.000000
    6        8.095384   1.000000
    7        9.778988  -0.000000
    8       10.463305  -0.000000
    9       12.642837   0.000000
   10       14.813691   0.000000

  0.2000000E+00  0.2000000E+00  0.1333333E+00  0.3555556E-02
    1       -3.471643   1.000000
    2        1.354998   1.000000
    3        2.488212   1.000000
    4        3.706746   1.000000
    5        6.131422   1.000000
    6        6.694612   1.000000
    7        9.444975  -0.000000
    8       10.617559  -0.000000
    9       12.576740   0.000000
   10       14.387298   0.000000

  0.2666667E+00  0.2000000E+00  0.1333333E+00  0.7111111E-02
    1       -2.776790   1.000000
    2        0.625962   1.000000
    3        2.035088   1.000000
    4        3.726293   1.000000
    5        5.580429   1.000000
    6        7.340137   1.000000
    7        9.177622  -0.000339
    8       10.798896  -0.000000
    9       13.200984   0.000000
   10       14.555991   0.000000
