   55   55    1    1
  0.1383486E+02  0.6088057E-09  0.6088057E-09  0.2372246E-08  0.5000000E-15
   1.0000000000000000E-004
  CAR 
 Name                                    
    201     41    132

  0.3742002E-15  0.3742002E-15  0.1262379E-14  0.1234568E-01
    1      -11.749896   1.000000
    2      -11.171735   1.000000
    3      -10.348205   1.000000
    4       -9.051098   1.000000
    5       -8.908523   1.000000
    6       -8.857728   1.000000
    7       -8.478213   1.000000
    8       -8.288167   1.000000
    9       -8.164670   1.000000
   10       -8.037364   1.000000
   11       -7.983013   1.000000
   12       -7.934526   1.000000
   13       -7.878903   1.000000
   14       -7.871292   1.000000
   15       -7.609988   1.000000
   16       -7.557151   1.000000
   17       -7.553448   1.000000
   18       -7.291537   1.000000
   19       -7.222638   1.000000
   20       -7.084038   1.000000
   21       -6.866751   1.000000
   22       -6.366894   1.000000
   23       -6.301590   1.000000
   24       -6.228409   1.000000
   25       -6.199466   1.000000
   26       -6.104068   1.000000
   27       -6.093638   1.000000
   28       -5.681734   1.000000
   29       -5.489704   1.000000
   30       -5.386589   1.000000
   31       -4.937272   1.000000
   32       -4.899150   1.000000
   33       -4.783853   1.000000
   34       -4.766476   1.000000
   35       -4.438827   1.000000
   36       -4.377744   1.000000
   37       -4.289776   1.000000
   38       -3.816762   1.000000
   39       -3.320717   1.000000
   40       -3.250467   1.000000
   41       -3.167440   1.000000
   42       -3.111795   1.000000
   43       -2.845180   1.000000
   44       -2.820917   1.000000
   45       -2.748802   1.000000
   46       -2.642762   1.000000
   47       -2.558107   1.000000
   48       -2.449621   1.000000
   49       -2.389264   1.000000
   50       -2.353074   1.000000
   51       -2.123812   1.000000
   52       -2.103661   1.000000
   53       -2.100882   1.000000
   54       -2.031090   1.000000
   55       -2.006728   1.000000
   56       -1.999764   1.000000
   57       -1.858316   1.000000
   58       -1.851006   1.000000
   59       -1.689311   1.000000
   60       -1.652305   1.000000
   61       -1.505600   1.000000
   62       -1.498940   1.000000
   63       -1.353829   1.000000
   64       -1.304990   1.000000
   65       -1.288255   1.000000
   66       -1.206719   1.000000
   67       -0.999237   1.000000
   68       -0.984252   1.000000
   69       -0.955796   1.000000
   70       -0.878668   1.000000
   71       -0.842886   1.000000
   72       -0.823268   1.000000
   73       -0.810214   1.000000
   74       -0.569435   1.000000
   75       -0.430601   1.000000
   76       -0.276698   1.000000
   77       -0.274295   1.000000
   78       -0.212041   1.000000
   79       -0.058783   1.000000
   80        0.148796   1.000000
   81        0.262969   1.000000
   82        0.481280   1.000000
   83        0.497284   1.000000
   84        0.896123   1.000000
   85        0.905650   1.000000
   86        0.999986   1.000000
   87        1.018592   1.000000
   88        1.129444   1.000000
   89        1.156423   1.000000
   90        1.283678   1.000000
   91        1.342331   1.000000
   92        1.399639   1.000000
   93        1.407318   1.000000
   94        1.423560   1.000000
   95        1.594279   1.000000
   96        1.765295   1.000002
   97        1.969055   1.000740
   98        2.031077   1.002835
   99        2.469857   0.578966
  100        2.515584   0.387007
  101        2.547891   0.260960
  102        2.800183  -0.025016
  103        2.814711  -0.021661
  104        3.056370  -0.000224
  105        3.060203  -0.000202
  106        3.156172  -0.000012
  107        3.190222  -0.000004
  108        3.343099  -0.000000
  109        3.388549  -0.000000
  110        3.396985  -0.000000
  111        3.479852  -0.000000
  112        3.496842  -0.000000
  113        3.619143  -0.000000
  114        3.683910  -0.000000
  115        3.705063  -0.000000
  116        3.748667  -0.000000
  117        3.783962  -0.000000
  118        3.797081  -0.000000
  119        3.925089  -0.000000
  120        3.966346  -0.000000
  121        4.022322  -0.000000
  122        4.040646  -0.000000
  123        4.121785  -0.000000
  124        4.161208  -0.000000
  125        4.361511  -0.000000
  126        4.535012  -0.000000
  127        4.761382  -0.000000
  128        5.242245  -0.000000
  129        5.662813  -0.000000
  130        5.867036  -0.000000
  131        6.109050  -0.000000
  132        6.265892  -0.000000

  0.1111111E+00  0.3857958E-15  0.1262379E-14  0.2469136E-01
    1      -11.692471   1.000000
    2      -11.119184   1.000000
    3      -10.307979   1.000000
    4       -9.014864   1.000000
    5       -8.888885   1.000000
    6       -8.866863   1.000000
    7       -8.625643   1.000000
    8       -8.500719   1.000000
    9       -8.319079   1.000000
   10       -8.234637   1.000000
   11       -8.199760   1.000000
   12       -8.149680   1.000000
   13       -8.027530   1.000000
   14       -7.989069   1.000000
   15       -7.432133   1.000000
   16       -7.342103   1.000000
   17       -7.208028   1.000000
   18       -7.133459   1.000000
   19       -7.062028   1.000000
   20       -6.914740   1.000000
   21       -6.757179   1.000000
   22       -6.406775   1.000000
   23       -6.316570   1.000000
   24       -6.239788   1.000000
   25       -6.116183   1.000000
   26       -6.061385   1.000000
   27       -5.958986   1.000000
   28       -5.702828   1.000000
   29       -5.550458   1.000000
   30       -5.412131   1.000000
   31       -4.852605   1.000000
   32       -4.785456   1.000000
   33       -4.739117   1.000000
   34       -4.585946   1.000000
   35       -4.365787   1.000000
   36       -4.258184   1.000000
   37       -4.094810   1.000000
   38       -3.779319   1.000000
   39       -3.360791   1.000000
   40       -3.304757   1.000000
   41       -3.140208   1.000000
   42       -3.090927   1.000000
   43       -2.956831   1.000000
   44       -2.830518   1.000000
   45       -2.801138   1.000000
   46       -2.775889   1.000000
   47       -2.686652   1.000000
   48       -2.582746   1.000000
   49       -2.374878   1.000000
   50       -2.310054   1.000000
   51       -2.168548   1.000000
   52       -2.127115   1.000000
   53       -2.056124   1.000000
   54       -2.006984   1.000000
   55       -1.979087   1.000000
   56       -1.970591   1.000000
   57       -1.867338   1.000000
   58       -1.854253   1.000000
   59       -1.691679   1.000000
   60       -1.655523   1.000000
   61       -1.556067   1.000000
   62       -1.545222   1.000000
   63       -1.463289   1.000000
   64       -1.343289   1.000000
   65       -1.317294   1.000000
   66       -1.242986   1.000000
   67       -1.177066   1.000000
   68       -1.042468   1.000000
   69       -0.991911   1.000000
   70       -0.905125   1.000000
   71       -0.861579   1.000000
   72       -0.805032   1.000000
   73       -0.738737   1.000000
   74       -0.561542   1.000000
   75       -0.450357   1.000000
   76       -0.379622   1.000000
   77       -0.304388   1.000000
   78       -0.171416   1.000000
   79       -0.121948   1.000000
   80       -0.023182   1.000000
   81        0.207372   1.000000
   82        0.298365   1.000000
   83        0.422054   1.000000
   84        0.691255   1.000000
   85        0.726547   1.000000
   86        0.855682   1.000000
   87        0.987725   1.000000
   88        1.152574   1.000000
   89        1.201291   1.000000
   90        1.247206   1.000000
   91        1.277896   1.000000
   92        1.323584   1.000000
   93        1.443183   1.000000
   94        1.543939   1.000000
   95        1.616155   1.000000
   96        1.771710   1.000002
   97        2.192114   1.028425
   98        2.267232   1.032959
   99        2.420902   0.769108
  100        2.537771   0.298787
  101        2.591749   0.121403
  102        2.673159  -0.015141
  103        2.742173  -0.035188
  104        2.889874  -0.007833
  105        3.085985  -0.000100
  106        3.238446  -0.000001
  107        3.306839  -0.000000
  108        3.361122  -0.000000
  109        3.388784  -0.000000
  110        3.427810  -0.000000
  111        3.473855  -0.000000
  112        3.482681  -0.000000
  113        3.561116  -0.000000
  114        3.594444  -0.000000
  115        3.658685  -0.000000
  116        3.697098  -0.000000
  117        3.735261  -0.000000
  118        3.771093  -0.000000
  119        3.799654  -0.000000
  120        3.846810  -0.000000
  121        3.899565  -0.000000
  122        3.963524  -0.000000
  123        4.008790  -0.000000
  124        4.089858  -0.000000
  125        4.156096  -0.000000
  126        4.360998  -0.000000
  127        4.825584  -0.000000
  128        5.219406  -0.000000
  129        5.416332  -0.000000
  130        5.817728  -0.000000
  131        6.011666  -0.000000
  132        6.239639  -0.000000

  0.2222222E+00  0.3935346E-15  0.1262379E-14  0.2469136E-01
    1      -11.522342   1.000000
    2      -10.963950   1.000000
    3      -10.190288   1.000000
    4       -9.200132   1.000000
    5       -8.989023   1.000000
    6       -8.960862   1.000000
    7       -8.909918   1.000000
    8       -8.781595   1.000000
    9       -8.476161   1.000000
   10       -8.419194   1.000000
   11       -8.376858   1.000000
   12       -8.242802   1.000000
   13       -8.232268   1.000000
   14       -8.186918   1.000000
   15       -7.359324   1.000000
   16       -7.285784   1.000000
   17       -6.991752   1.000000
   18       -6.969873   1.000000
   19       -6.786092   1.000000
   20       -6.692991   1.000000
   21       -6.404243   1.000000
   22       -6.242835   1.000000
   23       -6.159034   1.000000
   24       -6.063481   1.000000
   25       -6.008288   1.000000
   26       -5.947405   1.000000
   27       -5.778062   1.000000
   28       -5.736431   1.000000
   29       -5.353487   1.000000
   30       -5.222219   1.000000
   31       -4.663969   1.000000
   32       -4.635919   1.000000
   33       -4.594557   1.000000
   34       -4.182333   1.000000
   35       -4.118181   1.000000
   36       -4.059372   1.000000
   37       -3.710572   1.000000
   38       -3.633586   1.000000
   39       -3.531835   1.000000
   40       -3.452465   1.000000
   41       -3.330343   1.000000
   42       -3.311966   1.000000
   43       -3.151836   1.000000
   44       -3.053555   1.000000
   45       -2.961325   1.000000
   46       -2.747543   1.000000
   47       -2.670494   1.000000
   48       -2.629687   1.000000
   49       -2.366065   1.000000
   50       -2.290844   1.000000
   51       -2.277761   1.000000
   52       -2.165530   1.000000
   53       -2.128059   1.000000
   54       -2.089874   1.000000
   55       -2.070113   1.000000
   56       -1.953424   1.000000
   57       -1.915758   1.000000
   58       -1.878346   1.000000
   59       -1.717195   1.000000
   60       -1.692508   1.000000
   61       -1.675745   1.000000
   62       -1.605983   1.000000
   63       -1.585147   1.000000
   64       -1.464399   1.000000
   65       -1.422333   1.000000
   66       -1.366773   1.000000
   67       -1.294309   1.000000
   68       -1.221021   1.000000
   69       -1.139727   1.000000
   70       -1.082591   1.000000
   71       -0.932404   1.000000
   72       -0.866092   1.000000
   73       -0.760671   1.000000
   74       -0.636030   1.000000
   75       -0.557414   1.000000
   76       -0.523367   1.000000
   77       -0.397079   1.000000
   78       -0.319373   1.000000
   79       -0.150239   1.000000
   80       -0.077732   1.000000
   81        0.058742   1.000000
   82        0.268745   1.000000
   83        0.343847   1.000000
   84        0.439377   1.000000
   85        0.522670   1.000000
   86        0.744997   1.000000
   87        0.775749   1.000000
   88        0.978876   1.000000
   89        1.032945   1.000000
   90        1.175303   1.000000
   91        1.214597   1.000000
   92        1.336542   1.000000
   93        1.459622   1.000000
   94        1.542245   1.000000
   95        1.702065   1.000000
   96        1.764474   1.000002
   97        2.157272   1.020471
   98        2.212880   1.032524
   99        2.398945   0.840411
  100        2.532175   0.320421
  101        2.624327   0.047825
  102        2.804499  -0.024017
  103        2.929442  -0.003914
  104        2.972779  -0.001637
  105        3.146511  -0.000017
  106        3.153978  -0.000013
  107        3.190775  -0.000004
  108        3.229503  -0.000001
  109        3.264646  -0.000000
  110        3.282604  -0.000000
  111        3.399633  -0.000000
  112        3.456068  -0.000000
  113        3.510590  -0.000000
  114        3.541366  -0.000000
  115        3.565421  -0.000000
  116        3.643021  -0.000000
  117        3.675127  -0.000000
  118        3.691122  -0.000000
  119        3.734763  -0.000000
  120        3.803568  -0.000000
  121        3.822964  -0.000000
  122        3.878353  -0.000000
  123        3.920373  -0.000000
  124        4.045231  -0.000000
  125        4.107777  -0.000000
  126        4.149733  -0.000000
  127        4.248493  -0.000000
  128        4.293389  -0.000000
  129        4.565493  -0.000000
  130        4.763239  -0.000000
  131        5.723625  -0.000000
  132        6.246416  -0.000000

  0.3333333E+00  0.3939838E-15  0.1262379E-14  0.2469136E-01
    1      -11.246848   1.000000
    2      -10.713699   1.000000
    3      -10.004055   1.000000
    4       -9.805766   1.000000
    5       -9.469454   1.000000
    6       -9.187540   1.000000
    7       -8.772457   1.000000
    8       -8.624586   1.000000
    9       -8.574450   1.000000
   10       -8.540630   1.000000
   11       -8.532922   1.000000
   12       -8.395280   1.000000
   13       -8.308466   1.000000
   14       -8.215482   1.000000
   15       -7.651753   1.000000
   16       -7.573232   1.000000
   17       -6.811495   1.000000
   18       -6.756852   1.000000
   19       -6.477780   1.000000
   20       -6.345708   1.000000
   21       -6.224315   1.000000
   22       -6.165637   1.000000
   23       -6.059069   1.000000
   24       -6.028191   1.000000
   25       -5.906356   1.000000
   26       -5.748550   1.000000
   27       -5.308459   1.000000
   28       -5.159178   1.000000
   29       -4.922506   1.000000
   30       -4.750216   1.000000
   31       -4.448111   1.000000
   32       -4.414969   1.000000
   33       -4.334674   1.000000
   34       -3.985422   1.000000
   35       -3.937180   1.000000
   36       -3.865825   1.000000
   37       -3.840593   1.000000
   38       -3.797857   1.000000
   39       -3.757852   1.000000
   40       -3.644525   1.000000
   41       -3.609442   1.000000
   42       -3.517466   1.000000
   43       -3.138402   1.000000
   44       -2.940763   1.000000
   45       -2.903656   1.000000
   46       -2.864157   1.000000
   47       -2.725258   1.000000
   48       -2.631029   1.000000
   49       -2.581774   1.000000
   50       -2.419638   1.000000
   51       -2.361371   1.000000
   52       -2.291189   1.000000
   53       -2.243357   1.000000
   54       -2.200897   1.000000
   55       -2.145651   1.000000
   56       -2.094775   1.000000
   57       -2.001734   1.000000
   58       -1.979829   1.000000
   59       -1.858534   1.000000
   60       -1.809922   1.000000
   61       -1.755952   1.000000
   62       -1.667299   1.000000
   63       -1.619094   1.000000
   64       -1.594948   1.000000
   65       -1.526271   1.000000
   66       -1.446524   1.000000
   67       -1.396107   1.000000
   68       -1.317889   1.000000
   69       -1.294432   1.000000
   70       -1.219714   1.000000
   71       -1.018893   1.000000
   72       -0.940061   1.000000
   73       -0.873717   1.000000
   74       -0.737911   1.000000
   75       -0.684309   1.000000
   76       -0.581061   1.000000
   77       -0.550469   1.000000
   78       -0.395154   1.000000
   79       -0.273778   1.000000
   80       -0.158624   1.000000
   81        0.063382   1.000000
   82        0.230707   1.000000
   83        0.308379   1.000000
   84        0.476617   1.000000
   85        0.513378   1.000000
   86        0.620240   1.000000
   87        0.699678   1.000000
   88        0.873479   1.000000
   89        0.886022   1.000000
   90        1.053876   1.000000
   91        1.166055   1.000000
   92        1.233766   1.000000
   93        1.402007   1.000000
   94        1.450799   1.000000
   95        1.621684   1.000000
   96        1.926070   1.000256
   97        1.979636   1.000945
   98        2.047176   1.003870
   99        2.209252   1.031889
  100        2.521117   0.364444
  101        2.594517   0.114113
  102        2.696401  -0.028712
  103        2.764736  -0.032457
  104        2.850996  -0.013977
  105        2.877018  -0.009598
  106        3.040399  -0.000337
  107        3.059875  -0.000204
  108        3.138961  -0.000021
  109        3.159881  -0.000011
  110        3.257057  -0.000000
  111        3.339534  -0.000000
  112        3.358000  -0.000000
  113        3.373556  -0.000000
  114        3.482380  -0.000000
  115        3.519275  -0.000000
  116        3.630390  -0.000000
  117        3.678873  -0.000000
  118        3.703571  -0.000000
  119        3.761635  -0.000000
  120        3.816543  -0.000000
  121        3.845761  -0.000000
  122        3.935810  -0.000000
  123        3.984244  -0.000000
  124        4.027838  -0.000000
  125        4.094075  -0.000000
  126        4.157164  -0.000000
  127        4.188473  -0.000000
  128        4.354024  -0.000000
  129        4.472931  -0.000000
  130        4.522578  -0.000000
  131        4.740911  -0.000000
  132        5.615242  -0.000000

  0.4444444E+00  0.3881204E-15  0.1262379E-14  0.2469136E-01
    1      -10.892487   1.000000
    2      -10.389635   1.000000
    3      -10.328763   1.000000
    4       -9.925249   1.000000
    5       -9.763880   1.000000
    6       -9.468296   1.000000
    7       -8.661943   1.000000
    8       -8.626243   1.000000
    9       -8.609634   1.000000
   10       -8.599815   1.000000
   11       -8.470698   1.000000
   12       -8.373740   1.000000
   13       -8.351528   1.000000
   14       -8.204886   1.000000
   15       -8.027871   1.000000
   16       -7.750794   1.000000
   17       -6.765246   1.000000
   18       -6.645957   1.000000
   19       -6.470155   1.000000
   20       -6.167552   1.000000
   21       -6.093276   1.000000
   22       -5.973801   1.000000
   23       -5.898065   1.000000
   24       -5.866809   1.000000
   25       -5.793491   1.000000
   26       -5.689508   1.000000
   27       -4.693495   1.000000
   28       -4.522010   1.000000
   29       -4.471883   1.000000
   30       -4.410484   1.000000
   31       -4.313624   1.000000
   32       -4.259893   1.000000
   33       -4.180659   1.000000
   34       -4.154276   1.000000
   35       -4.084852   1.000000
   36       -4.014747   1.000000
   37       -3.971521   1.000000
   38       -3.828271   1.000000
   39       -3.800575   1.000000
   40       -3.727464   1.000000
   41       -3.642805   1.000000
   42       -3.544341   1.000000
   43       -3.490243   1.000000
   44       -3.410850   1.000000
   45       -2.923352   1.000000
   46       -2.895834   1.000000
   47       -2.751070   1.000000
   48       -2.664479   1.000000
   49       -2.582777   1.000000
   50       -2.475071   1.000000
   51       -2.389108   1.000000
   52       -2.321739   1.000000
   53       -2.264734   1.000000
   54       -2.257293   1.000000
   55       -2.211169   1.000000
   56       -2.146331   1.000000
   57       -2.098466   1.000000
   58       -2.025847   1.000000
   59       -1.980832   1.000000
   60       -1.873390   1.000000
   61       -1.785065   1.000000
   62       -1.734488   1.000000
   63       -1.709310   1.000000
   64       -1.669725   1.000000
   65       -1.577671   1.000000
   66       -1.506364   1.000000
   67       -1.438110   1.000000
   68       -1.350828   1.000000
   69       -1.299756   1.000000
   70       -1.240708   1.000000
   71       -1.144452   1.000000
   72       -0.944689   1.000000
   73       -0.882263   1.000000
   74       -0.829854   1.000000
   75       -0.760098   1.000000
   76       -0.728824   1.000000
   77       -0.582693   1.000000
   78       -0.518338   1.000000
   79       -0.275350   1.000000
   80       -0.131700   1.000000
   81       -0.027607   1.000000
   82        0.176399   1.000000
   83        0.430990   1.000000
   84        0.472684   1.000000
   85        0.534354   1.000000
   86        0.552756   1.000000
   87        0.677413   1.000000
   88        0.773701   1.000000
   89        0.872709   1.000000
   90        0.940607   1.000000
   91        1.156454   1.000000
   92        1.166788   1.000000
   93        1.321310   1.000000
   94        1.586002   1.000000
   95        1.676095   1.000000
   96        1.930180   1.000285
   97        2.013406   1.001979
   98        2.060325   1.004931
   99        2.098559   1.009357
  100        2.167179   1.022735
  101        2.222286   1.033942
  102        2.486888   0.507287
  103        2.625426   0.045807
  104        2.713458  -0.033680
  105        2.800243  -0.025002
  106        2.903007  -0.006292
  107        2.992788  -0.001054
  108        3.029024  -0.000448
  109        3.092876  -0.000083
  110        3.159444  -0.000011
  111        3.218272  -0.000002
  112        3.293094  -0.000000
  113        3.307501  -0.000000
  114        3.377070  -0.000000
  115        3.482115  -0.000000
  116        3.600716  -0.000000
  117        3.648360  -0.000000
  118        3.694182  -0.000000
  119        3.752006  -0.000000
  120        3.831810  -0.000000
  121        3.870342  -0.000000
  122        3.955923  -0.000000
  123        4.020993  -0.000000
  124        4.146380  -0.000000
  125        4.238847  -0.000000
  126        4.323439  -0.000000
  127        4.342843  -0.000000
  128        4.681280  -0.000000
  129        4.793263  -0.000000
  130        4.879237  -0.000000
  131        4.949466  -0.000000
  132        5.198680  -0.000000

  0.3742002E-15  0.1111111E+00  0.1262379E-14  0.2469136E-01
    1      -11.692471   1.000000
    2      -11.119183   1.000000
    3      -10.307978   1.000000
    4       -9.014864   1.000000
    5       -8.888881   1.000000
    6       -8.866855   1.000000
    7       -8.625717   1.000000
    8       -8.500693   1.000000
    9       -8.319226   1.000000
   10       -8.234580   1.000000
   11       -8.199590   1.000000
   12       -8.149719   1.000000
   13       -8.027384   1.000000
   14       -7.989253   1.000000
   15       -7.432153   1.000000
   16       -7.342000   1.000000
   17       -7.208019   1.000000
   18       -7.133512   1.000000
   19       -7.061969   1.000000
   20       -6.914796   1.000000
   21       -6.757126   1.000000
   22       -6.406851   1.000000
   23       -6.316424   1.000000
   24       -6.239925   1.000000
   25       -6.116103   1.000000
   26       -6.061344   1.000000
   27       -5.959072   1.000000
   28       -5.702863   1.000000
   29       -5.550418   1.000000
   30       -5.412182   1.000000
   31       -4.852603   1.000000
   32       -4.785506   1.000000
   33       -4.739179   1.000000
   34       -4.586049   1.000000
   35       -4.365129   1.000000
   36       -4.258175   1.000000
   37       -4.095196   1.000000
   38       -3.779335   1.000000
   39       -3.360830   1.000000
   40       -3.304757   1.000000
   41       -3.140112   1.000000
   42       -3.091105   1.000000
   43       -2.956319   1.000000
   44       -2.830662   1.000000
   45       -2.801129   1.000000
   46       -2.776197   1.000000
   47       -2.686256   1.000000
   48       -2.583230   1.000000
   49       -2.374745   1.000000
   50       -2.310151   1.000000
   51       -2.168415   1.000000
   52       -2.127234   1.000000
   53       -2.056146   1.000000
   54       -2.006497   1.000000
   55       -1.979371   1.000000
   56       -1.970704   1.000000
   57       -1.867811   1.000000
   58       -1.853821   1.000000
   59       -1.691721   1.000000
   60       -1.655370   1.000000
   61       -1.556139   1.000000
   62       -1.544725   1.000000
   63       -1.463715   1.000000
   64       -1.343133   1.000000
   65       -1.317412   1.000000
   66       -1.243356   1.000000
   67       -1.176912   1.000000
   68       -1.042478   1.000000
   69       -0.991188   1.000000
   70       -0.904967   1.000000
   71       -0.862386   1.000000
   72       -0.804986   1.000000
   73       -0.739069   1.000000
   74       -0.561607   1.000000
   75       -0.450681   1.000000
   76       -0.379697   1.000000
   77       -0.304555   1.000000
   78       -0.171439   1.000000
   79       -0.122025   1.000000
   80       -0.022228   1.000000
   81        0.207092   1.000000
   82        0.298061   1.000000
   83        0.422735   1.000000
   84        0.690995   1.000000
   85        0.726564   1.000000
   86        0.855620   1.000000
   87        0.987280   1.000000
   88        1.152731   1.000000
   89        1.201653   1.000000
   90        1.247494   1.000000
   91        1.277858   1.000000
   92        1.323490   1.000000
   93        1.443530   1.000000
   94        1.543781   1.000000
   95        1.616194   1.000000
   96        1.771241   1.000002
   97        2.192035   1.028408
   98        2.267899   1.032805
   99        2.420515   0.770454
  100        2.538041   0.297755
  101        2.591627   0.121729
  102        2.673144  -0.015130
  103        2.742341  -0.035178
  104        2.889909  -0.007828
  105        3.085923  -0.000101
  106        3.238787  -0.000001
  107        3.307424  -0.000000
  108        3.360471  -0.000000
  109        3.388543  -0.000000
  110        3.427895  -0.000000
  111        3.473310  -0.000000
  112        3.482836  -0.000000
  113        3.561090  -0.000000
  114        3.586183  -0.000000
  115        3.659258  -0.000000
  116        3.695554  -0.000000
  117        3.724438  -0.000000
  118        3.759465  -0.000000
  119        3.781889  -0.000000
  120        3.811733  -0.000000
  121        3.867538  -0.000000
  122        3.943705  -0.000000
  123        4.008944  -0.000000
  124        4.042467  -0.000000
  125        4.119724  -0.000000
  126        4.203016  -0.000000
  127        4.675046  -0.000000
  128        5.394114  -0.000000
  129        5.790552  -0.000000
  130        6.042496  -0.000000
  131        6.193357  -0.000000
  132        6.259993  -0.000000

  0.1111111E+00  0.1111111E+00  0.1262379E-14  0.2469136E-01
    1      -11.578080   1.000000
    2      -11.014872   1.000000
    3      -10.228159   1.000000
    4       -8.947539   1.000000
    5       -8.934716   1.000000
    6       -8.918300   1.000000
    7       -8.811542   1.000000
    8       -8.776393   1.000000
    9       -8.692744   1.000000
   10       -8.519018   1.000000
   11       -8.473721   1.000000
   12       -8.209219   1.000000
   13       -8.020672   1.000000
   14       -7.633960   1.000000
   15       -7.567907   1.000000
   16       -7.298913   1.000000
   17       -7.134010   1.000000
   18       -7.108912   1.000000
   19       -6.977402   1.000000
   20       -6.523954   1.000000
   21       -6.429509   1.000000
   22       -6.382375   1.000000
   23       -6.180538   1.000000
   24       -6.167673   1.000000
   25       -6.044570   1.000000
   26       -5.925972   1.000000
   27       -5.824765   1.000000
   28       -5.579898   1.000000
   29       -5.537480   1.000000
   30       -5.283833   1.000000
   31       -4.932968   1.000000
   32       -4.878291   1.000000
   33       -4.375099   1.000000
   34       -4.330194   1.000000
   35       -4.174151   1.000000
   36       -4.061426   1.000000
   37       -3.768907   1.000000
   38       -3.705897   1.000000
   39       -3.530038   1.000000
   40       -3.458111   1.000000
   41       -3.332886   1.000000
   42       -3.108702   1.000000
   43       -3.047359   1.000000
   44       -2.987976   1.000000
   45       -2.852920   1.000000
   46       -2.759683   1.000000
   47       -2.649660   1.000000
   48       -2.558538   1.000000
   49       -2.443024   1.000000
   50       -2.409489   1.000000
   51       -2.270526   1.000000
   52       -2.138801   1.000000
   53       -2.053804   1.000000
   54       -2.006947   1.000000
   55       -1.990024   1.000000
   56       -1.969771   1.000000
   57       -1.935824   1.000000
   58       -1.841239   1.000000
   59       -1.779438   1.000000
   60       -1.634051   1.000000
   61       -1.615598   1.000000
   62       -1.585788   1.000000
   63       -1.556840   1.000000
   64       -1.445304   1.000000
   65       -1.410220   1.000000
   66       -1.337132   1.000000
   67       -1.291088   1.000000
   68       -1.166497   1.000000
   69       -1.106195   1.000000
   70       -0.940691   1.000000
   71       -0.890708   1.000000
   72       -0.851267   1.000000
   73       -0.822197   1.000000
   74       -0.702430   1.000000
   75       -0.526509   1.000000
   76       -0.459323   1.000000
   77       -0.350678   1.000000
   78       -0.207875   1.000000
   79       -0.137148   1.000000
   80       -0.069803   1.000000
   81        0.116292   1.000000
   82        0.180778   1.000000
   83        0.336730   1.000000
   84        0.428695   1.000000
   85        0.598860   1.000000
   86        0.803021   1.000000
   87        0.935126   1.000000
   88        1.100940   1.000000
   89        1.103650   1.000000
   90        1.159993   1.000000
   91        1.190825   1.000000
   92        1.299724   1.000000
   93        1.346699   1.000000
   94        1.593113   1.000000
   95        1.681870   1.000000
   96        1.805671   1.000008
   97        2.227901   1.034600
   98        2.319996   1.000260