   72   72    1    1
  0.2168974E+02  0.1053953E-08  0.6141200E-09  0.2412750E-08  0.5000000E-15
   1.0000000000000000E-004
  CAR 
 Name                                    
    267     23    176

  0.3742002E-15  0.3742002E-15  0.1262379E-14  0.2222222E-01
    1      -13.895625   1.000000
    2      -12.904083   1.000000
    3      -12.757234   1.000000
    4      -12.362560   1.000000
    5      -11.788094   1.000000
    6      -11.621886   1.000000
    7      -11.566239   1.000000
    8      -11.548547   1.000000
    9      -11.387658   1.000000
   10      -11.153782   1.000000
   11      -11.020510   1.000000
   12      -10.977641   1.000000
   13      -10.760647   1.000000
   14      -10.379571   1.000000
   15      -10.245208   1.000000
   16      -10.159932   1.000000
   17      -10.077141   1.000000
   18      -10.029791   1.000000
   19       -9.796167   1.000000
   20       -9.582640   1.000000
   21       -9.541312   1.000000
   22       -9.451379   1.000000
   23       -9.329924   1.000000
   24       -8.923782   1.000000
   25       -8.856253   1.000000
   26       -8.718020   1.000000
   27       -8.579178   1.000000
   28       -8.365691   1.000000
   29       -8.253737   1.000000
   30       -8.062282   1.000000
   31       -7.971226   1.000000
   32       -7.772941   1.000000
   33       -7.442130   1.000000
   34       -7.404859   1.000000
   35       -7.251582   1.000000
   36       -7.116708   1.000000
   37       -7.012087   1.000000
   38       -6.871509   1.000000
   39       -6.865443   1.000000
   40       -6.697529   1.000000
   41       -6.672347   1.000000
   42       -6.593594   1.000000
   43       -6.445535   1.000000
   44       -6.398219   1.000000
   45       -6.321591   1.000000
   46       -6.215471   1.000000
   47       -6.067244   1.000000
   48       -5.967113   1.000000
   49       -5.929256   1.000000
   50       -5.918870   1.000000
   51       -5.746066   1.000000
   52       -5.678325   1.000000
   53       -5.650594   1.000000
   54       -5.592082   1.000000
   55       -5.519587   1.000000
   56       -5.479706   1.000000
   57       -5.367079   1.000000
   58       -5.290645   1.000000
   59       -5.179452   1.000000
   60       -5.111578   1.000000
   61       -5.081543   1.000000
   62       -4.996671   1.000000
   63       -4.910410   1.000000
   64       -4.756547   1.000000
   65       -4.649782   1.000000
   66       -4.605169   1.000000
   67       -4.531209   1.000000
   68       -4.490511   1.000000
   69       -4.445221   1.000000
   70       -4.407851   1.000000
   71       -4.373167   1.000000
   72       -4.282843   1.000000
   73       -4.181554   1.000000
   74       -4.134584   1.000000
   75       -4.096824   1.000000
   76       -4.048058   1.000000
   77       -3.959820   1.000000
   78       -3.849154   1.000000
   79       -3.808630   1.000000
   80       -3.711238   1.000000
   81       -3.647489   1.000000
   82       -3.636291   1.000000
   83       -3.522207   1.000000
   84       -3.511561   1.000000
   85       -3.356784   1.000000
   86       -3.280392   1.000000
   87       -3.265219   1.000000
   88       -3.228489   1.000000
   89       -3.205573   1.000000
   90       -3.139985   1.000000
   91       -3.114302   1.000000
   92       -3.056803   1.000000
   93       -2.951927   1.000000
   94       -2.870784   1.000000
   95       -2.792972   1.000000
   96       -2.752306   1.000000
   97       -2.629522   1.000000
   98       -2.579643   1.000000
   99       -2.561465   1.000000
  100       -2.455744   1.000000
  101       -2.367320   1.000000
  102       -2.326113   1.000000
  103       -2.251644   1.000000
  104       -2.228402   1.000000
  105       -2.087209   1.000000
  106       -2.080700   1.000000
  107       -2.062673   1.000000
  108       -2.037856   1.000000
  109       -1.908695   1.000000
  110       -1.904139   1.000000
  111       -1.898638   1.000000
  112       -1.717193   1.000000
  113       -1.681003   1.000000
  114       -1.632827   1.000000
  115       -1.353974   1.000000
  116       -1.247133   1.000000
  117       -1.225612   1.000000
  118       -1.162156   1.000000
  119       -1.044225   1.000000
  120       -0.947378   1.000000
  121       -0.854021   1.000000
  122       -0.809921   1.000000
  123       -0.639693   1.000000
  124       -0.548926   1.000001
  125       -0.425351   1.000042
  126       -0.383554   1.000136
  127       -0.249301   1.003160
  128       -0.226899   1.004813
  129       -0.089893   1.029263
  130       -0.085126   1.030255
  131        0.038276   0.995513
  132        0.086266   0.911892
  133        0.137153   0.761591
  134        0.203647   0.496067
  135        0.279321   0.200720
  136        0.286022   0.179128
  137        0.340193   0.044610
  138        0.383271  -0.011874
  139        0.448894  -0.035452
  140        0.512116  -0.025517
  141        0.590867  -0.009636
  142        0.733282  -0.000569
  143        0.737088  -0.000519
  144        0.774259  -0.000202
  145        0.873696  -0.000011
  146        0.965589  -0.000000
  147        1.045055  -0.000000
  148        1.133371  -0.000000
  149        1.155631  -0.000000
  150        1.208858  -0.000000
  151        1.264319  -0.000000
  152        1.268800  -0.000000
  153        1.291938  -0.000000
  154        1.330603  -0.000000
  155        1.367496  -0.000000
  156        1.409736  -0.000000
  157        1.432011  -0.000000
  158        1.455859  -0.000000
  159        1.498674  -0.000000
  160        1.528594  -0.000000
  161        1.545290  -0.000000
  162        1.585904  -0.000000
  163        1.609159  -0.000000
  164        1.683554  -0.000000
  165        1.708458  -0.000000
  166        1.738060  -0.000000
  167        1.817162  -0.000000
  168        1.862478  -0.000000
  169        1.869506  -0.000000
  170        1.981709  -0.000000
  171        2.018167  -0.000000
  172        2.115529  -0.000000
  173        2.224354  -0.000000
  174        2.437514  -0.000000
  175        2.641029  -0.000000
  176        2.953815  -0.000000

  0.2000000E+00  0.3742002E-15  0.1262379E-14  0.4444444E-01
    1      -13.855480   1.000000
    2      -13.142386   1.000000
    3      -12.645329   1.000000
    4      -12.121647   1.000000
    5      -11.935699   1.000000
    6      -11.779500   1.000000
    7      -11.597355   1.000000
    8      -11.355582   1.000000
    9      -11.229313   1.000000
   10      -11.164174   1.000000
   11      -10.987144   1.000000
   12      -10.886442   1.000000
   13      -10.752100   1.000000
   14      -10.563271   1.000000
   15      -10.425355   1.000000
   16      -10.266006   1.000000
   17      -10.154607   1.000000
   18      -10.071438   1.000000
   19       -9.741847   1.000000
   20       -9.637851   1.000000
   21       -9.410612   1.000000
   22       -9.365957   1.000000
   23       -9.282126   1.000000
   24       -9.008095   1.000000
   25       -8.879441   1.000000
   26       -8.765164   1.000000
   27       -8.348085   1.000000
   28       -8.242435   1.000000
   29       -8.097980   1.000000
   30       -8.012177   1.000000
   31       -7.977566   1.000000
   32       -7.909519   1.000000
   33       -7.443452   1.000000
   34       -7.388527   1.000000
   35       -7.359895   1.000000
   36       -7.199368   1.000000
   37       -7.072889   1.000000
   38       -7.020497   1.000000
   39       -6.805944   1.000000
   40       -6.750105   1.000000
   41       -6.654678   1.000000
   42       -6.580721   1.000000
   43       -6.534001   1.000000
   44       -6.471408   1.000000
   45       -6.336910   1.000000
   46       -6.156528   1.000000
   47       -6.021137   1.000000
   48       -5.944160   1.000000
   49       -5.911451   1.000000
   50       -5.844927   1.000000
   51       -5.793892   1.000000
   52       -5.694195   1.000000
   53       -5.616449   1.000000
   54       -5.608540   1.000000
   55       -5.448398   1.000000
   56       -5.376740   1.000000
   57       -5.336671   1.000000
   58       -5.281176   1.000000
   59       -5.166200   1.000000
   60       -5.139397   1.000000
   61       -5.079172   1.000000
   62       -4.999982   1.000000
   63       -4.930705   1.000000
   64       -4.736909   1.000000
   65       -4.688995   1.000000
   66       -4.598324   1.000000
   67       -4.539024   1.000000
   68       -4.459288   1.000000
   69       -4.438955   1.000000
   70       -4.383420   1.000000
   71       -4.334676   1.000000
   72       -4.279919   1.000000
   73       -4.219385   1.000000
   74       -4.172492   1.000000
   75       -4.086751   1.000000
   76       -4.031236   1.000000
   77       -3.941342   1.000000
   78       -3.831300   1.000000
   79       -3.783912   1.000000
   80       -3.750595   1.000000
   81       -3.704166   1.000000
   82       -3.653465   1.000000
   83       -3.536117   1.000000
   84       -3.442832   1.000000
   85       -3.354177   1.000000
   86       -3.338458   1.000000
   87       -3.314698   1.000000
   88       -3.250479   1.000000
   89       -3.205849   1.000000
   90       -3.176415   1.000000
   91       -3.066159   1.000000
   92       -3.038899   1.000000
   93       -2.933791   1.000000
   94       -2.911319   1.000000
   95       -2.882738   1.000000
   96       -2.741025   1.000000
   97       -2.651501   1.000000
   98       -2.612103   1.000000
   99       -2.477106   1.000000
  100       -2.444445   1.000000
  101       -2.416252   1.000000
  102       -2.335317   1.000000
  103       -2.221068   1.000000
  104       -2.181970   1.000000
  105       -2.098390   1.000000
  106       -2.064406   1.000000
  107       -2.016399   1.000000
  108       -1.980936   1.000000
  109       -1.909537   1.000000
  110       -1.874173   1.000000
  111       -1.808884   1.000000
  112       -1.743718   1.000000
  113       -1.669934   1.000000
  114       -1.557740   1.000000
  115       -1.381690   1.000000
  116       -1.276732   1.000000
  117       -1.242935   1.000000
  118       -1.169667   1.000000
  119       -1.087973   1.000000
  120       -0.993143   1.000000
  121       -0.903501   1.000000
  122       -0.842202   1.000000
  123       -0.679274   1.000000
  124       -0.594897   1.000000
  125       -0.412557   1.000061
  126       -0.359592   1.000258
  127       -0.268556   1.002147
  128       -0.255450   1.002800
  129       -0.161706   1.013596
  130       -0.141153   1.017712
  131       -0.030154   1.034848
  132        0.064169   0.957315
  133        0.118118   0.824926
  134        0.196767   0.525166
  135        0.293453   0.156393
  136        0.342474   0.040552
  137        0.347144   0.032636
  138        0.448175  -0.035457
  139        0.483136  -0.031695
  140        0.539211  -0.019318
  141        0.578497  -0.011588
  142        0.700761  -0.001210
  143        0.779911  -0.000174
  144        0.831086  -0.000041
  145        0.912138  -0.000003
  146        1.031794  -0.000000
  147        1.047226  -0.000000
  148        1.107926  -0.000000
  149        1.156887  -0.000000
  150        1.189170  -0.000000
  151        1.229846  -0.000000
  152        1.284182  -0.000000
  153        1.315521  -0.000000
  154        1.356508  -0.000000
  155        1.399618  -0.000000
  156        1.429238  -0.000000
  157        1.455301  -0.000000
  158        1.486053  -0.000000
  159        1.509522  -0.000000
  160        1.541137  -0.000000
  161        1.588529  -0.000000
  162        1.600810  -0.000000
  163        1.655018  -0.000000
  164        1.687251  -0.000000
  165        1.719971  -0.000000
  166        1.775094  -0.000000
  167        1.835744  -0.000000
  168        1.872792  -0.000000
  169        1.933617  -0.000000
  170        2.047951  -0.000000
  171        2.165745  -0.000000
  172        2.188653  -0.000000
  173        2.260845  -0.000000
  174        2.403513  -0.000000
  175        2.708480  -0.000000
  176        2.823786  -0.000000

  0.4000000E+00  0.3742002E-15  0.1262379E-14  0.4444444E-01
    1      -13.755684   1.000000
    2      -13.394523   1.000000
    3      -12.527734   1.000000
    4      -12.196981   1.000000
    5      -11.762225   1.000000
    6      -11.651702   1.000000
    7      -11.635860   1.000000
    8      -11.318018   1.000000
    9      -11.177824   1.000000
   10      -11.098144   1.000000
   11      -11.011618   1.000000
   12      -10.916430   1.000000
   13      -10.741482   1.000000
   14      -10.638089   1.000000
   15      -10.544764   1.000000
   16      -10.449067   1.000000
   17      -10.140172   1.000000
   18      -10.055838   1.000000
   19       -9.956689   1.000000
   20       -9.781735   1.000000
   21       -9.401729   1.000000
   22       -9.321830   1.000000
   23       -9.136027   1.000000
   24       -8.920612   1.000000
   25       -8.801206   1.000000
   26       -8.660162   1.000000
   27       -8.329926   1.000000
   28       -8.144620   1.000000
   29       -8.001382   1.000000
   30       -7.874080   1.000000
   31       -7.787177   1.000000
   32       -7.714629   1.000000
   33       -7.641920   1.000000
   34       -7.572967   1.000000
   35       -7.446198   1.000000
   36       -7.328322   1.000000
   37       -7.228092   1.000000
   38       -7.132127   1.000000
   39       -7.051848   1.000000
   40       -6.822225   1.000000
   41       -6.663627   1.000000
   42       -6.563793   1.000000
   43       -6.464791   1.000000
   44       -6.401102   1.000000
   45       -6.290016   1.000000
   46       -6.117661   1.000000
   47       -6.032381   1.000000
   48       -5.952194   1.000000
   49       -5.936022   1.000000
   50       -5.809625   1.000000
   51       -5.748381   1.000000
   52       -5.715832   1.000000
   53       -5.583946   1.000000
   54       -5.510228   1.000000
   55       -5.470189   1.000000
   56       -5.391422   1.000000
   57       -5.332015   1.000000
   58       -5.227697   1.000000
   59       -5.181787   1.000000
   60       -5.094907   1.000000
   61       -5.027471   1.000000
   62       -4.946657   1.000000
   63       -4.896676   1.000000
   64       -4.766004   1.000000
   65       -4.653364   1.000000
   66       -4.616170   1.000000
   67       -4.552139   1.000000
   68       -4.490615   1.000000
   69       -4.434068   1.000000
   70       -4.386017   1.000000
   71       -4.327301   1.000000
   72       -4.249008   1.000000
   73       -4.215724   1.000000
   74       -4.142857   1.000000
   75       -4.056543   1.000000
   76       -3.975329   1.000000
   77       -3.883413   1.000000
   78       -3.865541   1.000000
   79       -3.833095   1.000000
   80       -3.807139   1.000000
   81       -3.736143   1.000000
   82       -3.624148   1.000000
   83       -3.559036   1.000000
   84       -3.480790   1.000000
   85       -3.429973   1.000000
   86       -3.396233   1.000000
   87       -3.338598   1.000000
   88       -3.278281   1.000000
   89       -3.161329   1.000000
   90       -3.138170   1.000000
   91       -3.057948   1.000000
   92       -3.047506   1.000000
   93       -3.020557   1.000000
   94       -2.879799   1.000000
   95       -2.862973   1.000000
   96       -2.806047   1.000000
   97       -2.781584   1.000000
   98       -2.599639   1.000000
   99       -2.541363   1.000000
  100       -2.475058   1.000000
  101       -2.429354   1.000000
  102       -2.204886   1.000000
  103       -2.180097   1.000000
  104       -2.110127   1.000000
  105       -2.076934   1.000000
  106       -1.974982   1.000000
  107       -1.933373   1.000000
  108       -1.904750   1.000000
  109       -1.883462   1.000000
  110       -1.798182   1.000000
  111       -1.757217   1.000000
  112       -1.667971   1.000000
  113       -1.635654   1.000000
  114       -1.529462   1.000000
  115       -1.487665   1.000000
  116       -1.374527   1.000000
  117       -1.298605   1.000000
  118       -1.233899   1.000000
  119       -1.052190   1.000000
  120       -1.029876   1.000000
  121       -0.950819   1.000000
  122       -0.894315   1.000000
  123       -0.761425   1.000000
  124       -0.692434   1.000000
  125       -0.438379   1.000028
  126       -0.412167   1.000061
  127       -0.311977   1.000829
  128       -0.272473   1.001979
  129       -0.244163   1.003490
  130       -0.215789   1.005862
  131       -0.073786   1.032392
  132        0.060698   0.963349
  133        0.174032   0.620003
  134        0.229239   0.388865
  135        0.262330   0.259752
  136        0.334096   0.056085
  137        0.399440  -0.023342
  138        0.425850  -0.033341
  139        0.492284  -0.029902
  140        0.556081  -0.015739
  141        0.680918  -0.001858
  142        0.741961  -0.000461
  143        0.828222  -0.000045
  144        0.893393  -0.000006
  145        0.927107  -0.000002
  146        0.958655  -0.000001
  147        1.058278  -0.000000
  148        1.159088  -0.000000
  149        1.208204  -0.000000
  150        1.241894  -0.000000
  151        1.274880  -0.000000
  152        1.294306  -0.000000
  153        1.341787  -0.000000
  154        1.376051  -0.000000
  155        1.407400  -0.000000
  156        1.436765  -0.000000
  157        1.468647  -0.000000
  158        1.496510  -0.000000
  159        1.532157  -0.000000
  160        1.570579  -0.000000
  161        1.611745  -0.000000
  162        1.672709  -0.000000
  163        1.693805  -0.000000
  164        1.755089  -0.000000
  165        1.790717  -0.000000
  166        1.824476  -0.000000
  167        1.887881  -0.000000
  168        1.955993  -0.000000
  169        2.013802  -0.000000
  170        2.058904  -0.000000
  171        2.130492  -0.000000
  172        2.210550  -0.000000
  173        2.302056  -0.000000
  174        2.448225  -0.000000
  175        2.609672  -0.000000
  176        2.929703  -0.000000

  0.3742002E-15  0.1111111E+00  0.1262379E-14  0.4444444E-01
    1      -13.849966   1.000000
    2      -12.865033   1.000000
    3      -12.722698   1.000000
    4      -12.331696   1.000000
    5      -11.883110   1.000000
    6      -11.605093   1.000000
    7      -11.580860   1.000000
    8      -11.529410   1.000000
    9      -11.433350   1.000000
   10      -11.177584   1.000000
   11      -11.030324   1.000000
   12      -10.950334   1.000000
   13      -10.789472   1.000000
   14      -10.378513   1.000000
   15      -10.225373   1.000000
   16      -10.175454   1.000000
   17      -10.072193   1.000000
   18      -10.024294   1.000000
   19       -9.764824   1.000000
   20       -9.609596   1.000000
   21       -9.528690   1.000000
   22       -9.459063   1.000000
   23       -9.321970   1.000000
   24       -8.958271   1.000000
   25       -8.870660   1.000000
   26       -8.702450   1.000000
   27       -8.560678   1.000000
   28       -8.385847   1.000000
   29       -8.253129   1.000000
   30       -8.083562   1.000000
   31       -7.832416   1.000000
   32       -7.782348   1.000000
   33       -7.531074   1.000000
   34       -7.378066   1.000000
   35       -7.336354   1.000000
   36       -7.172296   1.000000
   37       -7.071150   1.000000
   38       -6.860359   1.000000
   39       -6.828682   1.000000
   40       -6.682807   1.000000
   41       -6.633979   1.000000
   42       -6.573385   1.000000
   43       -6.416275   1.000000
   44       -6.387257   1.000000
   45       -6.291348   1.000000
   46       -6.210784   1.000000
   47       -6.075942   1.000000
   48       -5.971675   1.000000
   49       -5.938373   1.000000
   50       -5.877569   1.000000
   51       -5.761737   1.000000
   52       -5.673588   1.000000
   53       -5.637190   1.000000
   54       -5.592534   1.000000
   55       -5.533768   1.000000
   56       -5.444327   1.000000
   57       -5.284447   1.000000
   58       -5.243398   1.000000
   59       -5.183162   1.000000
   60       -5.104336   1.000000
   61       -5.082192   1.000000
   62       -4.955103   1.000000
   63       -4.884966   1.000000
   64       -4.748992   1.000000
   65       -4.655907   1.000000
   66       -4.598574   1.000000
   67       -4.565384   1.000000
   68       -4.510446   1.000000
   69       -4.462115   1.000000
   70       -4.404291   1.000000
   71       -4.375722   1.000000
   72       -4.260720   1.000000
   73       -4.178038   1.000000
   74       -4.105983   1.000000
   75       -4.087223   1.000000
   76       -4.042773   1.000000
   77       -3.969447   1.000000
   78       -3.849497   1.000000
   79       -3.814208   1.000000
   80       -3.743971   1.000000
   81       -3.719383   1.000000
   82       -3.634312   1.000000
   83       -3.577163   1.000000
   84       -3.513982   1.000000
   85       -3.409415   1.000000
   86       -3.391176   1.000000
   87       -3.307151   1.000000
   88       -3.208720   1.000000
   89       -3.174889   1.000000
   90       -3.137854   1.000000
   91       -3.084070   1.000000
   92       -3.040598   1.000000
   93       -2.975626   1.000000
   94       -2.935219   1.000000
   95       -2.840029   1.000000
   96       -2.766197   1.000000
   97       -2.639178   1.000000
   98       -2.596418   1.000000
   99       -2.546688   1.000000
  100       -2.461115   1.000000
  101       -2.424196   1.000000
  102       -2.319676   1.000000
  103       -2.271606   1.000000
  104       -2.214014   1.000000
  105       -2.178012   1.000000
  106       -2.072257   1.000000
  107       -2.060587   1.000000
  108       -2.009283   1.000000
  109       -1.901799   1.000000
  110       -1.875454   1.000000
  111       -1.831151   1.000000
  112       -1.754542   1.000000
  113       -1.607777   1.000000
  114       -1.572819   1.000000
  115       -1.363138   1.000000
  116       -1.284392   1.000000
  117       -1.263585   1.000000
  118       -1.138418   1.000000
  119       -1.102101   1.000000
  120       -0.934405   1.000000
  121       -0.840155   1.000000
  122       -0.770358   1.000000
  123       -0.662814   1.000000
  124       -0.582317   1.000000
  125       -0.478754   1.000008
  126       -0.364228   1.000228
  127       -0.234710   1.004171
  128       -0.200503   1.007587
  129       -0.172037   1.011761
  130       -0.107323   1.025369
  131       -0.021014   1.033463
  132        0.052360   0.976664
  133        0.169338   0.639079
  134        0.232909   0.373848
  135        0.260314   0.267130
  136        0.331863   0.060520
  137        0.366238   0.005585
  138        0.417017  -0.031044
  139        0.519998  -0.023695
  140        0.548369  -0.017333
  141        0.644808  -0.003822
  142        0.695129  -0.001370
  143        0.801220  -0.000097
  144        0.845316  -0.000027
  145        0.882990  -0.000008
  146        0.960199  -0.000001
  147        1.006337  -0.000000
  148        1.060393  -0.000000
  149        1.146082  -0.000000
  150        1.202017  -0.000000
  151        1.238643  -0.000000
  152        1.271564  -0.000000
  153        1.282659  -0.000000
  154        1.331477  -0.000000
  155        1.372619  -0.000000
  156        1.395429  -0.000000
  157        1.414143  -0.000000
  158        1.473080  -0.000000
  159        1.489732  -0.000000
  160        1.505236  -0.000000
  161        1.575258  -0.000000
  162        1.580585  -0.000000
  163        1.587957  -0.000000
  164        1.637351  -0.000000
  165        1.687789  -0.000000
  166        1.762292  -0.000000
  167        1.786066  -0.000000
  168        1.851723  -0.000000
  169        1.889281  -0.000000
  170        1.937821  -0.000000
  171        1.989308  -0.000000
  172        2.111292  -0.000000
  173        2.243130  -0.000000
  174        2.283104  -0.000000
  175        2.484239  -0.000000
  176        2.774626  -0.000000

  0.2000000E+00  0.1111111E+00  0.1262379E-14  0.4444444E-01
    1      -13.810128   1.000000
    2      -13.103219   1.000000
    3      -12.608070   1.000000
    4      -12.098162   1.000000
    5      -11.910289   1.000000
    6      -11.862718   1.000000
    7      -11.643442   1.000000
    8      -11.393280   1.000000
    9      -11.213919   1.000000
   10      -11.172728   1.000000
   11      -11.001998   1.000000
   12      -10.863515   1.000000
   13      -10.773925   1.000000
   14      -10.552186   1.000000
   15      -10.415808   1.000000
   16      -10.251241   1.000000
   17      -10.171976   1.000000
   18      -10.072204   1.000000
   19       -9.742581   1.000000
   20       -9.622735   1.000000
   21       -9.427021   1.000000
   22       -9.356444   1.000000
   23       -9.276358   1.000000
   24       -9.012419   1.000000
   25       -8.908851   1.000000
   26       -8.751833   1.000000
   27       -8.366029   1.000000
   28       -8.235093   1.000000
   29       -8.114020   1.000000
   30       -8.028282   1.000000
   31       -7.973854   1.000000
   32       -7.776121   1.000000
   33       -7.495080   1.000000
   34       -7.442589   1.000000
   35       -7.374028   1.000000
   36       -7.248790   1.000000
   37       -7.083425   1.000000
   38       -6.961164   1.000000
   39       -6.802864   1.000000
   40       -6.744850   1.000000
   41       -6.661107   1.000000
   42       -6.594197   1.000000
   43       -6.517051   1.000000
   44       -6.466109   1.000000
   45       -6.322389   1.000000
   46       -6.268336   1.000000
   47       -6.051404   1.000000
   48       -5.943878   1.000000
   49       -5.851945   1.000000
   50       -5.798932   1.000000
   51       -5.722379   1.000000
   52       -5.679963   1.000000
   53       -5.633763   1.000000
   54       -5.551643   1.000000
   55       -5.434183   1.000000
   56       -5.367058   1.000000
   57       -5.320126   1.000000
   58       -5.217954   1.000000
   59       -5.184363   1.000000
   60       -5.125027   1.000000
   61       -5.054240   1.000000
   62       -4.970477   1.000000
   63       -4.902762   1.000000
   64       -4.724761   1.000000
   65       -4.674715   1.000000
   66       -4.604183   1.000000
   67       -4.529400   1.000000
   68       -4.493497   1.000000
   69       -4.454424   1.000000
   70       -4.409510   1.000000
   71       -4.302667   1.000000
   72       -4.244442   1.000000
   73       -4.223359   1.000000
   74       -4.170072   1.000000
   75       -4.097103   1.000000
   76       -4.014838   1.000000
   77       -3.934944   1.000000
   78       -3.864019   1.000000
   79       -3.807683   1.000000
   80       -3.787363   1.000000
   81       -3.714084   1.000000
   82       -3.641108   1.000000
   83       -3.570178   1.000000
   84       -3.515204   1.000000
   85       -3.424719   1.000000
   86       -3.386207   1.000000
   87       -3.331451   1.000000
   88       -3.265216   1.000000
   89       -3.183266   1.000000
   90       -3.129957   1.000000
   91       -3.098366   1.000000
   92       -3.056812   1.000000
   93       -2.995777   1.000000
   94       -2.957689   1.000000
   95       -2.885975   1.000000
   96       -2.710171   1.000000
   97       -2.683775   1.000000
   98       -2.595574   1.000000
   99       -2.502967   1.000000
  100       -2.472633   1.000000
  101       -2.380033   1.000000
  102       -2.361081   1.000000
  103       -2.247673   1.000000
  104       -2.182928   1.000000
  105       -2.152625   1.000000
  106       -2.138664   1.000000
  107       -2.000534   1.000000
  108       -1.972502   1.000000
  109       -1.879385   1.000000
  110       -1.843576   1.000000
  111       -1.780380   1.000000
  112       -1.743993   1.000000
  113       -1.640534   1.000000
  114       -1.557128   1.000000
  115       -1.385728   1.000000
  116       -1.319741   1.000000
  117       -1.243841   1.000000
  118       -1.166313   1.000000
  119       -1.118791   1.000000
  120       -1.018948   1.000000
  121       -0.850004   1.000000
  122       -0.788456   1.000000
  123       -0.645401   1.000000
  124       -0.609079   1.000000
  125       -0.539921   1.000001
  126       -0.347227   1.000353
  127       -0.285385   1.001504
  128       -0.211953   1.006263
  129       -0.160439   1.013832
  130       -0.137882   1.018417
  131       -0.058424   1.034555
  132        0.055680   0.971560
  133        0.173361   0.622743
  134        0.211159   0.464314
  135        0.283889   0.185890
  136        0.320072   0.086009
  137        0.402920  -0.025232
  138        0.469258  -0.033914
  139        0.489484  -0.030472
  140        0.611810  -0.006883
  141        0.629694  -0.005048
  142        0.705778  -0.001081
  143        0.798244  -0.000106
  144        0.852535  -0.000022
  145        0.929130  -0.000002
  146        0.992839  -0.000000
  147        1.059663  -0.000000
  148        1.080222  -0.000000
  149        1.117084  -0.000000
  150        1.210905  -0.000000
  151        1.240683  -0.000000
  152        1.286225  -0.000000
  153        1.314915  -0.000000
  154        1.336042  -0.000000
  155        1.382671  -0.000000
  156        1.408917  -0.000000
  157        1.440152  -0.000000
  158        1.464663  -0.000000
  159        1.495906  -0.000000
  160        1.520678  -0.000000
  161        1.556968  -0.000000
  162        1.610508  -0.000000
  163        1.651932  -0.000000
  164        1.671810  -0.000000
  165        1.725654  -0.000000
  166        1.749071  -0.000000
  167        1.794428  -0.000000
  168        1.846816  -0.000000
  169        1.887171  -0.000000
  170        1.973067  -0.000000
  171        2.068962  -0.000000
  172        2.143048  -0.000000
  173        2.187241  -0.000000
  174        2.345036  -0.000000
  175        2.517368  -0.000000
  176        3.916040  -0.000000

  0.4000000E+00  0.1111111E+00  0.1262379E-14  0.4444444E-01
    1      -13.711093   1.000000
    2      -13.353342   1.000000
    3      -12.491101   1.000000
    4      -12.165497   1.000000
    5      -11.851687   1.000000
    6      -11.710099   1.000000
    7      -11.610393   1.000000
    8      -11.347654   1.000000
    9      -11.199575   1.000000
   10      -11.073140   1.000000
   11      -10.993711   1.000000