  23   23    1    1
  2.0318051e+02   6.0942109e-10   6.0942109e-10   6.3143099e-10   5.0000000e-16
            1.000000e-04
  CAR
 DOS and projected DOS file by LOBSTER. Energy is shifted such that the Fermi level lies at 0 eV. 
     17.27112737      -7.77897283   501       8.25309130       1.00000000
-16.03206   0.00000   0.00000
-15.98196   0.00000   0.00000
-15.93186   0.00000   0.00000
-15.88176   0.00000   0.00000
-15.83166   0.00000   0.00000
-15.78156   0.00000   0.00000
-15.73146   0.00000   0.00000
-15.68136   0.00000   0.00000
-15.63126   0.00000   0.00000
-15.58116   0.00000   0.00000
-15.53106   0.00000   0.00000
-15.48096   0.00000   0.00000
-15.43086   0.00000   0.00000
-15.38076   0.00000   0.00000
-15.33066   0.00000   0.00000
-15.28056   0.00000   0.00000
-15.23046   0.00000   0.00000
-15.18036   0.00000   0.00000
-15.13026   0.00000   0.00000
-15.08016   0.00000   0.00000
-15.03006   0.00000   0.00000
-14.97996   0.00000   0.00000
-14.92986   0.00000   0.00000
-14.87976   0.00000   0.00000
-14.82966   0.00000   0.00000
-14.77956   0.00000   0.00000
-14.72946   0.00000   0.00000
-14.67936   0.00000   0.00000
-14.62926   0.00000   0.00000
-14.57916   0.00000   0.00000
-14.52906   0.00000   0.00000
-14.47896   0.00000   0.00000
-14.42886   0.00000   0.00000
-14.37876   0.00000   0.00000
-14.32866   0.08413   0.00421
-14.27856   0.35469   0.02198
-14.22846   0.51718   0.04790
-14.17836   0.62684   0.07930
-14.12826   0.72472   0.11561
-14.07816   0.83699   0.15754
-14.02806   0.91594   0.20343
-13.97796   0.98850   0.25295
-13.92786   1.07178   0.30665
-13.87776   1.16397   0.36497
-13.82766   1.23239   0.42671
-13.77756   1.30203   0.49194
-13.72745   1.37784   0.56097
-13.67735   1.45963   0.63410
-13.62725   1.63068   0.71580
-13.57715   1.70696   0.80131
-13.52705   1.74749   0.88886
-13.47695   1.78658   0.97837
-13.42685   1.89623   1.07337
-13.37675   1.99880   1.17351
-13.32665   2.04261   1.27585
-13.27655   2.23237   1.38769
-13.22645   2.08293   1.49205
-13.17635   1.97315   1.59090
-13.12625   1.92686   1.68744
-13.07615   1.88483   1.78187
-13.02605   1.76074   1.87008
-12.97595   1.81695   1.96111
-12.92585   2.03616   2.06312
-12.87575   2.45374   2.18606
-12.82565   2.82784   2.32773
-12.77555   2.91623   2.47384
-12.72545   2.97138   2.62270
-12.67535   3.26307   2.78618
-12.62525   3.47074   2.96007
-12.57515   3.52901   3.13687
-12.52505   3.14774   3.29457
-12.47495   2.62677   3.42618
-12.42485   2.45335   3.54909
-12.37475   2.48688   3.67368
-12.32465   3.25014   3.83652
-12.27455   3.98935   4.03638
-12.22445   4.38336   4.25599
-12.17435   4.66860   4.48989
-12.12425   4.92897   4.73683
-12.07415   4.87786   4.98121
-12.02405   4.70946   5.21716
-11.97395   5.88442   5.51197
-11.92385   5.05107   5.76503
-11.87375   5.50082   6.04062
-11.82365   5.00270   6.29126
-11.77355   4.65639   6.52454
-11.72345   4.73633   6.76183
-11.67335   5.25287   7.02500
-11.62325   6.09312   7.33027
-11.57315   6.09857   7.63581
-11.52305   6.30340   7.95161
-11.47295   6.54166   8.27935
-11.42285   6.63539   8.61178
-11.37275   6.95853   8.96041
-11.32265   6.59342   9.29074
-11.27255   6.48220   9.61550
-11.22244   6.55077   9.94369
-11.17234   6.66896  10.27781
-11.12224   6.79763  10.61837
-11.07214   6.11879  10.92492
-11.02204   4.81073  11.16594
-10.97194   4.08804  11.37075
-10.92184   3.55354  11.54879
-10.87174   3.22921  11.71057
-10.82164   3.46693  11.88427
-10.77154   3.81086  12.07519
-10.72144   4.81555  12.31645
-10.67134   5.60990  12.59751
-10.62124   5.99472  12.89784
-10.57114   6.40191  13.21858
-10.52104   6.51740  13.54510
-10.47094   6.26294  13.85888
-10.42084   5.07179  14.11298
-10.37074   4.90791  14.35886
-10.32064   5.22054  14.62041
-10.27054   4.45778  14.84375
-10.22044   3.62192  15.02521
-10.17034   2.81579  15.16628
-10.12024   2.38945  15.28599
-10.07014   2.22700  15.39756
-10.02004   2.07221  15.50138
 -9.96994   1.98804  15.60098
 -9.91984   2.41693  15.72207
 -9.86974   2.61377  15.85302
 -9.81964   1.90419  15.94842
 -9.76954   1.83268  16.04024
 -9.71944   2.00345  16.14061
 -9.66934   2.45897  16.26381
 -9.61924   2.49039  16.38858
 -9.56914   2.41723  16.50968
 -9.51904   2.10210  16.61500
 -9.46894   2.47113  16.73880
 -9.41884   3.28445  16.90335
 -9.36874   3.65776  17.08661
 -9.31864   4.42395  17.30825
 -9.26854   4.51386  17.53439
 -9.21844   4.53055  17.76137
 -9.16834   4.91544  18.00764
 -9.11824   5.16277  18.26630
 -9.06814   5.25583  18.52961
 -9.01804   5.34116  18.79721
 -8.96794   5.49275  19.07239
 -8.91784   5.64704  19.35531
 -8.86774   5.81528  19.64666
 -8.81764   5.99760  19.94714
 -8.76754   5.23693  20.20951
 -8.71743   4.68172  20.44407
 -8.66733   4.14778  20.65187
 -8.61723   3.72167  20.83833
 -8.56713   3.43511  21.01043
 -8.51703   3.87514  21.20457
 -8.46693   4.76926  21.44351
 -8.41683   4.88804  21.68840
 -8.36673   3.91657  21.88463
 -8.31663   3.82435  22.07623
 -8.26653   4.39950  22.29664
 -8.21643   4.81604  22.53793
 -8.16633   5.29654  22.80328
 -8.11623   5.52521  23.08010
 -8.06613   5.46998  23.35415
 -8.01603   5.51838  23.63062
 -7.96593   5.48847  23.90559
 -7.91583   5.43093  24.17768
 -7.86573   5.80213  24.46837
 -7.81563   6.06461  24.77221
 -7.76553   5.05110  25.02527
 -7.71543   4.58884  25.25517
 -7.66533   4.43736  25.47748
 -7.61523   4.35943  25.69589
 -7.56513   4.33273  25.91296
 -7.51503   4.61169  26.14401
 -7.46493   5.97666  26.44344
 -7.41483   6.06813  26.74746
 -7.36473   5.43987  27.01999
 -7.31463   5.29844  27.28545
 -7.26453   5.39208  27.55559
 -7.21443   5.37517  27.82489
 -7.16433   5.67494  28.10920
 -7.11423   5.20854  28.37015
 -7.06413   5.09785  28.62556
 -7.01403   5.85217  28.91875
 -6.96393   6.47843  29.24332
 -6.91383   6.99045  29.59355
 -6.86373   7.02842  29.94567
 -6.81363   6.70233  30.28146
 -6.76353   5.69039  30.56655
 -6.71343   5.18837  30.82649
 -6.66333   4.31660  31.04275
 -6.61323   3.82304  31.23428
 -6.56313   4.72000  31.47076
 -6.51303   5.80744  31.76171
 -6.46293   6.76369  32.10057
 -6.41283   7.95737  32.49924
 -6.36273   9.78675  32.98956
 -6.31263  11.05350  33.54334
 -6.26253  12.84285  34.18677
 -6.21242  14.29440  34.90292
 -6.16232  14.97588  35.65322
 -6.11222  13.22397  36.31574
 -6.06212  12.56797  36.94540
 -6.01202  11.51656  37.52238
 -5.96192  10.28867  38.03784
 -5.91182   9.66223  38.52192
 -5.86172   9.10831  38.97825
 -5.81162   8.38020  39.39810
 -5.76152   8.61521  39.82973
 -5.71142   8.47220  40.25419
 -5.66132   8.27743  40.66889
 -5.61122   9.05961  41.12277
 -5.56112  10.58327  41.65300
 -5.51102  10.04140  42.15607
 -5.46092   9.56654  42.63536
 -5.41082   9.42254  43.10743
 -5.36072   9.34219  43.57548
 -5.31062   9.66300  44.05960
 -5.26052  11.20953  44.62119
 -5.21042  11.82932  45.21385
 -5.16032  12.11183  45.82065
 -5.11022  12.81402  46.46264
 -5.06012  13.32552  47.13025
 -5.01002  14.78075  47.87077
 -4.95992  16.91756  48.71834
 -4.90982  15.50728  49.49526
 -4.85972  15.58257  50.27595
 -4.80962  14.50194  51.00250
 -4.75952  13.56404  51.68206
 -4.70942  15.06085  52.43661
 -4.65932  13.34305  53.10510
 -4.60922  14.64806  53.83897
 -4.55912  13.66158  54.52342
 -4.50902  13.49312  55.19943
 -4.45892  13.86064  55.89385
 -4.40882  15.44681  56.66773
 -4.35872  14.84960  57.41170
 -4.30862  13.24851  58.07546
 -4.25852  14.88266  58.82108
 -4.20842  15.74524  59.60992
 -4.15832  19.84837  60.60433
 -4.10822  14.38478  61.32501
 -4.05812  18.34580  62.24413
 -4.00802  15.38000  63.01468
 -3.95792  13.04477  63.66822
 -3.90782  12.54722  64.29684
 -3.85772  12.39182  64.91767
 -3.80762  13.74233  65.60617
 -3.75752  11.05310  66.15993
 -3.70741  10.12393  66.66714
 -3.65731   8.74457  67.10524
 -3.60721  10.97133  67.65491
 -3.55711  11.54148  68.23314
 -3.50701  10.45799  68.75709
 -3.45691   8.80498  69.19822
 -3.40681   7.72499  69.58524
 -3.35671   6.31192  69.90147
 -3.30661   7.41061  70.27274
 -3.25651   8.75391  70.71132
 -3.20641   9.87976  71.20629
 -3.15631   7.80795  71.59747
 -3.10621   7.18006  71.95720
 -3.05611   6.98676  72.30724
 -3.00601   7.18674  72.66729
 -2.95591   6.97536  73.01676
 -2.90581   7.86639  73.41087
 -2.85571   7.34224  73.77871
 -2.80561   5.06919  74.03268
 -2.75551   4.24887  74.24555
 -2.70541   4.20982  74.45646
 -2.65531   4.33464  74.67363
 -2.60521   4.62381  74.90528
 -2.55511   4.15693  75.11355
 -2.50501   3.45369  75.28658
 -2.45491   3.67174  75.47053
 -2.40481   4.76693  75.70936
 -2.35471   4.09230  75.91438
 -2.30461   2.61616  76.04545
 -2.25451   2.33298  76.16233
 -2.20441   2.55174  76.29018
 -2.15431   3.60305  76.47069
 -2.10421   4.23708  76.68297
 -2.05411   4.76868  76.92188
 -2.00401   5.84411  77.21467
 -1.95391   4.49023  77.43963
 -1.90381   3.38024  77.60898
 -1.85371   3.73620  77.79617
 -1.80361   6.00531  78.09704
 -1.75351   6.79829  78.43763
 -1.70341   6.90375  78.78351
 -1.65331   6.34724  79.10151
 -1.60321   4.91543  79.34777
 -1.55311   3.88524  79.54242
 -1.50301   3.16655  79.70107
 -1.45291   2.57890  79.83027
 -1.40281   2.82580  79.97184
 -1.35271   3.41597  80.14299
 -1.30261   4.15398  80.35110
 -1.25251   4.45931  80.57451
 -1.20240   4.93422  80.82172
 -1.15230   6.09152  81.12690
 -1.10220   6.14691  81.43487
 -1.05210   6.35686  81.75335
 -1.00200   5.78095  82.04297
 -0.95190   4.35099  82.26096
 -0.90180   4.07303  82.46502
 -0.85170   5.65998  82.74858
 -0.80160   7.34053  83.11635
 -0.75150   7.32054  83.48311
 -0.70140   5.71077  83.76922
 -0.65130   4.68694  84.00403
 -0.60120   5.76220  84.29272
 -0.55110   7.16764  84.65182
 -0.50100   6.45825  84.97538
 -0.45090   6.09186  85.28058
 -0.40080   6.08099  85.58524
 -0.35070   6.71263  85.92155
 -0.30060   6.57491  86.25095
 -0.25050   6.91609  86.59745
 -0.20040   8.18386  87.00746
 -0.15030   9.32193  87.47449
 -0.10020   8.44844  87.89776
 -0.05010  11.14428  88.45609
 -0.00000  10.93219  89.00380
  0.05010  10.55862  89.53279
  0.10020   9.11478  89.98944
  0.15030   8.80712  90.43068
  0.20040   9.42390  90.90282
  0.25050   9.16619  91.36204
  0.30060   9.47739  91.83686
  0.35070  10.03782  92.33976
  0.40080  10.17400  92.84948
  0.45090  11.37671  93.41945
  0.50100  12.23471  94.03242
  0.55110  12.87412  94.67741
  0.60120  14.43113  95.40041
  0.65130  14.02443  96.10304
  0.70140  14.57719  96.83336
  0.75150  15.37531  97.60367
  0.80160  13.98712  98.30442
  0.85170  14.50541  99.03115
  0.90180  17.79786  99.92283
  0.95190  15.37181 100.69296
  1.00200  16.96732 101.54302
  1.05210  19.05918 102.49789
  1.10220  16.96508 103.34784
  1.15230  16.38571 104.16877
  1.20240  13.29923 104.83507
  1.25251  14.33513 105.55326
  1.30261  13.48205 106.22871
  1.35271  13.26059 106.89307
  1.40281  12.36309 107.51246
  1.45291  14.04293 108.21602
  1.50301  13.79240 108.90702
  1.55311  12.58538 109.53755
  1.60321  12.19166 110.14835
  1.65331  11.74788 110.73692
  1.70341  12.35376 111.35585
  1.75351  12.42375 111.97828
  1.80361  10.28575 112.49360
  1.85371   8.86354 112.93767
  1.90381   7.69303 113.32309
  1.95391   9.39927 113.79399
  2.00401  10.55746 114.32292
  2.05411   9.12477 114.78008
  2.10421   7.54703 115.15818
  2.15431   8.15365 115.56668
  2.20441   7.61142 115.94802
  2.25451   7.58030 116.32779
  2.30461   8.57000 116.75715
  2.35471   9.86906 117.25159
  2.40481  10.64816 117.78507
  2.45491  11.38666 118.35554
  2.50501  10.53615 118.88340
  2.55511   8.65652 119.31710
  2.60521   7.69305 119.70252
  2.65531   6.90793 120.04861
  2.70541   6.09131 120.35379
  2.75551   6.99988 120.70448
  2.80561   8.57685 121.13418
  2.85571   7.48961 121.50941
  2.90581   6.68908 121.84454
  2.95591   7.30827 122.21068
  3.00601   7.30627 122.57673
  3.05611   7.02720 122.92879
  3.10621   7.92602 123.32589
  3.15631   9.75310 123.81452
  3.20641   8.61728 124.24625
  3.25651   8.00334 124.64722
  3.30661   6.91145 124.99348
  3.35671   5.90519 125.28933
  3.40681   5.43292 125.56153
  3.45691   5.19657 125.82187
  3.50701   5.41985 126.09341
  3.55711   5.31707 126.35980
  3.60721   9.67694 126.84461
  3.65731  12.06831 127.44924
  3.70741   7.99808 127.84994
  3.75752   8.86495 128.29408
  3.80762   9.20029 128.75502
  3.85772   8.90722 129.20127
  3.90782   6.66849 129.53536
  3.95792   5.61728 129.81679
  4.00802   5.02167 130.06838
  4.05812   4.54559 130.29611
  4.10822   3.78213 130.48560
  4.15832   3.64734 130.66833
  4.20842   3.93522 130.86548
  4.25852   4.79748 131.10584
  4.30862   5.86460 131.39966
  4.35872   7.12283 131.75651
  4.40882   7.62425 132.13849
  4.45892   7.05834 132.49211
  4.50902   6.69847 132.82771
  4.55912   7.10767 133.18380
  4.60922   6.90793 133.52989
  4.65932   6.61612 133.86136
  4.70942   6.73099 134.19858
  4.75952   7.10344 134.55447
  4.80962   7.29793 134.92010
  4.85972   7.33401 135.28753
  4.90982   7.14558 135.64553
  4.95992   6.60439 135.97641
  5.01002   6.71608 136.31288
  5.06012   6.45381 136.63622
  5.11022   6.43070 136.95840
  5.16032   5.90444 137.25421
  5.21042   5.81256 137.54542
  5.26052   5.93596 137.84282
  5.31062   6.08932 138.14789
  5.36072   6.24893 138.46097
  5.41082   6.17177 138.77017
  5.46092   6.31228 139.08642
  5.51102   6.55279 139.41472
  5.56112   6.79838 139.75532
  5.61122   6.81179 140.09659
  5.66132   6.87142 140.44085
  5.71142   7.08311 140.79571
  5.76152   7.21662 141.15727
  5.81162   7.25811 141.52090
  5.86172   7.10655 141.87694
  5.91182   7.39522 142.24744
  5.96192   7.66180 142.63130
  6.01202   8.46417 143.05536
  6.06212   8.67454 143.48995
  6.11222   8.92961 143.93733
  6.16232   9.73571 144.42509
  6.21242   9.86106 144.91913
  6.26253  10.44088 145.44222
  6.31263  11.11511 145.99909
  6.36273   9.97162 146.49867
  6.41283   9.79414 146.98936
  6.46293  10.19592 147.50017
  6.51303  11.15649 148.05912
  6.56313  11.40782 148.63065
  6.61323  10.15159 149.13925
  6.66333  10.38318 149.65945
  6.71343   8.59648 150.09013
  6.76353   7.40249 150.46100
  6.81363   7.53774 150.83864
  6.86373   7.80668 151.22976
  6.91383   8.02916 151.63202
  6.96393   8.54409 152.06008
  7.01403   9.32038 152.52703
  7.06413   7.96367 152.92602
  7.11423   7.71262 153.31242
  7.16433   7.98212 153.71233
  7.21443   7.92786 154.10951
  7.26453   8.67982 154.54437
  7.31463   8.50277 154.97036
  7.36473   8.66853 155.40466
  7.41483   8.95039 155.85308
  7.46493   8.71248 156.28957
  7.51503   8.17373 156.69908
  7.56513   7.92351 157.09605
  7.61523   7.56283 157.47495
  7.66533   8.50586 157.90109
  7.71543   9.68050 158.38609
  7.76553  10.91921 158.93314
  7.81563  10.25300 159.44682
  7.86573   9.05004 159.90023
  7.91583   9.83997 160.39321
  7.96593  11.27070 160.95788
  8.01603  11.78932 161.54852
  8.06613  11.59016 162.12919
  8.11623  12.21536 162.74118
  8.16633  11.13195 163.29890
  8.21643  10.04040 163.80192
  8.26653   9.97807 164.30183
  8.31663   9.24152 164.76483
  8.36673   8.92500 165.21197
  8.41683   9.27524 165.67666
  8.46693   8.89159 166.12214
  8.51703   8.81199 166.56362
  8.56713   8.08680 166.96877
  8.61723   7.91168 167.36514
  8.66733   8.14772 167.77335
  8.71743   8.65222 168.20682
  8.76754   8.88992 168.65221
  8.81764   8.67372 169.08677
  8.86774   8.21351 169.49827
  8.91784   8.15915 169.90704
  8.96794   8.80200 170.34802
  9.01804   9.71105 170.83455
      9.01803607     -16.03206413   501       8.25309130       1.00000000; Z= 42; 5s 4p_y 4p_z 4p_x 4d_xy 4d_yz 4d_z^2 4d_xz 4d_x^2-y^2 
-16.03206   0.00000   0.00000   0.00000   0.00000   0.00000   0.00000   0.00000   0.00000   0.00000
-15.98196   0.00000   0.00000   0.00000   0.00000   0.00000   0.00000   0.00000   0.00000   0.00000
-15.93186   0.00000   0.00000   0.00000   0.00000   0.00000   0.00000   0.00000   0.00000   0.00000
-15.88176   0.00000   0.00000   0.00000   0.00000   0.00000   0.00000   0.00000   0.00000   0.00000
-15.83166   0.00000   0.00000   0.00000   0.00000   0.00000   0.00000   0.00000   0.00000   0.00000
-15.78156   0.00000   0.00000   0.00000   0.00000   0.00000   0.00000   0.00000   0.00000   0.00000
-15.73146   0.00000   0.00000   0.00000   0.00000   0.00000   0.00000   0.00000   0.00000   0.00000
-15.68136   0.00000   0.00000   0.00000   0.00000   0.00000   0.00000   0.00000   0.00000   0.00000
-15.63126   0.00000   0.00000   0.00000   0.00000   0.00000   0.00000   0.00000   0.00000   0.00000
-15.58116   0.00000   0.00000   0.00000   0.00000   0.00000   0.00000   0.00000   0.00000   0.00000
-15.53106   0.00000   0.00000   0.00000   0.00000   0.00000   0.00000   0.00000   0.00000   0.00000
-15.48096   0.00000   0.00000   0.00000   0.00000   0.00000   0.00000   0.00000   0.00000   0.00000
-15.43086   0.00000   0.00000   0.00000   0.00000   0.00000   0.00000   0.00000   0.00000   0.00000
-15.38076   0.00000   0.00000   0.00000   0.00000   0.00000   0.00000   0.00000   0.00000   0.00000
-15.33066   0.00000   0.00000   0.00000   0.00000   0.00000   0.00000   0.00000   0.00000   0.00000
-15.28056   0.00000   0.00000   0.00000   0.00000   0.00000   0.00000   0.00000   0.00000   0.00000
-15.23046   0.00000   0.00000   0.00000   0.00000   0.00000   0.00000   0.00000   0.00000   0.00000
-15.18036   0.00000   0.00000   0.00000   0.00000   0.00000   0.00000   0.00000   0.00000   0.00000
-15.13026   0.00000   0.00000   0.00000   0.00000   0.00000   0.00000   0.00000   0.00000   0.00000
-15.08016   0.00000   0.00000   0.00000   0.00000   0.00000   0.00000   0.00000   0.00000   0.00000
-15.03006   0.00000   0.00000   0.00000   0.00000   0.00000   0.00000   0.00000   0.00000   0.00000
-14.97996   0.00000   0.00000   0.00000   0.00000   0.00000   0.00000   0.00000   0.00000   0.00000
-14.92986   0.00000   0.00000   0.00000   0.00000   0.00000   0.00000   0.00000   0.00000   0.00000
-14.87976   0.00000   0.00000   0.00000   0.00000   0.00000   0.00000   0.00000   0.00000   0.00000
-14.82966   0.00000   0.00000   0.00000   0.00000   0.00000   0.00000   0.00000   0.00000   0.00000
-14.77956   0.00000   0.00000   0.00000   0.00000   0.00000   0.00000   0.00000   0.00000   0.00000
-14.72946   0.00000   0.00000   0.00000   0.00000   0.00000   0.00000   0.00000   0.00000   0.00000
-14.67936   0.00000   0.00000   0.00000   0.00000   0.00000   0.00000   0.00000   0.00000   0.00000
-14.62926   0.00000   0.00000   0.00000   0.00000   0.00000   0.00000   0.00000   0.00000   0.00000
-14.57916   0.00000   0.00000   0.00000   0.00000   0.00000   0.00000   0.00000   0.00000   0.00000
-14.52906   0.00000   0.00000   0.00000   0.00000   0.00000   0.00000   0.00000   0.00000   0.00000
-14.47896   0.00000   0.00000   0.00000   0.00000   0.00000   0.00000   0.00000   0.00000   0.00000
-14.42886   0.00000   0.00000   0.00000   0.00000   0.00000   0.00000   0.00000   0.00000   0.00000
-14.37876   0.00000   0.00000   0.00000   0.00000   0.00000   0.00000   0.00000   0.00000   0.00000
-14.32866   0.00053   0.00000   0.00000   0.00000  -0.00000   0.00000   0.00003   0.00000  -0.00000
-14.27856   0.00210   0.00000   0.00000   0.00000   0.00000   0.00000   0.00011   0.00000   0.00000
-14.22846   0.00294   0.00001   0.00000   0.00001   0.00000   0.00000   0.00017   0.00000   0.00000
-14.17836   0.00347   0.00002   0.00000   0.00001   0.00000   0.00001   0.00021   0.00001   0.00001
-14.12826   0.00398   0.00002   0.00000   0.00002   0.00001   0.00002   0.00025   0.00002   0.00001
-14.07816   0.00461   0.00003   0.00000   0.00003   0.00001   0.00003   0.00030   0.00003   0.00001
-14.02806   0.00507   0.00004  -0.00000   0.00004   0.00002   0.00005   0.00034   0.00005   0.00002
-13.97796   0.00552   0.00005  -0.00001   0.00005   0.00003   0.00007   0.00037   0.00007   0.00003
-13.92786   0.00610   0.00006  -0.00001   0.00006   0.00004   0.00010   0.00041   0.00009   0.00004
-13.87776   0.00677   0.00006  -0.00002   0.00007   0.00005   0.00013   0.00046   0.00012   0.00006
-13.82766   0.00741   0.00007  -0.00002   0.00007   0.00007   0.00017   0.00049   0.00016   0.00007
-13.77756   0.00816   0.00007  -0.00003   0.00008   0.00009   0.00022   0.00053   0.00021   0.00009
-13.72745   0.00902   0.00007  -0.00004   0.00009   0.00011   0.00027   0.00056   0.00026   0.00012
-13.67735   0.00991   0.00008  -0.00005   0.00009   0.00013   0.00033   0.00060   0.00032   0.00014
-13.62725   0.01273   0.00008  -0.00006   0.00010   0.00015   0.00041   0.00062   0.00039   0.00016
-13.57715   0.01353   0.00008  -0.00007   0.00011   0.00017   0.00051   0.00065   0.00048   0.00019
-13.52705   0.01340   0.00009  -0.00008   0.00012   0.00021   0.00062   0.00068   0.00058   0.00023
-13.47695   0.01275   0.00010  -0.00009   0.00014   0.00024   0.00073   0.00070   0.00069   0.00026
-13.42685   0.01265   0.00010  -0.00010   0.00016   0.00027   0.00086   0.00073   0.00081   0.00030
-13.37675   0.01206   0.00011  -0.00010   0.00019   0.00031   0.00104   0.00076   0.00098   0.00034
-13.32665   0.01182   0.00013  -0.00011   0.00020   0.00034   0.00123   0.00075   0.00116   0.00039
-13.27655   0.01302   0.00013  -0.00020   0.00020   0.00041   0.00151   0.00070   0.00140   0.00046
-13.22645   0.01314   0.00013  -0.00024   0.00018   0.00040   0.00179   0.00061   0.00165   0.00045
-13.17635   0.01296   0.00012  -0.00028   0.00016   0.00040   0.00213   0.00054   0.00194   0.00044
-13.12625   0.01305   0.00010  -0.00033   0.00014   0.00039   0.00245   0.00048   0.00222   0.00043
-13.07615   0.01285   0.00008  -0.00036   0.00013   0.00040   0.00284   0.00042   0.00255   0.00044
-13.02605   0.01275   0.00008  -0.00040   0.00011   0.00034   0.00322   0.00038   0.00285   0.00037
-12.97595   0.01270   0.00006  -0.00045   0.00010   0.00044   0.00363   0.00062   0.00318   0.00057
-12.92585   0.01424   0.00006  -0.00048   0.00009   0.00076   0.00419   0.00114   0.00362   0.00096
-12.87575   0.01771   0.00004  -0.00051   0.00010   0.00139   0.00479   0.00175   0.00410   0.00153
-12.82565   0.02129   0.00003  -0.00055   0.00010   0.00191   0.00550   0.00218   0.00469   0.00201
-12.77555   0.02408   0.00001  -0.00061   0.00009   0.00219   0.00591   0.00227   0.00500   0.00216
-12.72545   0.02645  -0.00000  -0.00066   0.00008   0.00231   0.00659   0.00232   0.00559   0.00233
-12.67535   0.03396  -0.00001  -0.00076   0.00006   0.00258   0.00800   0.00272   0.00654   0.00271
-12.62525   0.03956  -0.00002  -0.00086   0.00006   0.00276   0.00911   0.00293   0.00764   0.00288
-12.57515   0.04009  -0.00002  -0.00095   0.00005   0.00279   0.00990   0.00286   0.00849   0.00287
-12.52505   0.03326  -0.00003  -0.00098   0.00004   0.00255   0.00901   0.00233   0.00794   0.00248
-12.47495   0.02412  -0.00003  -0.00094   0.00002   0.00213   0.00731   0.00178   0.00604   0.00217
-12.42485   0.02061  -0.00004  -0.00098   0.00002   0.00201   0.00628   0.00154   0.00546   0.00200
-12.37475   0.02042  -0.00003  -0.00106   0.00002   0.00184   0.00572   0.00227   0.00519   0.00180
-12.32465   0.02598  -0.00001  -0.00132   0.00002   0.00214   0.00804   0.00333   0.00757   0.00209
-12.27455   0.03560  -0.00004  -0.00172  -0.00001   0.00245   0.01131   0.00445   0.01053   0.00236
-12.22445   0.03672  -0.00006  -0.00220  -0.00003   0.00275   0.01336   0.00452   0.01217   0.00262
-12.17435   0.03005  -0.00007  -0.00299  -0.00004   0.00283   0.01416   0.00386   0.01341   0.00269
-12.12425   0.02675  -0.00009  -0.00355  -0.00004   0.00288   0.01530   0.00360   0.01427   0.00275
-12.07415   0.02593  -0.00011  -0.00336  -0.00005   0.00322   0.01711   0.00370   0.01574   0.00312
-12.02405   0.02882  -0.00014  -0.00286  -0.00008   0.00350   0.01839   0.00432   0.01633   0.00338
-11.97395   0.03033  -0.00013  -0.00383  -0.00008   0.00447   0.02525   0.00539   0.02133   0.00433
-11.92385   0.02443  -0.00019  -0.00321  -0.00012   0.00369   0.02540   0.00439   0.02134   0.00357
-11.87375   0.02394  -0.00025  -0.00356  -0.00016   0.00387   0.03044   0.00502   0.02508   0.00374
-11.82365   0.02057  -0.00023  -0.00306  -0.00015   0.00389   0.02899   0.00416   0.02499   0.00379
-11.77355   0.01921  -0.00022  -0.00303  -0.00016   0.00409   0.02277   0.00397   0.02363   0.00405
-11.72345   0.01821  -0.00021  -0.00393  -0.00015   0.00421   0.01947   0.00388   0.02490   0.00418
-11.67335   0.01749  -0.00021  -0.00456  -0.00016   0.00429   0.02314   0.00397   0.03140   0.00427
-11.62325   0.01827  -0.00020  -0.00520  -0.00015   0.00454   0.02846   0.00453   0.04037   0.00450
-11.57315   0.01891  -0.00017  -0.00504  -0.00013   0.00488   0.02786   0.00514   0.03599   0.00481
-11.52305   0.01922  -0.00015  -0.00553  -0.00012   0.00514   0.02809   0.00550   0.03508   0.00509
-11.47295   0.01902  -0.00014  -0.00600  -0.00012   0.00531   0.02930   0.00571   0.03645   0.00531
-11.42285   0.01831  -0.00015  -0.00585  -0.00014   0.00567   0.02936   0.00572   0.03700   0.00568
-11.37275   0.01762  -0.00018  -0.00601  -0.00019   0.00676   0.02995   0.00574   0.03883   0.00681
-11.32265   0.01780  -0.00022  -0.00619  -0.00021   0.00685   0.03246   0.00602   0.04321   0.00701
-11.27255   0.01797  -0.00024  -0.00651  -0.00022   0.00670   0.03627   0.00627   0.05020   0.00689
-11.22244   0.01787  -0.00029  -0.00651  -0.00023   0.00633   0.04158   0.00643   0.06139   0.00664
-11.17234   0.01763  -0.00034  -0.00616  -0.00024   0.00608   0.05032   0.00653   0.07686   0.00665
-11.12224   0.01696  -0.00037  -0.00573  -0.00026   0.00602   0.05826   0.00656   0.08873   0.00667
-11.07214   0.01279  -0.00038  -0.00464  -0.00033   0.00535   0.05991   0.00546   0.09119   0.00551
-11.02204   0.00866  -0.00034  -0.00316  -0.00036   0.00459   0.05778   0.00404   0.08552   0.00435
-10.97194   0.00613  -0.00030  -0.00235  -0.00035   0.00474   0.05666   0.00341   0.08517   0.00458
-10.92184   0.00540  -0.00023  -0.00178  -0.00031   0.00502   0.05345   0.00345   0.07549   0.00508
-10.87174   0.00582  -0.00016  -0.00142  -0.00026   0.00495   0.05554   0.00402   0.06412   0.00468
-10.82164   0.00603  -0.00020  -0.00126  -0.00031   0.00521   0.06472   0.00452   0.07228   0.00461
-10.77154   0.00636  -0.00031  -0.00127  -0.00043   0.00607   0.07080   0.00528   0.07802   0.00536
-10.72144   0.00647  -0.00043  -0.00175  -0.00053   0.00704   0.10239   0.00596   0.09273   0.00662
-10.67134   0.00577  -0.00065  -0.00206  -0.00072   0.00745   0.12147   0.00565   0.10152   0.00753
-10.62124   0.00481  -0.00091  -0.00202  -0.00095   0.00835   0.12269   0.00506   0.10304   0.00787
-10.57114   0.00448  -0.00109  -0.00174  -0.00106   0.00905   0.13529   0.00551   0.10452   0.00778
-10.52104   0.00452  -0.00116  -0.00133  -0.00110   0.00874   0.14304   0.00613   0.10289   0.00731
-10.47094   0.00456  -0.00115  -0.00086  -0.00110   0.00910   0.13228   0.00686   0.09026   0.00743
-10.42084   0.00406  -0.00093  -0.00061  -0.00097   0.00911   0.08207   0.00682   0.06414   0.00747
-10.37074   0.00371  -0.00081  -0.00054  -0.00088   0.00975   0.06229   0.00914   0.05185   0.00846
-10.32064   0.00350  -0.00085  -0.00047  -0.00094   0.01045   0.05463   0.00947   0.04585   0.00971
-10.27054   0.00337  -0.00072  -0.00037  -0.00078   0.01057   0.04744   0.00852   0.04030   0.00982
-10.22044   0.00283  -0.00068  -0.00029  -0.00068   0.00826   0.04186   0.00563   0.03565   0.00755
-10.17034   0.00231  -0.00062  -0.00018  -0.00060   0.00628   0.03454   0.00378   0.02988   0.00580
-10.12024   0.00200  -0.00059  -0.00010  -0.00055   0.00544   0.02989   0.00299   0.02614   0.00510
-10.07014   0.00182  -0.00059  -0.00007  -0.00055   0.00528   0.02692   0.00281   0.02341   0.00496
-10.02004   0.00164  -0.00054  -0.00004  -0.00050   0.00552   0.02342   0.00289   0.01992   0.00512
 -9.96994   0.00147  -0.00049  -0.00003  -0.00043   0.00668   0.01671   0.00330   0.01467   0.00611
 -9.91984   0.00171  -0.00047  -0.00003  -0.00040   0.01029   0.01294   0.00487   0.01213   0.00941
 -9.86974   0.00147  -0.00035  -0.00005  -0.00025   0.01200   0.01052   0.00482   0.01021   0.01061
 -9.81964   0.00088  -0.00017  -0.00005  -0.00008   0.01008   0.00876   0.00269   0.00849   0.00883
 -9.76954   0.00076  -0.00007  -0.00005   0.00003   0.01108   0.00667   0.00263   0.00645   0.00945
 -9.71944   0.00083  -0.00005  -0.00007   0.00008   0.01360   0.00596   0.00313   0.00571   0.01157
 -9.66934   0.00110  -0.00004  -0.00010   0.00012   0.01767   0.00702   0.00421   0.00679   0.01528
 -9.61924   0.00123   0.00003  -0.00013   0.00017   0.01886   0.01045   0.00435   0.01014   0.01621
 -9.56914   0.00124   0.00004  -0.00015   0.00016   0.01800   0.01269   0.00422   0.01183   0.01564
 -9.51904   0.00136   0.00015  -0.00016   0.00024   0.01869   0.00633   0.00454   0.00551   0.01616
 -9.46894   0.00169   0.00007  -0.00018   0.00015   0.02211   0.00806   0.00524   0.00728   0.01922
 -9.41884   0.00224  -0.00008  -0.00021   0.00000   0.02719   0.01563   0.00613   0.01474   0.02339
 -9.36874   0.00234  -0.00012  -0.00023  -0.00009   0.02908   0.02108   0.00633   0.02009   0.02566
 -9.31864   0.00305  -0.00029  -0.00032  -0.00031   0.03634   0.02631   0.00733   0.02448   0.03220
 -9.26854   0.00292  -0.00035  -0.00047  -0.00035   0.03894   0.02620   0.00691   0.02413   0.03425
 -9.21844   0.00258  -0.00033  -0.00064  -0.00032   0.03725   0.02729   0.00641   0.02585   0.03288
 -9.16834   0.00253  -0.00035  -0.00093  -0.00034   0.03850   0.03211   0.00629   0.03097   0.03399
 -9.11824   0.00242  -0.00037  -0.00114  -0.00036   0.04061   0.03599   0.00604   0.03293   0.03562
 -9.06814   0.00215  -0.00038  -0.00136  -0.00038   0.04255   0.03666   0.00553   0.03326   0.03710
 -9.01804   0.00192  -0.00030  -0.00182  -0.00032   0.04274   0.03838   0.00522   0.03496   0.03787
 -8.96794   0.00178  -0.00031  -0.00186  -0.00037   0.04386   0.04107   0.00507   0.03682   0.03904
 -8.91784   0.00166  -0.00031  -0.00187  -0.00039   0.04443   0.04295   0.00497   0.03829   0.04030
 -8.86774   0.00159  -0.00029  -0.00192  -0.00039   0.04556   0.04398   0.00493   0.03911   0.04194
 -8.81764   0.00162  -0.00035  -0.00193  -0.00045   0.04771   0.04369   0.00486   0.03873   0.04366