  COHP#       atomMU       atomNU     distance     translation      ICOHP (at) eF   for spin  1
      1          Mo3          Mo1      3.04711       1   0   0           -0.54225 
      2          Mo3          Mo1      3.04711       1   1   0           -0.54259 
      3          Mo5          Mo1      3.04711       0   0   0           -0.54277 
      4          Mo5          Mo1      3.04711       1   0   0           -0.54246 
      5           V7          Mo1      3.04911       0   0   0           -0.39301 
      6           V7          Mo1      3.04911       1   1   0           -0.39292 
      7           B8          Mo1      2.36524       0   0   0           -1.76468 
      8           B9          Mo1      2.36524       0   0   0           -1.76474 
      9          B10          Mo1      2.37253       0   1   0           -1.71349 
     10          B11          Mo1      2.37253       0   1   0           -1.71352 
     11          B14          Mo1      2.36524       1   1   0           -1.76457 
     12          B15          Mo1      2.36524       1   1   0           -1.76476 
     13          B16          Mo1      2.36524       0   0   0           -1.76477 
     14          B17          Mo1      2.36524       0   0   0           -1.76458 
     15          B20          Mo1      2.37253       1   0   0           -1.71344 
     16          B21          Mo1      2.37253       1   0   0           -1.71348 
     17          B22          Mo1      2.36524       1   1   0           -1.76463 
     18          B23          Mo1      2.36524       1   1   0           -1.76459 
     19          Mo3          Mo2      3.15715       0   0   0           -0.44331 
     20          Mo3          Mo2      3.15715       0   0   1           -0.44332 
     21          Mo4          Mo2      3.04911      -1  -1   0           -0.51985 
     22          Mo4          Mo2      3.04911       0   0   0           -0.51980 
     23          Mo6          Mo2      3.04711      -1   0   0           -0.53277 
     24          Mo6          Mo2      3.04711       0   0   0           -0.53240 
     25           B8          Mo2      2.35915      -1   0   0           -1.82856 
     26           B9          Mo2      2.35915      -1   0   1           -1.82765 
     27          B10          Mo2      2.34307      -1   0   0           -1.92018 
     28          B11          Mo2      2.34307      -1   0   1           -1.92235 
     29          B12          Mo2      2.38883       0   0   0           -1.68844 
     30          B13          Mo2      2.38883       0   0   1           -1.68703 
     31          B18          Mo2      2.38883      -1   0   0           -1.68686 
     32          B19          Mo2      2.38883      -1   0   1           -1.68841 
     33          B20          Mo2      2.34307       0   0   0           -1.92230 
     34          B21          Mo2      2.34307       0   0   1           -1.92046 
     35          B22          Mo2      2.35915       0   0   0           -1.82759 
     36          B23          Mo2      2.35915       0   0   1           -1.82852 
     37          Mo5          Mo3      3.04911      -1  -1   0           -0.53966 
     38          Mo5          Mo3      3.04911       0   0   0           -0.53967 
     39           V7          Mo3      3.04711      -1   0   0           -0.38639 
     40           V7          Mo3      3.04711       0   0   0           -0.38630 
     41           B8          Mo3      2.39415      -1   0   0           -1.69340 
     42           B9          Mo3      2.39415      -1   0   0           -1.69358 
     43          B10          Mo3      2.41384      -1   0   0           -1.58878 
     44          B11          Mo3      2.41384      -1   0   0           -1.58776 
     45          B12          Mo3      2.35130       0   0   0           -1.89771 
     46          B13          Mo3      2.35130       0   0   0           -1.89895 
     47          B18          Mo3      2.35130      -1   0   0           -1.89881 
     48          B19          Mo3      2.35130      -1   0   0           -1.89741 
     49          B20          Mo3      2.41384       0   0   0           -1.58802 
     50          B21          Mo3      2.41384       0   0   0           -1.58870 
     51          B22          Mo3      2.39415       0   0   0           -1.69354 
     52          B23          Mo3      2.39415       0   0   0           -1.69329 
     53          Mo5          Mo4      3.15715       0   0   0           -0.44331 
     54          Mo5          Mo4      3.15715       0   0   1           -0.44337 
     55          Mo6          Mo4      3.04711       0   0   0           -0.53307 
     56          Mo6          Mo4      3.04711       0   1   0           -0.53318 
     57          B10          Mo4      2.34307       0   1   0           -1.92190 
     58          B11          Mo4      2.34307       0   1   1           -1.92012 
     59          B12          Mo4      2.38883       0   0   0           -1.68708 
     60          B13          Mo4      2.38883       0   0   1           -1.68822 
     61          B14          Mo4      2.35915       0   1   0           -1.82811 
     62          B15          Mo4      2.35915       0   1   1           -1.82837 
     63          B16          Mo4      2.35915       0   0   0           -1.82833 
     64          B17          Mo4      2.35915       0   0   1           -1.82814 
     65          B18          Mo4      2.38883       0   1   0           -1.68808 
     66          B19          Mo4      2.38883       0   1   1           -1.68709 
     67          B20          Mo4      2.34307       0   0   0           -1.92005 
     68          B21          Mo4      2.34307       0   0   1           -1.92205 
     69           V7          Mo5      3.04711       0   0   0           -0.38606 
     70           V7          Mo5      3.04711       0   1   0           -0.38594 
     71          B10          Mo5      2.41384       0   1   0           -1.58787 
     72          B11          Mo5      2.41384       0   1   0           -1.58893 
     73          B12          Mo5      2.35130       0   0   0           -1.89915 
     74          B13          Mo5      2.35130       0   0   0           -1.89747 
     75          B14          Mo5      2.39415       0   1   0           -1.69309 
     76          B15          Mo5      2.39415       0   1   0           -1.69393 
     77          B16          Mo5      2.39415       0   0   0           -1.69384 
     78          B17          Mo5      2.39415       0   0   0           -1.69294 
     79          B18          Mo5      2.35130       0   1   0           -1.89751 
     80          B19          Mo5      2.35130       0   1   0           -1.89885 
     81          B20          Mo5      2.41384       0   0   0           -1.58888 
     82          B21          Mo5      2.41384       0   0   0           -1.58793 
     83           V7          Mo6      3.15715       0   0   0           -0.30465 
     84           V7          Mo6      3.15715       0   0   1           -0.30460 
     85           B8          Mo6      2.35059       0   0   0           -1.86111 
     86           B9          Mo6      2.35059       0   0   1           -1.86100 
     87          B12          Mo6      2.37098       0   0   0           -1.76881 
     88          B13          Mo6      2.37098       0   0   1           -1.76990 
     89          B14          Mo6      2.35059       0   0   0           -1.86085 
     90          B15          Mo6      2.35059       0   0   1           -1.86106 
     91          B16          Mo6      2.35059       0   0   0           -1.86119 
     92          B17          Mo6      2.35059       0   0   1           -1.86080 
     93          B18          Mo6      2.37098       0   0   0           -1.76978 
     94          B19          Mo6      2.37098       0   0   1           -1.76839 
     95          B22          Mo6      2.35059       0   0   0           -1.86112 
     96          B23          Mo6      2.35059       0   0   1           -1.86099 
     97           B8           V7      2.38572       0   0   0           -1.12120 
     98           B9           V7      2.38572       0   0   0           -1.12092 
     99          B12           V7      2.33316       0   0   0           -1.27208 
    100          B13           V7      2.33316       0   0   0           -1.27202 
    101          B14           V7      2.38572       0   0   0           -1.12121 
    102          B15           V7      2.38572       0   0   0           -1.12097 
    103          B16           V7      2.38572       0   0   0           -1.12093 
    104          B17           V7      2.38572       0   0   0           -1.12124 
    105          B18           V7      2.33316       0   0   0           -1.27200 
    106          B19           V7      2.33316       0   0   0           -1.27210 
    107          B22           V7      2.38572       0   0   0           -1.12092 
    108          B23           V7      2.38572       0   0   0           -1.12121 
    109           B9           B8      3.20985       0   0   0           -0.10946 
    110           B9           B8      3.10446       0   0   1           -0.15583 
    111          B10           B8      3.10227       0   0   0           -0.05454 
    112          B10           B8      2.99223       0   1   0           -0.14049 
    113          B12           B8      3.02719       0   0   0           -0.06850 
    114          B12           B8      3.06830       1   0   0           -0.04214 
    115          B14           B8      3.08103       0   0   0           -0.07108 
    116          B14           B8      3.01720       1   1   0           -0.13288 
    117          B16           B8      1.72359       0   0   0           -7.31440 
    118          B18           B8      1.77584       0   0   0           -6.53730 
    119          B20           B8      1.73690       1   0   0           -7.03695 
    120          B22           B8      3.47480       1   1   0            0.01209 
    121          B11           B9      3.10227       0   0   0           -0.05449 
    122          B11           B9      2.99223       0   1   0           -0.14039 
    123          B13           B9      3.02719       0   0   0           -0.06842 
    124          B13           B9      3.06830       1   0   0           -0.04215 
    125          B15           B9      3.08103       0   0   0           -0.07115 
    126          B15           B9      3.01720       1   1   0           -0.13309 
    127          B17           B9      1.72359       0   0   0           -7.31426 
    128          B19           B9      1.77584       0   0   0           -6.53764 
    129          B21           B9      1.73690       1   0   0           -7.03744 
    130          B23           B9      3.47480       1   1   0            0.01210 
    131          B11          B10      3.26377       0   0   0           -0.08599 
    132          B11          B10      3.05054       0   0   1           -0.18324 
    133          B12          B10      3.05028       0  -1   0           -0.04825 
    134          B12          B10      3.05028       1   0   0           -0.04829 
    135          B14          B10      3.10227       0   0   0           -0.05452 
    136          B14          B10      2.99223       1   0   0           -0.14052 
    137          B16          B10      1.73690       0  -1   0           -7.03716 
    138          B18          B10      1.81272       0   0   0           -5.93652 
    139          B20          B10      3.44434       1  -1   0            0.01382 
    140          B22          B10      1.73690       1   0   0           -7.03739 
    141          B13          B11      3.05028       0  -1   0           -0.04830 
    142          B13          B11      3.05028       1   0   0           -0.04831 
    143          B15          B11      3.10227       0   0   0           -0.05450 
    144          B15          B11      2.99223       1   0   0           -0.14038 
    145          B17          B11      1.73690       0  -1   0           -7.03742 
    146          B19          B11      1.81272       0   0   0           -5.93599 
    147          B21          B11      3.44434       1  -1   0            0.01382 
    148          B23          B11      1.73690       1   0   0           -7.03698 
    149          B13          B12      3.10081       0   0   0           -0.14391 
    150          B13          B12      3.21350       0   0   1           -0.08907 
    151          B14          B12      3.02719       0   0   0           -0.06850 
    152          B14          B12      3.06830       0   1   0           -0.04214 
    153          B16          B12      1.77584       0   0   0           -6.53765 
    154          B18          B12      3.48705       0   0   0           -0.00009 
    155          B20          B12      1.81272       0   0   0           -5.93609 
    156          B22          B12      1.77584       0   0   0           -6.53763 
    157          B15          B13      3.02719       0   0   0           -0.06845 
    158          B15          B13      3.06830       0   1   0           -0.04211 
    159          B17          B13      1.77584       0   0   0           -6.53773 
    160          B19          B13      3.48705       0   0   0           -0.00009 
    161          B21          B13      1.81272       0   0   0           -5.93653 
    162          B23          B13      1.77584       0   0   0           -6.53745 
    163          B15          B14      3.20985       0   0   0           -0.10948 
    164          B15          B14      3.10446       0   0   1           -0.15585 
    165          B16          B14      3.47480      -1  -1   0            0.01209 
    166          B18          B14      1.77584       0   0   0           -6.53757 
    167          B20          B14      1.73690       0  -1   0           -7.03754 
    168          B22          B14      1.72359       0   0   0           -7.31430 
    169          B17          B15      3.47480      -1  -1   0            0.01209 
    170          B19          B15      1.77584       0   0   0           -6.53752 
    171          B21          B15      1.73690       0  -1   0           -7.03718 
    172          B23          B15      1.72359       0   0   0           -7.31441 
    173          B17          B16      3.20985       0   0   0           -0.10949 
    174          B17          B16      3.10446       0   0   1           -0.15584 
    175          B18          B16      3.02719       0   0   0           -0.06845 
    176          B18          B16      3.06830       0   1   0           -0.04212 
    177          B20          B16      3.10227       0   0   0           -0.05450 
    178          B20          B16      2.99224       1   0   0           -0.14037 
    179          B22          B16      3.08103       0   0   0           -0.07114 
    180          B22          B16      3.01720       1   1   0           -0.13312 
    181          B19          B17      3.02719       0   0   0           -0.06852 
    182          B19          B17      3.06830       0   1   0           -0.04215 
    183          B21          B17      3.10227       0   0   0           -0.05453 
    184          B21          B17      2.99224       1   0   0           -0.14051 
    185          B23          B17      3.08103       0   0   0           -0.07108 
    186          B23          B17      3.01720       1   1   0           -0.13291 
    187          B19          B18      3.10081       0   0   0           -0.14395 
    188          B19          B18      3.21350       0   0   1           -0.08914 
    189          B20          B18      3.05028       0  -1   0           -0.04832 
    190          B20          B18      3.05028       1   0   0           -0.04832 
    191          B22          B18      3.02719       0   0   0           -0.06843 
    192          B22          B18      3.06830       1   0   0           -0.04217 
    193          B21          B19      3.05028       0  -1   0           -0.04826 
    194          B21          B19      3.05028       1   0   0           -0.04829 
    195          B23          B19      3.02719       0   0   0           -0.06852 
    196          B23          B19      3.06830       1   0   0           -0.04215 
    197          B21          B20      3.26377       0   0   0           -0.08600 
    198          B21          B20      3.05054       0   0   1           -0.18323 
    199          B22          B20      3.10227       0   0   0           -0.05450 
    200          B22          B20      2.99224       0   1   0           -0.14040 
    201          B23          B21      3.10227       0   0   0           -0.05455 
    202          B23          B21      2.99224       0   1   0           -0.14049 
    203          B23          B22      3.20985       0   0   0           -0.10948 
    204          B23          B22      3.10446       0   0   1           -0.15583 
