    3    3   60    1
  0.8144830E+01  0.3039000E-09  0.3039000E-09  0.3055000E-09  0.5000000E-15
   1.0000000000000000E-004
  CAR 
 Name                                    
     12    216     10

  0.3742002E-15  0.3742002E-15  0.3742002E-15  0.2962963E-03
    1       -5.934022   1.000000
    2        4.205820   1.000000
    3        4.205823   1.000000
    4        4.371448   1.000000
    5        6.090767   1.000000
    6        8.581324   1.000001
    7        8.581325   1.000001
    8       11.543711  -0.000000
    9       11.543714  -0.000000
   10       12.592541   0.000000

  0.6666667E-01  0.3766815E-15  0.3742002E-15  0.1777778E-02
    1       -5.848865   1.000000
    2        3.976151   1.000000
    3        4.243236   1.000000
    4        4.421102   1.000000
    5        5.846327   1.000000
    6        8.549217   1.000000
    7        8.911301   0.832121
    8       10.985451  -0.000000
    9       11.064033  -0.000000
   10       12.874199   0.000000

  0.1333333E+00  0.3754153E-15  0.3742002E-15  0.1777778E-02
    1       -5.596390   1.000000
    2        3.371580   1.000000
    3        4.343365   1.000000
    4        4.543355   1.000000
    5        5.346923   1.000000
    6        8.459946   1.000000
    7        9.644846  -0.000000
    8       10.130264  -0.000000
    9       10.406162  -0.000000
   10       13.464383   0.000000

  0.2000000E+00  0.3870416E-15  0.3742002E-15  0.1777778E-02
    1       -5.185307   1.000000
    2        2.549134   1.000000
    3        4.472840   1.000000
    4        4.649958   1.000000
    5        4.834846   1.000000
    6        8.332285   1.000000
    7        9.487710  -0.000000
    8        9.919433  -0.000000
    9       10.456383  -0.000000
   10       13.874833   0.000000

  0.2666667E+00  0.4120044E-15  0.3742002E-15  0.1777778E-02
    1       -4.629068   1.000000
    2        1.620575   1.000000
    3        4.396134   1.000000
    4        4.589107   1.000000
    5        4.624576   1.000000
    6        8.190955   1.000000
    7        9.275606  -0.000028
    8        9.652816  -0.000000
    9       11.079324  -0.000000
   10       14.078987   0.000000

  0.3333333E+00  0.4025434E-15  0.3742002E-15  0.1777778E-02
    1       -3.944839   1.000000
    2        0.644326   1.000000
    3        4.058935   1.000000
    4        4.444859   1.000000
    5        4.662446   1.000000
    6        8.060625   1.000000
    7        9.530399  -0.000000
    8        9.585689  -0.000000
    9       11.306994  -0.000000
   10       14.208741   0.000000

  0.4000000E+00  0.3732510E-15  0.3742002E-15  0.1777778E-02
    1       -3.152563   1.000000
    2       -0.346456   1.000000
    3        3.832499   1.000000
    4        4.224155   1.000000
    5        4.692344   1.000000
    6        7.961825   1.000000
    7        9.639413  -0.000000
    8       10.058358  -0.000000
    9       11.250729  -0.000000
   10       14.365400   0.000000

  0.4666667E+00  0.3915456E-15  0.3742002E-15  0.1777778E-02
    1       -2.276603   1.000000
    2       -1.322846   1.000000
    3        3.719171   1.000000
    4        4.084013   1.000000
    5        4.698659   1.000000
    6        7.908810   1.000000
    7        9.705829  -0.000000
    8       10.508392  -0.000000
    9       11.160859  -0.000000
   10       14.678559   0.000000

  0.6666667E-01  0.6666667E-01  0.3742002E-15  0.1777778E-02
    1       -5.680030   1.000000
    2        3.576807   1.000000
    3        4.265524   1.000000
    4        4.536539   1.000000
    5        5.490068   1.000000
    6        8.472130   1.000000
    7        9.445683  -0.000000
    8       10.425715  -0.000000
    9       10.487814  -0.000000
   10       13.379849   0.000000

  0.1333333E+00  0.6666667E-01  0.3742002E-15  0.3555556E-02
    1       -5.348138   1.000000
    2        2.900799   1.000000
    3        4.244982   1.000000
    4        4.752884   1.000000
    5        5.019724   1.000000
    6        8.319627   1.000000
    7        9.713525  -0.000000
    8       10.015426  -0.000000
    9       10.242878  -0.000000
   10       13.989525   0.000000

  0.2000000E+00  0.6666667E-01  0.3742002E-15  0.3555556E-02
    1       -4.864149   1.000000
    2        2.064406   1.000000
    3        4.143839   1.000000
    4        4.579177   1.000000
    5        4.990392   1.000000
    6        8.123286   1.000000
    7        9.206211  -0.001085
    8        9.794904  -0.000000
    9       11.036322  -0.000000
   10       14.248278   0.000000

  0.2666667E+00  0.6666667E-01  0.3742002E-15  0.3555556E-02
    1       -4.243296   1.000000
    2        1.142865   1.000000
    3        3.948719   1.000000
    4        4.221107   1.000000
    5        5.164353   1.000000
    6        7.917533   1.000000
    7        9.049896  -0.019307
    8        9.840146  -0.000000
    9       11.551249  -0.000000
   10       14.371288   0.000000

  0.3333333E+00  0.6666667E-01  0.3742002E-15  0.3555556E-02
    1       -3.504089   1.000000
    2        0.178668   1.000000
    3        3.717810   1.000000
    4        3.962816   1.000000
    5        5.236595   1.000000
    6        7.737438   1.000000
    7        9.204186  -0.001188
    8       10.078545  -0.000000
    9       11.669685  -0.000000
   10       14.489023   0.000000

  0.4000000E+00  0.6666667E-01  0.3742002E-15  0.3555556E-02
    1       -2.668024   1.000000
    2       -0.796520   1.000000
    3        3.538265   1.000000
    4        3.808284   1.000000
    5        5.243643   1.000000
    6        7.614380   1.000000
    7        9.462755  -0.000000
    8       10.358655  -0.000000
    9       11.608768  -0.000000
   10       14.717684   0.000000

  0.4666667E+00  0.6666667E-01  0.3742002E-15  0.1777778E-02
    1       -1.811042   1.000000
    2       -1.700677   1.000000
    3        3.471623   1.000000
    4        3.756982   1.000000
    5        5.238921   1.000000
    6        7.570646   1.000000
    7        9.584232  -0.000000
    8       10.487286  -0.000000
    9       11.569336  -0.000000
   10       15.118863   0.000000

  0.1333333E+00  0.1333333E+00  0.3742002E-15  0.1777778E-02
    1       -4.943100   1.000000
    2        2.277294   1.000000
    3        3.931343   1.000000
    4        4.661162   1.000000
    5        5.105818   1.000000
    6        8.036479   1.000000
    7        9.191882  -0.002019
    8        9.848834  -0.000000
    9       11.085565  -0.000000
   10       14.961288   0.000000

  0.2000000E+00  0.1333333E+00  0.3742002E-15  0.3555556E-02
    1       -4.393748   1.000000
    2        1.537990   1.000000
    3        3.509913   1.000000
    4        4.353920   1.000000
    5        5.492041   1.000000
    6        7.683699   1.000000
    7        8.758078   1.008885
    8        9.980223  -0.000000
    9       11.929801   0.000000
   10       14.658161   0.000000

  0.2666667E+00  0.1333333E+00  0.3742002E-15  0.3555556E-02
    1       -3.716601   1.000000
    2        0.700860   1.000000
    3        3.095348   1.000000
    4        4.127942   1.000000
    5        5.801653   1.000000
    6        7.334562   1.000000
    7        8.624530   1.000016
    8       10.213573  -0.000000
    9       12.446959   0.000000
   10       14.842807   0.000000

  0.3333333E+00  0.1333333E+00  0.3742002E-15  0.3555556E-02
    1       -2.931877   1.000000
    2       -0.206873   1.000000
    3        2.781592   1.000000
    4        3.986295   1.000000
    5        5.949469   1.000000
    6        7.055561   1.000000
    7        8.840339   1.034347
    8       10.333309  -0.000000
    9       12.550178   0.000000
   10       15.181105   0.000000

  0.4000000E+00  0.1333333E+00  0.3742002E-15  0.3555556E-02
    1       -2.064070   1.000000
    2       -1.143189   1.000000
    3        2.616488   1.000000
    4        3.919963   1.000000
    5        5.982417   1.000000
    6        6.900477   1.000000
    7        9.188232  -0.002347
    8       10.254151  -0.000000
    9       12.524273   0.000000
   10       15.559535   0.000000

  0.2000000E+00  0.2000000E+00  0.3742002E-15  0.1777778E-02
    1       -3.787665   1.000000
    2        0.969876   1.000000
    3        2.789985   1.000000
    4        4.208277   1.000000
    5        6.044279   1.000000
    6        7.151907   1.000000
    7        8.363467   1.000000
    8       10.263769  -0.000000
    9       12.924117   0.000000
   10       14.476483   0.000000

  0.2666667E+00  0.2000000E+00  0.3742002E-15  0.3555556E-02
    1       -3.064337   1.000000
    2        0.303460   1.000000
    3        2.176819   1.000000
    4        4.150667   1.000000
    5        6.517415   1.000000
    6        6.651034   1.000000
    7        8.242760   1.000000
    8       10.347683  -0.000000
    9       13.559045   0.000000
   10       14.758938   0.000000

  0.3333333E+00  0.2000000E+00  0.3742002E-15  0.3555556E-02
    1       -2.249263   1.000000
    2       -0.494776   1.000000
    3        1.801793   1.000000
    4        4.154616   1.000000
    5        6.285059   1.000000
    6        6.729932   1.000000
    7        8.540268   1.000000
    8       10.093645  -0.000000
    9       13.636018   0.000000
   10       15.500740   0.000000

  0.4000000E+00  0.2000000E+00  0.3742002E-15  0.1777778E-02
    1       -1.439859   1.000000
    2       -1.306556   1.000000
    3        1.681051   1.000000
    4        4.166849   1.000000
    5        6.147927   1.000000
    6        6.762862   1.000000
    7        8.867565   1.006245
    8        9.806055  -0.000000
    9       13.624268   0.000000
   10       15.870167   0.000000

  0.2666667E+00  0.2666667E+00  0.3742002E-15  0.1777778E-02
    1       -2.311360   1.000000
    2       -0.110407   1.000000
    3        1.359307   1.000000
    4        4.289522   1.000000
    5        6.014158   1.000000
    6        7.242615   1.000000
    7        8.034436   1.000000
    8       10.046199  -0.000000
    9       14.667648   0.000000
   10       14.694957   0.000000

  0.3333333E+00  0.2666667E+00  0.3742002E-15  0.3555556E-02
    1       -1.508945   1.000000
    2       -0.689350   1.000000
    3        0.887010   1.000000
    4        4.476825   1.000000
    5        5.563190   1.000000
    6        7.562895   1.000000
    7        8.345299   1.000000
    8        9.457953  -0.000000
    9       14.647353   0.000000
   10       15.465578   0.000000

  0.3333333E+00  0.3333333E+00  0.3742002E-15  0.5925926E-03
    1       -0.912960   1.000000
    2       -0.912958   1.000000
    3        0.388845   1.000000
    4        4.950744   1.000000
    5        4.950746   1.000000
    6        8.230850   1.000000
    7        8.230851   1.000000
    8        8.877732   0.982063
    9       15.269341   0.000000
   10       15.269341   0.000000

  0.3742002E-15  0.3742002E-15  0.6666667E-01  0.5925926E-03
    1       -5.871522   1.000000
    2        4.116823   1.000000
    3        4.257560   1.000000
    4        4.257563   1.000000
    5        6.269318   1.000000
    6        8.376106   1.000000
    7        8.376107   1.000000
    8       11.397067  -0.000000
    9       11.397070  -0.000000
   10       12.616627   0.000000

  0.6666667E-01  0.3766815E-15  0.6666667E-01  0.3555556E-02
    1       -5.787340   1.000000
    2        4.023335   1.000000
    3        4.159424   1.000000
    4        4.289938   1.000000
    5        6.007194   1.000000
    6        8.332022   1.000000
    7        8.708516   1.001367
    8       10.998559  -0.000000
    9       11.074225  -0.000000
   10       12.905346   0.000000

  0.1333333E+00  0.3754153E-15  0.6666667E-01  0.3555556E-02
    1       -5.537857   1.000000
    2        3.405409   1.000000
    3        4.256528   1.000000
    4        4.373032   1.000000
    5        5.517022   1.000000
    6        8.224539   1.000000
    7        9.301618  -0.000005
    8       10.415427  -0.000000
    9       10.562483  -0.000000
   10       13.499870   0.000000

  0.2000000E+00  0.3870416E-15  0.6666667E-01  0.3555556E-02
    1       -5.131833   1.000000
    2        2.564605   1.000000
    3        4.313822   1.000000
    4        4.469360   1.000000
    5        5.069641   1.000000
    6        8.116652   1.000000
    7        9.343321  -0.000000
    8       10.149286  -0.000000
    9       10.585761  -0.000000
   10       13.817722   0.000000

  0.2666667E+00  0.4120044E-15  0.6666667E-01  0.3555556E-02
    1       -4.582819   1.000000
    2        1.620709   1.000000
    3        4.221057   1.000000
    4        4.535812   1.000000
    5        4.742055   1.000000
    6        8.068850   1.000000
    7        9.234388  -0.000279
    8        9.873985  -0.000000
    9       11.067600  -0.000000
   10       14.027863   0.000000

  0.3333333E+00  0.4025434E-15  0.6666667E-01  0.3555556E-02
    1       -3.907821   1.000000
    2        0.636620   1.000000
    3        4.027699   1.000000
    4        4.478122   1.000000
    5        4.552787   1.000000
    6        8.088177   1.000000
    7        9.465126  -0.000000
    8        9.734222  -0.000000
    9       11.245004  -0.000000
   10       14.400665   0.000000

  0.4000000E+00  0.3732510E-15  0.6666667E-01  0.3555556E-02
    1       -3.126118   1.000000
    2       -0.354046   1.000000
    3        3.861869   1.000000
    4        4.247143   1.000000
    5        4.536269   1.000000
    6        8.129554   1.000000
    7        9.705675  -0.000000
    8        9.884128  -0.000000
    9       11.267487  -0.000000
   10       14.585980   0.000000

  0.4666667E+00  0.3915456E-15  0.6666667E-01  0.3555556E-02
    1       -2.258596   1.000000
    2       -1.326648   1.000000
    3        3.774078   1.000000
    4        4.108210   1.000000
    5        4.517447   1.000000
    6        8.154224   1.000000
    7        9.724666  -0.000000
    8       10.155749  -0.000000
    9       11.371492  -0.000000
   10       14.584450   0.000000

  0.6666667E-01  0.6666667E-01  0.6666667E-01  0.3555556E-02
    1       -5.620490   1.000000
    2        3.617400   1.000000
    3        4.223059   1.000000
    4        4.323382   1.000000
    5        5.669093   1.000000
    6        8.217502   1.000000
    7        9.204366  -0.001179
    8       10.540416  -0.000000
    9       10.669987  -0.000000
   10       13.415256   0.000000

  0.1333333E+00  0.6666667E-01  0.6666667E-01  0.7111111E-02
    1       -5.292633   1.000000
    2        2.929279   1.000000
    3        4.251806   1.000000
    4        4.342496   1.000000
    5        5.340483   1.000000
    6        8.017546   1.000000
    7        9.602926  -0.000000
    8       10.089950  -0.000000
    9       10.514419  -0.000000
   10       13.996206   0.000000

  0.2000000E+00  0.6666667E-01  0.6666667E-01  0.7111111E-02
    1       -4.814841   1.000000
    2        2.076042   1.000000
    3        4.128521   1.000000
    4        4.288237   1.000000
    5        5.215585   1.000000
    6        7.838869   1.000000
    7        9.381328  -0.000000
    8        9.902077  -0.000000
    9       11.036120  -0.000000
   10       14.146808   0.000000

  0.2666667E+00  0.6666667E-01  0.6666667E-01  0.7111111E-02
    1       -4.202336   1.000000
    2        1.141015   1.000000
    3        3.902253   1.000000
    4        4.143403   1.000000
    5        5.194206   1.000000
    6        7.773240   1.000000
    7        9.279226  -0.000022
    8        9.869088  -0.000000
    9       11.461243  -0.000000
   10       14.380107   0.000000

  0.3333333E+00  0.6666667E-01  0.6666667E-01  0.7111111E-02
    1       -3.473357   1.000000
    2        0.171600   1.000000
    3        3.680155   1.000000
    4        3.975781   1.000000
    5        5.139130   1.000000
    6        7.809538   1.000000
    7        9.357044  -0.000000
    8       10.018130  -0.000000
    9       11.575632  -0.000000
   10       14.755281   0.000000

  0.4000000E+00  0.6666667E-01  0.6666667E-01  0.7111111E-02
    1       -2.648293   1.000000
    2       -0.800923   1.000000
    3        3.522578   1.000000
    4        3.853238   1.000000
    5        5.069331   1.000000
    6        7.849247   1.000000
    7        9.519901  -0.000000
    8       10.207013  -0.000000
    9       11.612174  -0.000000
   10       14.757614   0.000000

  0.4666667E+00  0.6666667E-01  0.6666667E-01  0.3555556E-02
    1       -1.752290   1.000000
    2       -1.746609   1.000000
    3        3.465398   1.000000
    4        3.809867   1.000000
    5        5.039175   1.000000
    6        7.859842   1.000000
    7        9.606211  -0.000000
    8       10.279674  -0.000000
    9       11.649797  -0.000000
   10       14.756598   0.000000

  0.1333333E+00  0.1333333E+00  0.6666667E-01  0.3555556E-02
    1       -4.892782   1.000000
    2        2.301371   1.000000
    3        3.898144   1.000000
    4        4.311553   1.000000
    5        5.446101   1.000000
    6        7.637617   1.000000
    7        9.567214  -0.000000
    8        9.820944  -0.000000
    9       11.074859  -0.000000
   10       14.628496   0.000000

  0.2000000E+00  0.1333333E+00  0.6666667E-01  0.7111111E-02
    1       -4.350881   1.000000
    2        1.550419   1.000000
    3        3.445465   1.000000
    4        4.216311   1.000000
    5        5.680677   1.000000
    6        7.299246   1.000000
    7        9.183891  -0.002795
    8        9.984427  -0.000000
    9       11.806197   0.000000
   10       14.421569   0.000000

  0.2666667E+00  0.1333333E+00  0.6666667E-01  0.7111111E-02
    1       -3.683420   1.000000
    2        0.700704   1.000000
    3        3.049843   1.000000
    4        4.094397   1.000000
    5        5.783623   1.000000
    6        7.200403   1.000000
    7        8.970949   0.365014
    8       10.194554  -0.000000
    9       12.265276   0.000000
   10       14.605796   0.000000

  0.3333333E+00  0.1333333E+00  0.6666667E-01  0.7111111E-02
    1       -2.910368   1.000000
    2       -0.211054   1.000000
    3        2.765698   1.000000
    4        4.000740   1.000000
    5        5.689810   1.000000
    6        7.299974   1.000000
    7        9.019344   0.060496
    8       10.292154  -0.000000
    9       12.399807   0.000000
   10       14.969147   0.000000

  0.4000000E+00  0.1333333E+00  0.6666667E-01  0.7111111E-02
    1       -2.056200   1.000000
    2       -1.140762   1.000000
    3        2.618248   1.000000
    4        3.954708   1.000000
    5        5.586704   1.000000
    6        7.364391   1.000000
    7        9.251137  -0.000114
    8       10.213963  -0.000000
    9       12.426595   0.000000
   10       15.127488   0.000000

  0.2000000E+00  0.2000000E+00  0.6666667E-01  0.3555556E-02
    1       -3.753681   1.000000
    2        0.978412   1.000000
    3        2.733902   1.000000
    4        4.150158   1.000000
    5        6.223748   1.000000
    6        6.743522   1.000000
    7        8.819051   1.033217
    8       10.255809  -0.000000
    9       12.698822   0.000000
   10       14.308167   0.000000

  0.2666667E+00  0.2000000E+00  0.6666667E-01  0.7111111E-02
    1       -3.041854   1.000000
    2        0.302514   1.000000
    3        2.156523   1.000000
    4        4.130436   1.000000
    5        6.165396   1.000000
    6        6.859128   1.000000
    7        8.599427   1.000003
    8       10.334454  -0.000000
    9       13.312362   0.000000
   10       14.541438   0.000000

  0.3333333E+00  0.2000000E+00  0.6666667E-01  0.7111111E-02
    1       -2.241218   1.000000
    2       -0.497206   1.000000
    3        1.811030   1.000000
    4        4.155744   1.000000
    5        5.810896   1.000000
    6        7.218980   1.000000
    7        8.709862   1.001450
    8       10.096181  -0.000000
    9       13.461349   0.000000
   10       15.120505   0.000000

  0.4000000E+00  0.2000000E+00  0.6666667E-01  0.3555556E-02
    1       -1.482133   1.000000
    2       -1.263484   1.000000
    3        1.700204   1.000000
    4        4.177002   1.000000
    5        5.673836   1.000000
    6        7.311457   1.000000
    7        8.947917   0.557807
    8        9.833399  -0.000000
    9       13.475250   0.000000
   10       15.406354   0.000000

  0.2666667E+00  0.2666667E+00  0.6666667E-01  0.3555556E-02
    1       -2.303005   1.000000
    2       -0.118832   1.000000
    3        1.374748   1.000000
    4        4.265650   1.000000
    5        5.772439   1.000000
    6        7.379966   1.000000
    7        8.357772   1.000000
    8       10.055447  -0.000000
    9       14.362507   0.000000
   10       14.550185   0.000000

  0.3333333E+00  0.2666667E+00  0.6666667E-01  0.7111111E-02
    1       -1.521045   1.000000
    2       -0.696742   1.000000
    3        0.929789   1.000000
    4        4.447255   1.000000
    5        5.373766   1.000000
    6        7.800268   1.000000
    7        8.504336   1.000000
    8        9.499415  -0.000000
    9       14.484525   0.000000
   10       15.215429   0.000000

  0.3333333E+00  0.3333333E+00  0.6666667E-01  0.1185185E-02
    1       -0.939421   1.000000
    2       -0.939418   1.000000
    3        0.467824   1.000000
    4        4.866373   1.000000
    5        4.866375   1.000000
    6        8.409298   1.000000
    7        8.409298   1.000000
    8        8.918282   0.787151
    9       15.097488   0.000000
   10       15.097489   0.000000

  0.3742002E-15  0.3742002E-15  0.1333333E+00  0.5925926E-03
    1       -5.687824   1.000000
    2        3.515834   1.000000
    3        4.412318   1.000000
    4        4.412321   1.000000
    5        6.672715   1.000000
    6        7.898261   1.000000
    7        7.898263   1.000000
    8       10.985997  -0.000000
    9       10.986000  -0.000000
   10       12.687707   0.000000

  0.6666667E-01  0.3766815E-15  0.1333333E+00  0.3555556E-02
    1       -5.606690   1.000000
    2        3.556349   1.000000
    3        4.163190   1.000000
    4        4.427952   1.000000
    5        6.322737   1.000000
    6        7.844757   1.000000
    7        8.295378   1.000000
    8       10.822584  -0.000000
    9       10.916334  -0.000000
   10       12.983404   0.000000

  0.1333333E+00  0.3754153E-15  0.1333333E+00  0.3555556E-02
    1       -5.366418   1.000000
    2        3.462690   1.000000
    3        3.705704   1.000000
    4        4.455351   1.000000
    5        5.789597   1.000000
    6        7.747759   1.000000
    7        8.837169   1.035066
    8       10.621671  -0.000000
    9       10.750030  -0.000000
   10       13.652625   0.000000

  0.2000000E+00  0.3870416E-15  0.1333333E+00  0.3555556E-02
    1       -4.976154   1.000000
    2        2.594337   1.000000
    3        3.816791   1.000000
    4        4.449641   1.000000
    5        5.314922   1.000000
    6        7.734029   1.000000
    7        9.008009   0.112613
    8       10.544436  -0.000000
    9       10.836905  -0.000000
   10       13.694656   0.000000

  0.2666667E+00  0.4120044E-15  0.1333333E+00  0.3555556E-02
    1       -4.449680   1.000000
    2        1.618821   1.000000
    3        3.909070   1.000000
    4        4.381860   1.000000
    5        4.905590   1.000000
    6        7.882709   1.000000
    7        9.040178  -0.002628
    8       10.328542  -0.000000
    9       11.187565  -0.000000
   10       13.692161   0.000000

  0.3333333E+00  0.4025434E-15  0.1333333E+00  0.3555556E-02
    1       -3.804026   1.000000
    2        0.623392   1.000000
    3        3.941170   1.000000
    4        4.271193   1.000000
    5        4.559817   1.000000
    6        8.172680   1.000000
    7        9.222087  -0.000516
    8       10.117895  -0.000000
    9       11.296402  -0.000000
   10       14.066902   0.000000

  0.4000000E+00  0.3732510E-15  0.1333333E+00  0.3555556E-02
    1       -3.058397   1.000000
    2       -0.356712   1.000000
    3        3.935221   1.000000
    4        4.164352   1.000000
    5        4.299408   1.000000
    6        8.508001   1.000000
    7        9.460437  -0.000000
    8        9.925824  -0.000000
    9       11.397665  -0.000000
   10       14.331247   0.000000

  0.4666667E+00  0.3915456E-15  0.1333333E+00  0.3555556E-02
    1       -2.242447   1.000000
    2       -1.289619   1.000000
    3        3.923762   1.000000
    4        4.100950   1.000000
    5        4.157931   1.000000
    6        8.752371   1.007394
    7        9.576759  -0.000000
    8        9.787486  -0.000000
    9       11.634569  -0.000000
   10       14.112058   0.000000

  0.6666667E-01  0.6666667E-01  0.1333333E+00  0.3555556E-02
    1       -5.445977   1.000000
    2        3.624620   1.000000
    3        3.736334   1.000000
    4        4.405769   1.000000
    5        5.980217   1.000000
    6        7.686612   1.000000
    7        8.793597   1.022526
    8       10.582583  -0.000000
    9       10.837104  -0.000000
   10       13.511023   0.000000

  0.1333333E+00  0.6666667E-01  0.1333333E+00  0.7111111E-02
    1       -5.130647   1.000000
    2        3.003328   1.000000
    3        3.725447   1.000000
    4        4.292457   1.000000
    5        5.704268   1.000000
    6        7.469508   1.000000
    7        9.234059  -0.000284
    8       10.380589  -0.000000
    9       10.840841  -0.000000
   10       14.060092   0.000000

  0.2000000E+00  0.6666667E-01  0.1333333E+00  0.7111111E-02
    1       -4.672094   1.000000
    2        2.102908   1.000000
    3        3.779357   1.000000
    4        4.136369   1.000000
    5        5.476091   1.000000
    6        7.421343   1.000000
    7        9.327016  -0.000001
    8       10.283879  -0.000000
    9       11.144664  -0.000000
   10       13.869607   0.000000

  0.2666667E+00  0.6666667E-01  0.1333333E+00  0.7111111E-02
    1       -4.085777   1.000000
    2        1.138222   1.000000
    3        3.708641   1.000000
    4        4.036246   1.000000
    5        5.203888   1.000000
    6        7.626488   1.000000
    7        9.419174  -0.000000
    8       10.131648  -0.000000
    9       11.429813  -0.000000
   10       13.944671   0.000000

  0.3333333E+00  0.6666667E-01  0.1333333E+00  0.7111111E-02
    1       -3.389842   1.000000
    2        0.163660   1.000000
    3        3.568208   1.000000
    4        3.988894   1.000000
    5        4.929894   1.000000
    6        7.992699   1.000000
    7        9.603894  -0.000000
    8        9.963666  -0.000000
    9       11.528730  -0.000000
   10       14.289157   0.000000

  0.4000000E+00  0.6666667E-01  0.1333333E+00  0.7111111E-02
    1       -2.606398   1.000000
    2       -0.788237   1.000000
    3        3.455117   1.000000
    4        3.962329   1.000000
    5        4.730350   1.000000
    6        8.347292   1.000000
    7        9.702048  -0.000000
    8        9.865978  -0.000000
    9       11.675941  -0.000000
   10       14.307035   0.000000

  0.4666667E+00  0.6666667E-01  0.1333333E+00  0.3555556E-02
    1       -1.892889   1.000000
    2       -1.557962   1.000000
    3        3.412985   1.000000
    4        3.954515   1.000000
    5        4.657147   1.000000
    6        8.500435   1.000000
    7        9.669189  -0.000000
    8        9.877798  -0.000000
    9       11.793701   0.000000
   10       14.184341   0.000000

  0.1333333E+00  0.1333333E+00  0.1333333E+00  0.3555556E-02
    1       -4.746895   1.000000
    2        2.370094   1.000000
    3        3.577695   1.000000
    4        4.053299   1.000000
    5        5.917071   1.000000
    6        6.990411   1.000000
    7        9.667678  -0.000000
    8       10.077772  -0.000000
    9       11.154727  -0.000000
   10       14.335415   0.000000

  0.2000000E+00  0.1333333E+00  0.1333333E+00  0.7111111E-02
    1       -4.228136   1.000000
    2        1.584442   1.000000
    3        3.227806   1.000000
    4        4.025291   1.000000
    5        5.957756   1.000000
    6        6.829561   1.000000
    7        9.748432  -0.000000
    8       10.013713  -0.000000
    9       11.645260  -0.000000
   10       14.043537   0.000000

  0.2666667E+00  0.1333333E+00  0.1333333E+00  0.7111111E-02
    1       -3.591095   1.000000
    2        0.703929   1.000000
    3        2.926388   1.000000
    4        4.026151   1.000000
    5        5.596058   1.000000
    6        7.226476   1.000000
    7        9.611513  -0.000000
    8       10.123830  -0.000000
    9       11.999897   0.000000
   10       14.114890   0.000000

  0.3333333E+00  0.1333333E+00  0.1333333E+00  0.7111111E-02
    1       -2.856353   1.000000
    2       -0.210035   1.000000
    3        2.719225   1.000000
    4        4.032668   1.000000
    5        5.238069   1.000000
    6        7.741337   1.000000
    7        9.491280  -0.000000
    8       10.162997  -0.000000
    9       12.160742   0.000000
   10       14.383016   0.000000

  0.4000000E+00  0.1333333E+00  0.1333333E+00  0.7111111E-02
    1       -2.062183   1.000000
    2       -1.097958   1.000000
    3        2.613275   1.000000
    4        4.047585   1.000000
    5        5.026657   1.000000
    6        8.107289   1.000000
    7        9.439879  -0.000000
    8       10.108918  -0.000000
    9       12.253439   0.000000
   10       14.476865   0.000000

  0.2000000E+00  0.2000000E+00  0.1333333E+00  0.3555556E-02
    1       -3.658493   1.000000
    2        1.001401   1.000000
    3        2.587248   1.000000
    4        4.043250   1.000000
    5        6.102149   1.000000
    6        6.664206   1.000000
    7        9.569726  -0.000000
    8       10.209942  -0.000000
    9       12.318745   0.000000
   10       13.962767   0.000000

  0.2666667E+00  0.2000000E+00  0.1333333E+00  0.7111111E-02
    1       -2.982368   1.000000
    2        0.301019   1.000000
    3        2.111790   1.000000
    4        4.087522   1.000000
    5        5.620425   1.000000
    6        7.259824   1.000000
    7        9.316669  -0.000002
    8       10.289413  -0.000000
    9       12.868205   0.000000
   10       14.118490   0.000000
