 running on    4 total cores
 distrk:  each k-point on    4 cores,    1 groups
 distr:  one band on    2 cores,    2 groups
 using from now: INCAR     
 vasp.5.4.4.18Apr17-6-g9f103f2a35 (build Dec  7 2020 12:43:57) complex           
 POSCAR found type information on POSCAR  Mo B 
 POSCAR found :  2 types and       3 ions
 scaLAPACK will be used
 LDA part: xc-table for Pade appr. of Perdew
 POSCAR, INCAR and KPOINTS ok, starting setup
 FFT: planning ...
 WAVECAR not read
 augmentation electrons   12.018373587906812     
 soft         electrons   0.0000000000000000     
 augmentation electrons   12.018373587906812     
 soft         electrons   0.0000000000000000     
 augmentation electrons   12.018373587906812     
 soft         electrons   0.0000000000000000     
 augmentation electrons   12.018373587906812     
 soft         electrons   0.0000000000000000     
 total        electrons   12.018373587906812     
 total        electrons   12.018373587906812     
 total        electrons   12.018373587906812     
 total        electrons   12.018373587906812     
 augmentation electrons   169.75791458332097     
 soft         electrons   0.0000000000000000     
 augmentation electrons   169.75791458332097     
 soft         electrons   0.0000000000000000     
 augmentation electrons   169.75791458332097     
 soft         electrons   0.0000000000000000     
 augmentation electrons   169.75791458332097     
 soft         electrons   0.0000000000000000     
 total        electrons   169.75791458332097     
 total        electrons   169.75791458332097     
 total        electrons   169.75791458332097     
 total        electrons   169.75791458332097     
 entering main loop
       N       E                     dE             d eps       ncg     rms          rms(c)
DAV:   1     0.397304659764E+02    0.39730E+02   -0.56894E+03  4320   0.105E+03
DAV:   2    -0.158597689086E+02   -0.55590E+02   -0.52724E+02  5134   0.217E+02
DAV:   3    -0.179959435550E+02   -0.21362E+01   -0.20469E+01  5978   0.381E+01
DAV:   4    -0.180218100229E+02   -0.25866E-01   -0.25778E-01  5496   0.324E+00
DAV:   5    -0.180221534216E+02   -0.34340E-03   -0.34329E-03  5530   0.286E-01    0.338E+01
RMM:   6    -0.156123070499E+02    0.24098E+01   -0.89692E+00  4329   0.197E+01    0.976E+00
RMM:   7    -0.157429517697E+02   -0.13064E+00   -0.35343E-01  4326   0.413E+00    0.550E+00
RMM:   8    -0.158262786364E+02   -0.83327E-01   -0.30241E-01  4320   0.660E+00    0.216E+00
RMM:   9    -0.158055913316E+02    0.20687E-01   -0.76823E-02  4321   0.202E+00    0.558E-01
RMM:  10    -0.158045096243E+02    0.10817E-02   -0.15089E-03  4335   0.327E-01    0.265E-01
RMM:  11    -0.158040387114E+02    0.47091E-03   -0.32004E-03  4321   0.446E-01    0.757E-02
RMM:  12    -0.158039944398E+02    0.44272E-04   -0.12700E-04  4321   0.120E-01    0.184E-02
RMM:  13    -0.158040007082E+02   -0.62684E-05   -0.76114E-06  4109   0.357E-02    0.590E-03
RMM:  14    -0.158040020800E+02   -0.13718E-05   -0.22535E-06  3169   0.215E-02    0.638E-04
RMM:  15    -0.158040020658E+02    0.14178E-07   -0.17966E-07  2584   0.340E-03
   1 F= -.15804002E+02 E0= -.15803787E+02  d E =-.158040E+02
 curvature:   0.00 expect dE= 0.000E+00 dE for cont linesearch  0.000E+00
 trial: gam= 0.00000 g(F)=  0.106E-43 g(S)=  0.240E+01 ort = 0.000E+00 (trialstep = 0.100E+01)
 search vector abs. value=  0.240E+01
 bond charge predicted
       N       E                     dE             d eps       ncg     rms          rms(c)
DAV:   1    -0.171785383680E+02   -0.13745E+01   -0.57344E+01  4384   0.691E+01    0.200E+01
RMM:   2    -0.158524459875E+02    0.13261E+01   -0.58031E+00  4320   0.158E+01    0.763E+00
RMM:   3    -0.155299696547E+02    0.32248E+00   -0.36401E-01  4320   0.424E+00    0.606E+00
RMM:   4    -0.155277228183E+02    0.22468E-02   -0.33137E-01  4320   0.401E+00    0.108E+00
RMM:   5    -0.155170299065E+02    0.10693E-01   -0.73913E-02  4336   0.162E+00    0.365E-01
RMM:   6    -0.155125467764E+02    0.44831E-02   -0.76141E-03  4322   0.782E-01    0.755E-02
RMM:   7    -0.155126069729E+02   -0.60196E-04   -0.90303E-04  4355   0.203E-01    0.352E-02
RMM:   8    -0.155126715997E+02   -0.64627E-04   -0.16707E-04  4329   0.114E-01    0.197E-02
RMM:   9    -0.155126890844E+02   -0.17485E-04   -0.13986E-04  4324   0.940E-02    0.185E-02
RMM:  10    -0.155126849802E+02    0.41041E-05   -0.37812E-05  4320   0.581E-02    0.302E-03
RMM:  11    -0.155126851730E+02   -0.19276E-06   -0.22929E-06  3129   0.709E-03
   2 F= -.15512685E+02 E0= -.15512579E+02  d E =0.291317E+00
 trial-energy change:    0.291317  1 .order    0.031363   -2.401549    2.464276
 step:   0.4157(harm=  0.4936)  dis= 0.00000  next Energy=   -16.284486 (dE=-0.480E+00)
 bond charge predicted
       N       E                     dE             d eps       ncg     rms          rms(c)
DAV:   1    -0.167396792959E+02   -0.12270E+01   -0.20371E+01  4364   0.446E+01    0.114E+01
RMM:   2    -0.162967937450E+02    0.44289E+00   -0.77929E-01  4320   0.665E+00    0.334E+00
RMM:   3    -0.162530604467E+02    0.43733E-01   -0.85431E-02  4322   0.203E+00    0.155E+00
RMM:   4    -0.162483434050E+02    0.47170E-02   -0.46234E-02  4320   0.154E+00    0.323E-01
RMM:   5    -0.162496400444E+02   -0.12966E-02   -0.34746E-03  4337   0.454E-01    0.996E-02
RMM:   6    -0.162495452740E+02    0.94770E-04   -0.15259E-04  4407   0.105E-01    0.781E-02
RMM:   7    -0.162494321576E+02    0.11312E-03   -0.17189E-03  4320   0.346E-01    0.443E-02
RMM:   8    -0.162493799717E+02    0.52186E-04   -0.57795E-05  4324   0.834E-02    0.195E-02
RMM:   9    -0.162493707685E+02    0.92033E-05   -0.33924E-05  4311   0.419E-02    0.408E-03
RMM:  10    -0.162493710167E+02   -0.24822E-06   -0.90510E-07  2804   0.803E-03
   3 F= -.16249371E+02 E0= -.16249471E+02  d E =-.445369E+00
 curvature:  -0.24 expect dE=-0.235E-02 dE for cont linesearch -0.868E-03
 ZBRENT: interpolating
 opt :   0.4002  next Energy=   -16.250092 (dE=-0.446E+00)
 bond charge predicted
       N       E                     dE             d eps       ncg     rms          rms(c)
DAV:   1    -0.162505035316E+02   -0.11328E-02   -0.14390E-02  4650   0.118E+00    0.364E-01
RMM:   2    -0.162502006349E+02    0.30290E-03   -0.62049E-04  4320   0.183E-01    0.122E-01
RMM:   3    -0.162501781313E+02    0.22504E-04   -0.56357E-05  4323   0.537E-02    0.633E-02
RMM:   4    -0.162501809210E+02   -0.27896E-05   -0.33352E-05  4320   0.438E-02    0.116E-02
RMM:   5    -0.162501822544E+02   -0.13334E-05   -0.24526E-06  3061   0.136E-02    0.300E-03
RMM:   6    -0.162501820646E+02    0.18982E-06   -0.73459E-07  2519   0.843E-03
   4 F= -.16250182E+02 E0= -.16250274E+02  d E =-.446180E+00
 curvature:  -0.20 expect dE=-0.116E-02 dE for cont linesearch -0.162E-04
 ZBRENT: interpolating
 opt :   0.3975  next Energy=   -16.250201 (dE=-0.446E+00)
 bond charge predicted
       N       E                     dE             d eps       ncg     rms          rms(c)
DAV:   1    -0.162502111734E+02   -0.28919E-04   -0.44646E-04  4568   0.207E-01    0.645E-02
RMM:   2    -0.162502018150E+02    0.93584E-05   -0.20312E-05  4278   0.332E-02    0.211E-02
RMM:   3    -0.162502017154E+02    0.99612E-07   -0.15664E-06  2446   0.940E-03    0.109E-02
RMM:   4    -0.162502023657E+02   -0.65039E-06   -0.10591E-06  2385   0.870E-03    0.224E-03
RMM:   5    -0.162502025364E+02   -0.17068E-06   -0.15514E-07  2247   0.336E-03
   5 F= -.16250203E+02 E0= -.16250293E+02  d E =-.446200E+00
 curvature:  -0.24 expect dE=-0.132E-02 dE for cont linesearch -0.517E-08
 trial: gam= 0.00223 g(F)=  0.351E-43 g(S)=  0.560E-02 ort = 0.230E-03 (trialstep = 0.879E+00)
 search vector abs. value=  0.561E-02
 bond charge predicted
       N       E                     dE             d eps       ncg     rms          rms(c)
DAV:   1    -0.162542494817E+02   -0.40471E-02   -0.13703E-01  4406   0.310E+00    0.171E-01
RMM:   2    -0.162536265250E+02    0.62296E-03   -0.31859E-03  4326   0.493E-01    0.182E-01
RMM:   3    -0.162535450294E+02    0.81496E-04   -0.12723E-04  4365   0.765E-02    0.104E-01
RMM:   4    -0.162535251753E+02    0.19854E-04   -0.77818E-05  4321   0.772E-02    0.147E-02
RMM:   5    -0.162535341969E+02   -0.90215E-05   -0.30902E-05  4321   0.494E-02    0.202E-02
RMM:   6    -0.162535339349E+02    0.26201E-06   -0.49489E-06  3930   0.199E-02
   6 F= -.16253534E+02 E0= -.16253571E+02  d E =-.333140E-02
 trial-energy change:   -0.003331  1 .order   -0.003394   -0.004922   -0.001867
 step:   1.5679(harm=  1.4169)  dis= 0.00000  next Energy=   -16.254234 (dE=-0.403E-02)
 bond charge predicted
       N       E                     dE             d eps       ncg     rms          rms(c)
DAV:   1    -0.162546881408E+02   -0.11539E-02   -0.83965E-02  4454   0.243E+00    0.128E-01
RMM:   2    -0.162543710284E+02    0.31711E-03   -0.18808E-03  4326   0.382E-01    0.137E-01
RMM:   3    -0.162543415188E+02    0.29510E-04   -0.71721E-05  4363   0.587E-02    0.793E-02
RMM:   4    -0.162543551165E+02   -0.13598E-04   -0.42184E-05  4321   0.664E-02    0.168E-02
RMM:   5    -0.162543712385E+02   -0.16122E-04   -0.33175E-05  4320   0.579E-02    0.205E-02
RMM:   6    -0.162543725820E+02   -0.13435E-05   -0.66833E-06  4039   0.249E-02    0.585E-03
RMM:   7    -0.162543745294E+02   -0.19474E-05   -0.39024E-06  3269   0.260E-02    0.281E-03
RMM:   8    -0.162543744379E+02    0.91511E-07   -0.31861E-07  2484   0.455E-03
   7 F= -.16254374E+02 E0= -.16254317E+02  d E =-.417190E-02
 curvature:  -0.65 expect dE=-0.434E-04 dE for cont linesearch -0.209E-04
 ZBRENT: extrapolating
 opt :   1.7395  next Energy=   -16.254411 (dE=-0.421E-02)
 bond charge predicted
       N       E                     dE             d eps       ncg     rms          rms(c)
DAV:   1    -0.162544318015E+02   -0.57272E-04   -0.52211E-03  4518   0.604E-01    0.315E-02
RMM:   2    -0.162544135261E+02    0.18275E-04   -0.11339E-04  4326   0.942E-02    0.340E-02
RMM:   3    -0.162544121212E+02    0.14049E-05   -0.42724E-06  3389   0.147E-02    0.194E-02
RMM:   4    -0.162544135180E+02   -0.13968E-05   -0.24649E-06  3104   0.169E-02    0.463E-03
RMM:   5    -0.162544146521E+02   -0.11340E-05   -0.20715E-06  2878   0.154E-02    0.488E-03
RMM:   6    -0.162544148535E+02   -0.20142E-06   -0.45897E-07  2358   0.725E-03
   8 F= -.16254415E+02 E0= -.16254348E+02  d E =-.421232E-02
 curvature:  -1.14 expect dE=-0.576E-04 dE for cont linesearch -0.403E-06
 trial: gam= 0.00550 g(F)=  0.584E-44 g(S)=  0.507E-04 ort = 0.446E-04 (trialstep = 0.105E+01)
 search vector abs. value=  0.514E-04
 reached required accuracy - stopping structural energy minimisation
 writing wavefunctions
 augmentation electrons   1.1686037634699660     
 soft         electrons   10.853446388752699     
 augmentation electrons   1.1686037634699660     
 soft         electrons   10.853446388752699     
 augmentation electrons   1.1686037634699660     
 soft         electrons   10.853446388752699     
 augmentation electrons   1.1686037634699660     
 soft         electrons   10.853446388752699     
 total        electrons   12.022050152222665     
 total        electrons   12.022050152222665     
 total        electrons   12.022050152222665     
 total        electrons   12.022050152222665     
