   55   55   85    1
  0.1383486E+02  0.6088057E-09  0.6088057E-09  0.2372246E-08  0.5000000E-15
   1.0000000000000000E-004
  CAR 
 Name                                    
    201     41    132

  0.3742002E-15  0.3742002E-15  0.1262379E-14  0.1234568E-01
    1      -11.799174   1.000000
    2      -11.219691   1.000000
    3      -10.388585   1.000000
    4       -9.059208   1.000000
    5       -8.926116   1.000000
    6       -8.918661   1.000000
    7       -8.536814   1.000000
    8       -8.344629   1.000000
    9       -8.212319   1.000000
   10       -8.093681   1.000000
   11       -8.037146   1.000000
   12       -7.983639   1.000000
   13       -7.958731   1.000000
   14       -7.947247   1.000000
   15       -7.658734   1.000000
   16       -7.632266   1.000000
   17       -7.596295   1.000000
   18       -7.369104   1.000000
   19       -7.297935   1.000000
   20       -7.172426   1.000000
   21       -6.722926   1.000000
   22       -6.440812   1.000000
   23       -6.370805   1.000000
   24       -6.287370   1.000000
   25       -6.234502   1.000000
   26       -6.158869   1.000000
   27       -6.147728   1.000000
   28       -6.094636   1.000000
   29       -5.571534   1.000000
   30       -5.557687   1.000000
   31       -4.996918   1.000000
   32       -4.952456   1.000000
   33       -4.861242   1.000000
   34       -4.825168   1.000000
   35       -4.571284   1.000000
   36       -4.502167   1.000000
   37       -4.311290   1.000000
   38       -3.921058   1.000000
   39       -3.423605   1.000000
   40       -3.406447   1.000000
   41       -3.237980   1.000000
   42       -3.217869   1.000000
   43       -2.970680   1.000000
   44       -2.921427   1.000000
   45       -2.839637   1.000000
   46       -2.739099   1.000000
   47       -2.626515   1.000000
   48       -2.543590   1.000000
   49       -2.524397   1.000000
   50       -2.483096   1.000000
   51       -2.295977   1.000000
   52       -2.222396   1.000000
   53       -2.172893   1.000000
   54       -2.140498   1.000000
   55       -2.101282   1.000000
   56       -2.094409   1.000000
   57       -2.017812   1.000000
   58       -1.952931   1.000000
   59       -1.945381   1.000000
   60       -1.774089   1.000000
   61       -1.594621   1.000000
   62       -1.593893   1.000000
   63       -1.432016   1.000000
   64       -1.420921   1.000000
   65       -1.398491   1.000000
   66       -1.325149   1.000000
   67       -1.087210   1.000000
   68       -1.073915   1.000000
   69       -1.021974   1.000000
   70       -1.014843   1.000000
   71       -0.934416   1.000000
   72       -0.920100   1.000000
   73       -0.895572   1.000000
   74       -0.676016   1.000000
   75       -0.473138   1.000000
   76       -0.382068   1.000000
   77       -0.380960   1.000000
   78       -0.288775   1.000000
   79        0.018465   1.000000
   80        0.060795   1.000000
   81        0.124045   1.000000
   82        0.403192   1.000000
   83        0.523341   1.000000
   84        0.783928   1.000000
   85        0.809112   1.000000
   86        0.893193   1.000000
   87        1.013661   1.000000
   88        1.032968   1.000000
   89        1.165169   1.000000
   90        1.201428   1.000000
   91        1.258190   1.000000
   92        1.310377   1.000000
   93        1.313841   1.000000
   94        1.364220   1.000000
   95        1.376205   1.000000
   96        1.669676   1.000002
   97        1.846198   1.000440
   98        1.912796   1.002006
   99        2.352946   0.643248
  100        2.442570   0.275956
  101        2.451464   0.243578
  102        2.682081  -0.028811
  103        2.884322  -0.001239
  104        2.939323  -0.000336
  105        2.941522  -0.000317
  106        3.036832  -0.000022
  107        3.096752  -0.000003
  108        3.233860  -0.000000
  109        3.282594  -0.000000
  110        3.303815  -0.000000
  111        3.366252  -0.000000
  112        3.396721  -0.000000
  113        3.510798  -0.000000
  114        3.519700  -0.000000
  115        3.605525  -0.000000
  116        3.615478  -0.000000
  117        3.623175  -0.000000
  118        3.639659  -0.000000
  119        3.715168  -0.000000
  120        3.734710  -0.000000
  121        3.818379  -0.000000
  122        3.882788  -0.000000
  123        3.884891  -0.000000
  124        3.886965  -0.000000
  125        3.949046  -0.000000
  126        3.985583  -0.000000
  127        4.057992  -0.000000
  128        4.112000  -0.000000
  129        4.235638  -0.000000
  130        4.358029  -0.000000
  131        4.504602  -0.000000
  132        4.571980  -0.000000

  0.1111111E+00  0.3857958E-15  0.1262379E-14  0.2469136E-01
    1      -11.741862   1.000000
    2      -11.167207   1.000000
    3      -10.348528   1.000000
    4       -9.019652   1.000000
    5       -8.939708   1.000000
    6       -8.895437   1.000000
    7       -8.685412   1.000000
    8       -8.561590   1.000000
    9       -8.373134   1.000000
   10       -8.283220   1.000000
   11       -8.257122   1.000000
   12       -8.212428   1.000000
   13       -8.090777   1.000000
   14       -8.042201   1.000000
   15       -7.489173   1.000000
   16       -7.400415   1.000000
   17       -7.233810   1.000000
   18       -7.205001   1.000000
   19       -7.117058   1.000000
   20       -6.941638   1.000000
   21       -6.764373   1.000000
   22       -6.483807   1.000000
   23       -6.432536   1.000000
   24       -6.285050   1.000000
   25       -6.230419   1.000000
   26       -6.123765   1.000000
   27       -6.057287   1.000000
   28       -5.966150   1.000000
   29       -5.603925   1.000000
   30       -5.499966   1.000000
   31       -4.930107   1.000000
   32       -4.877805   1.000000
   33       -4.828673   1.000000
   34       -4.664332   1.000000
   35       -4.469178   1.000000
   36       -4.352323   1.000000
   37       -4.188198   1.000000
   38       -3.884524   1.000000
   39       -3.472485   1.000000
   40       -3.430474   1.000000
   41       -3.233466   1.000000
   42       -3.199577   1.000000
   43       -3.069831   1.000000
   44       -2.941948   1.000000
   45       -2.901552   1.000000
   46       -2.873719   1.000000
   47       -2.747496   1.000000
   48       -2.646260   1.000000
   49       -2.506491   1.000000
   50       -2.459911   1.000000
   51       -2.323490   1.000000
   52       -2.220376   1.000000
   53       -2.180065   1.000000
   54       -2.099894   1.000000
   55       -2.091541   1.000000
   56       -2.074407   1.000000
   57       -1.988810   1.000000
   58       -1.956798   1.000000
   59       -1.928741   1.000000
   60       -1.774378   1.000000
   61       -1.655014   1.000000
   62       -1.625243   1.000000
   63       -1.538444   1.000000
   64       -1.478997   1.000000
   65       -1.418682   1.000000
   66       -1.357429   1.000000
   67       -1.282969   1.000000
   68       -1.113074   1.000000
   69       -1.078278   1.000000
   70       -0.999152   1.000000
   71       -0.980094   1.000000
   72       -0.914342   1.000000
   73       -0.819166   1.000000
   74       -0.658660   1.000000
   75       -0.510188   1.000000
   76       -0.479645   1.000000
   77       -0.414236   1.000000
   78       -0.248512   1.000000
   79       -0.209856   1.000000
   80       -0.040098   1.000000
   81        0.115224   1.000000
   82        0.203644   1.000000
   83        0.482164   1.000000
   84        0.616676   1.000000
   85        0.647145   1.000000
   86        0.813339   1.000000
   87        0.906143   1.000000
   88        1.093079   1.000000
   89        1.147907   1.000000
   90        1.169970   1.000000
   91        1.202878   1.000000
   92        1.247015   1.000000
   93        1.344154   1.000000
   94        1.402624   1.000000
   95        1.493777   1.000000
   96        1.634877   1.000001
   97        2.080341   1.026064
   98        2.152482   1.035040
   99        2.325785   0.747352
  100        2.427573   0.333592
  101        2.501391   0.093824
  102        2.558528  -0.002988
  103        2.719992  -0.020179
  104        2.812849  -0.005184
  105        2.980736  -0.000112
  106        3.157790  -0.000000
  107        3.175255  -0.000000
  108        3.268558  -0.000000
  109        3.297089  -0.000000
  110        3.342814  -0.000000
  111        3.362650  -0.000000
  112        3.380430  -0.000000
  113        3.450393  -0.000000
  114        3.484208  -0.000000
  115        3.572568  -0.000000
  116        3.589854  -0.000000
  117        3.617712  -0.000000
  118        3.639135  -0.000000
  119        3.681071  -0.000000
  120        3.698963  -0.000000
  121        3.774645  -0.000000
  122        3.824926  -0.000000
  123        3.856509  -0.000000
  124        3.872211  -0.000000
  125        3.942406  -0.000000
  126        3.961549  -0.000000
  127        3.985895  -0.000000
  128        4.113396  -0.000000
  129        4.207517  -0.000000
  130        4.403680  -0.000000
  131        4.422645  -0.000000
  132        4.576694  -0.000000

  0.2222222E+00  0.3935346E-15  0.1262379E-14  0.2469136E-01
    1      -11.572111   1.000000
    2      -11.012239   1.000000
    3      -10.231448   1.000000
    4       -9.257873   1.000000
    5       -9.045118   1.000000
    6       -9.019232   1.000000
    7       -8.899592   1.000000
    8       -8.807416   1.000000
    9       -8.526045   1.000000
   10       -8.473817   1.000000
   11       -8.439648   1.000000
   12       -8.295254   1.000000
   13       -8.288912   1.000000
   14       -8.249942   1.000000
   15       -7.349994   1.000000
   16       -7.209987   1.000000
   17       -7.064141   1.000000
   18       -7.040966   1.000000
   19       -6.918745   1.000000
   20       -6.807878   1.000000
   21       -6.529485   1.000000
   22       -6.412419   1.000000
   23       -6.231150   1.000000
   24       -6.163369   1.000000
   25       -6.091976   1.000000
   26       -5.975592   1.000000
   27       -5.888545   1.000000
   28       -5.746497   1.000000
   29       -5.464430   1.000000
   30       -5.301749   1.000000
   31       -4.787139   1.000000
   32       -4.717889   1.000000
   33       -4.685210   1.000000
   34       -4.304375   1.000000
   35       -4.193728   1.000000
   36       -4.149255   1.000000
   37       -3.825107   1.000000
   38       -3.769269   1.000000
   39       -3.639541   1.000000
   40       -3.552672   1.000000
   41       -3.432559   1.000000
   42       -3.399453   1.000000
   43       -3.296293   1.000000
   44       -3.150532   1.000000
   45       -3.041619   1.000000
   46       -2.857092   1.000000
   47       -2.766301   1.000000
   48       -2.684347   1.000000
   49       -2.508739   1.000000
   50       -2.416672   1.000000
   51       -2.368059   1.000000
   52       -2.323604   1.000000
   53       -2.236320   1.000000
   54       -2.189140   1.000000
   55       -2.155928   1.000000
   56       -2.071290   1.000000
   57       -2.018581   1.000000
   58       -1.987794   1.000000
   59       -1.884723   1.000000
   60       -1.799099   1.000000
   61       -1.737032   1.000000
   62       -1.725496   1.000000
   63       -1.684757   1.000000
   64       -1.601231   1.000000
   65       -1.541034   1.000000
   66       -1.488982   1.000000
   67       -1.406906   1.000000
   68       -1.252140   1.000000
   69       -1.235392   1.000000
   70       -1.185945   1.000000
   71       -1.025484   1.000000
   72       -0.988962   1.000000
   73       -0.858087   1.000000
   74       -0.739298   1.000000
   75       -0.726592   1.000000
   76       -0.559665   1.000000
   77       -0.481030   1.000000
   78       -0.424361   1.000000
   79       -0.243163   1.000000
   80       -0.099284   1.000000
   81        0.020632   1.000000
   82        0.178792   1.000000
   83        0.238636   1.000000
   84        0.353397   1.000000
   85        0.577222   1.000000
   86        0.671042   1.000000
   87        0.717393   1.000000
   88        0.938133   1.000000
   89        1.051495   1.000000
   90        1.090302   1.000000
   91        1.127208   1.000000
   92        1.239436   1.000000
   93        1.335599   1.000000
   94        1.421728   1.000000
   95        1.519185   1.000000
   96        1.661645   1.000002
   97        2.035840   1.016114
   98        2.093743   1.029049
   99        2.314977   0.785167
  100        2.488794   0.125983
  101        2.561378  -0.005872
  102        2.704273  -0.023780
  103        2.838217  -0.003232
  104        2.877100  -0.001452
  105        3.021802  -0.000035
  106        3.044778  -0.000017
  107        3.085958  -0.000005
  108        3.120386  -0.000001
  109        3.167144  -0.000000
  110        3.185912  -0.000000
  111        3.316528  -0.000000
  112        3.365063  -0.000000
  113        3.400534  -0.000000
  114        3.434946  -0.000000
  115        3.457522  -0.000000
  116        3.547069  -0.000000
  117        3.565001  -0.000000
  118        3.604546  -0.000000
  119        3.632643  -0.000000
  120        3.687542  -0.000000
  121        3.701119  -0.000000
  122        3.774404  -0.000000
  123        3.786570  -0.000000
  124        3.934026  -0.000000
  125        3.970591  -0.000000
  126        3.999186  -0.000000
  127        4.051838  -0.000000
  128        4.137201  -0.000000
  129        4.157911  -0.000000
  130        4.325615  -0.000000
  131        4.426511  -0.000000
  132        4.568664  -0.000000

  0.3333333E+00  0.3939838E-15  0.1262379E-14  0.2469136E-01
    1      -11.297374   1.000000
    2      -10.762655   1.000000
    3      -10.046579   1.000000
    4       -9.860373   1.000000
    5       -9.522708   1.000000
    6       -9.238917   1.000000
    7       -8.732232   1.000000
    8       -8.672996   1.000000
    9       -8.619089   1.000000
   10       -8.602439   1.000000
   11       -8.584259   1.000000
   12       -8.447981   1.000000
   13       -8.370856   1.000000
   14       -8.273461   1.000000
   15       -7.708697   1.000000
   16       -7.497379   1.000000
   17       -6.878186   1.000000
   18       -6.825276   1.000000
   19       -6.760393   1.000000
   20       -6.434643   1.000000
   21       -6.298107   1.000000
   22       -6.279446   1.000000
   23       -6.112021   1.000000
   24       -6.093263   1.000000
   25       -5.913853   1.000000
   26       -5.817219   1.000000
   27       -5.387537   1.000000
   28       -5.266183   1.000000
   29       -5.000890   1.000000
   30       -4.892198   1.000000
   31       -4.547476   1.000000
   32       -4.498644   1.000000
   33       -4.413006   1.000000
   34       -4.110809   1.000000
   35       -4.033153   1.000000
   36       -3.993227   1.000000
   37       -3.932339   1.000000
   38       -3.896506   1.000000
   39       -3.823269   1.000000
   40       -3.760198   1.000000
   41       -3.703826   1.000000
   42       -3.626954   1.000000
   43       -3.269113   1.000000
   44       -3.054871   1.000000
   45       -3.005706   1.000000
   46       -2.951553   1.000000
   47       -2.826599   1.000000
   48       -2.746133   1.000000
   49       -2.676945   1.000000
   50       -2.539502   1.000000
   51       -2.448088   1.000000
   52       -2.410327   1.000000
   53       -2.334816   1.000000
   54       -2.314997   1.000000
   55       -2.277331   1.000000
   56       -2.131386   1.000000
   57       -2.111016   1.000000
   58       -2.082591   1.000000
   59       -2.029631   1.000000
   60       -1.923319   1.000000
   61       -1.837183   1.000000
   62       -1.782404   1.000000
   63       -1.751428   1.000000
   64       -1.695320   1.000000
   65       -1.656045   1.000000
   66       -1.551417   1.000000
   67       -1.507830   1.000000
   68       -1.416489   1.000000
   69       -1.378932   1.000000
   70       -1.304232   1.000000
   71       -1.133938   1.000000
   72       -1.032745   1.000000
   73       -0.938157   1.000000
   74       -0.903643   1.000000
   75       -0.787818   1.000000
   76       -0.702106   1.000000
   77       -0.620533   1.000000
   78       -0.416604   1.000000
   79       -0.346879   1.000000
   80       -0.201839   1.000000
   81       -0.037507   1.000000
   82        0.125045   1.000000
   83        0.271811   1.000000
   84        0.350048   1.000000
   85        0.484351   1.000000
   86        0.555814   1.000000
   87        0.695851   1.000000
   88        0.796569   1.000000
   89        0.891030   1.000000
   90        0.988742   1.000000
   91        1.080671   1.000000
   92        1.125619   1.000000
   93        1.283571   1.000000
   94        1.377210   1.000000
   95        1.477067   1.000000
   96        1.821895   1.000237
   97        1.848409   1.000464
   98        1.907669   1.001801
   99        2.122479   1.034126
  100        2.473510   0.170264
  101        2.523865   0.046372
  102        2.625341  -0.035262
  103        2.725476  -0.018959
  104        2.752516  -0.013460
  105        2.766819  -0.010982
  106        2.891776  -0.001049
  107        2.953985  -0.000230
  108        3.040239  -0.000020
  109        3.086594  -0.000004
  110        3.173991  -0.000000
  111        3.211536  -0.000000
  112        3.250326  -0.000000
  113        3.263235  -0.000000
  114        3.377896  -0.000000
  115        3.409537  -0.000000
  116        3.527611  -0.000000
  117        3.589384  -0.000000
  118        3.594516  -0.000000
  119        3.646905  -0.000000
  120        3.701701  -0.000000
  121        3.749074  -0.000000
  122        3.814178  -0.000000
  123        3.865322  -0.000000
  124        3.903879  -0.000000
  125        3.974093  -0.000000
  126        4.025784  -0.000000
  127        4.110081  -0.000000
  128        4.210928  -0.000000
  129        4.260951  -0.000000
  130        4.342443  -0.000000
  131        4.405451  -0.000000
  132        4.442152  -0.000000

  0.4444444E+00  0.3881204E-15  0.1262379E-14  0.2469136E-01
    1      -10.944606   1.000000
    2      -10.440278   1.000000
    3      -10.380706   1.000000
    4       -9.975212   1.000000
    5       -9.808954   1.000000
    6       -9.514157   1.000000
    7       -8.686804   1.000000
    8       -8.682426   1.000000
    9       -8.655480   1.000000
   10       -8.572014   1.000000
   11       -8.512663   1.000000
   12       -8.436973   1.000000
   13       -8.401341   1.000000
   14       -8.262726   1.000000
   15       -8.081191   1.000000
   16       -7.744004   1.000000
   17       -6.828463   1.000000
   18       -6.731225   1.000000
   19       -6.707874   1.000000
   20       -6.240179   1.000000
   21       -6.157736   1.000000
   22       -6.038393   1.000000
   23       -5.966974   1.000000
   24       -5.941528   1.000000
   25       -5.861842   1.000000
   26       -5.756701   1.000000
   27       -4.778461   1.000000
   28       -4.682389   1.000000
   29       -4.560694   1.000000
   30       -4.474425   1.000000
   31       -4.461048   1.000000
   32       -4.379214   1.000000
   33       -4.279771   1.000000
   34       -4.248990   1.000000
   35       -4.165139   1.000000
   36       -4.109520   1.000000
   37       -4.034235   1.000000
   38       -3.917106   1.000000
   39       -3.879696   1.000000
   40       -3.841880   1.000000
   41       -3.776562   1.000000
   42       -3.641070   1.000000
   43       -3.602650   1.000000
   44       -3.465740   1.000000
   45       -3.042735   1.000000
   46       -3.008383   1.000000
   47       -2.855168   1.000000
   48       -2.766225   1.000000
   49       -2.681180   1.000000
   50       -2.574293   1.000000
   51       -2.477142   1.000000
   52       -2.416128   1.000000
   53       -2.372229   1.000000
   54       -2.354778   1.000000
   55       -2.317207   1.000000
   56       -2.293649   1.000000
   57       -2.212287   1.000000
   58       -2.127934   1.000000
   59       -2.083450   1.000000
   60       -2.016285   1.000000
   61       -1.882834   1.000000
   62       -1.841541   1.000000
   63       -1.808025   1.000000
   64       -1.774344   1.000000
   65       -1.718484   1.000000
   66       -1.667971   1.000000
   67       -1.538793   1.000000
   68       -1.453402   1.000000
   69       -1.396258   1.000000
   70       -1.360285   1.000000
   71       -1.206304   1.000000
   72       -1.064113   1.000000
   73       -0.961223   1.000000
   74       -0.940814   1.000000
   75       -0.861513   1.000000
   76       -0.785747   1.000000
   77       -0.662568   1.000000
   78       -0.510185   1.000000
   79       -0.349018   1.000000
   80       -0.231217   1.000000
   81       -0.117714   1.000000
   82        0.107552   1.000000
   83        0.288264   1.000000
   84        0.382476   1.000000
   85        0.432502   1.000000
   86        0.536713   1.000000
   87        0.613496   1.000000
   88        0.762228   1.000000
   89        0.839834   1.000000
   90        0.903826   1.000000
   91        1.066074   1.000000
   92        1.079463   1.000000
   93        1.212720   1.000000
   94        1.490617   1.000000
   95        1.628162   1.000001
   96        1.748634   1.000030
   97        1.912280   1.001984
   98        1.971986   1.006188
   99        1.983556   1.007515
  100        2.075508   1.024952
  101        2.128561   1.034786
  102        2.373786   0.557283
  103        2.493909   0.112445
  104        2.680238  -0.029206
  105        2.719193  -0.020359
  106        2.872763  -0.001594
  107        2.900961  -0.000850
  108        2.940870  -0.000323
  109        2.991989  -0.000082
  110        3.051903  -0.000014
  111        3.138121  -0.000001
  112        3.155045  -0.000000
  113        3.197299  -0.000000
  114        3.277624  -0.000000
  115        3.385977  -0.000000
  116        3.481484  -0.000000
  117        3.539609  -0.000000
  118        3.577240  -0.000000
  119        3.663261  -0.000000
  120        3.712428  -0.000000
  121        3.749336  -0.000000
  122        3.820600  -0.000000
  123        3.897351  -0.000000
  124        4.006199  -0.000000
  125        4.047237  -0.000000
  126        4.128034  -0.000000
  127        4.209757  -0.000000
  128        4.237476  -0.000000
  129        4.309579  -0.000000
  130        4.449684  -0.000000
  131        4.533368  -0.000000
  132        4.616225  -0.000000

  0.3742002E-15  0.1111111E+00  0.1262379E-14  0.2469136E-01
    1      -11.741862   1.000000
    2      -11.167206   1.000000
    3      -10.348530   1.000000
    4       -9.019656   1.000000
    5       -8.939704   1.000000
    6       -8.895450   1.000000
    7       -8.685476   1.000000
    8       -8.561502   1.000000
    9       -8.373242   1.000000
   10       -8.283141   1.000000
   11       -8.256955   1.000000
   12       -8.212479   1.000000
   13       -8.090796   1.000000
   14       -8.042216   1.000000
   15       -7.489257   1.000000
   16       -7.400331   1.000000
   17       -7.233886   1.000000
   18       -7.205090   1.000000
   19       -7.117038   1.000000
   20       -6.941454   1.000000
   21       -6.764272   1.000000
   22       -6.484004   1.000000
   23       -6.432436   1.000000
   24       -6.285044   1.000000
   25       -6.230374   1.000000
   26       -6.123742   1.000000
   27       -6.057380   1.000000
   28       -5.966336   1.000000
   29       -5.604789   1.000000
   30       -5.499717   1.000000
   31       -4.929255   1.000000
   32       -4.877920   1.000000
   33       -4.828566   1.000000
   34       -4.664327   1.000000
   35       -4.468639   1.000000
   36       -4.352362   1.000000
   37       -4.188760   1.000000
   38       -3.884547   1.000000
   39       -3.472513   1.000000
   40       -3.430421   1.000000
   41       -3.233153   1.000000
   42       -3.199790   1.000000
   43       -3.069679   1.000000
   44       -2.942136   1.000000
   45       -2.901380   1.000000
   46       -2.873946   1.000000
   47       -2.747695   1.000000
   48       -2.645611   1.000000
   49       -2.506902   1.000000
   50       -2.460198   1.000000
   51       -2.322998   1.000000
   52       -2.220656   1.000000
   53       -2.180360   1.000000
   54       -2.099647   1.000000
   55       -2.091587   1.000000
   56       -2.074226   1.000000
   57       -1.988155   1.000000
   58       -1.957246   1.000000
   59       -1.928864   1.000000
   60       -1.774418   1.000000
   61       -1.655136   1.000000
   62       -1.624805   1.000000
   63       -1.538538   1.000000
   64       -1.478682   1.000000
   65       -1.418979   1.000000
   66       -1.358315   1.000000
   67       -1.282603   1.000000
   68       -1.112957   1.000000
   69       -1.077906   1.000000
   70       -0.999010   1.000000
   71       -0.979837   1.000000
   72       -0.914454   1.000000
   73       -0.820123   1.000000
   74       -0.658570   1.000000
   75       -0.510024   1.000000
   76       -0.480169   1.000000
   77       -0.414424   1.000000
   78       -0.248622   1.000000
   79       -0.209420   1.000000
   80       -0.039453   1.000000
   81        0.114641   1.000000
   82        0.204129   1.000000
   83        0.481692   1.000000
   84        0.616316   1.000000
   85        0.647643   1.000000
   86        0.813568   1.000000
   87        0.905948   1.000000
   88        1.093717   1.000000
   89        1.147734   1.000000
   90        1.169811   1.000000
   91        1.202893   1.000000
   92        1.246317   1.000000
   93        1.345033   1.000000
   94        1.402155   1.000000
   95        1.493662   1.000000
   96        1.635194   1.000001
   97        2.079584   1.025890
   98        2.153169   1.034978
   99        2.325707   0.747634
  100        2.427812   0.332649
  101        2.500393   0.096226
  102        2.558810  -0.003280
  103        2.719952  -0.020188
  104        2.813221  -0.005149
  105        2.980853  -0.000112
  106        3.158476  -0.000000
  107        3.175040  -0.000000
  108        3.268597  -0.000000
  109        3.297070  -0.000000
  110        3.342424  -0.000000
  111        3.362599  -0.000000
  112        3.380487  -0.000000
  113        3.450333  -0.000000
  114        3.484344  -0.000000
  115        3.572854  -0.000000
  116        3.589736  -0.000000
  117        3.617973  -0.000000
  118        3.638868  -0.000000
  119        3.681170  -0.000000
  120        3.698894  -0.000000
  121        3.774754  -0.000000
  122        3.824606  -0.000000
  123        3.856126  -0.000000
  124        3.872302  -0.000000
  125        3.942333  -0.000000
  126        3.961855  -0.000000
  127        3.985902  -0.000000
  128        4.113389  -0.000000
  129        4.207648  -0.000000
  130        4.402942  -0.000000
  131        4.423130  -0.000000
  132        4.576783  -0.000000

  0.1111111E+00  0.1111111E+00  0.1262379E-14  0.2469136E-01
    1      -11.627724   1.000000
    2      -11.063180   1.000000
    3      -10.269470   1.000000
    4       -8.997657   1.000000
    5       -8.977225   1.000000
    6       -8.945210   1.000000
    7       -8.836568   1.000000
    8       -8.836347   1.000000
    9       -8.747256   1.000000
   10       -8.566497   1.000000
   11       -8.520390   1.000000
   12       -8.265280   1.000000
   13       -8.077315   1.000000
   14       -7.681038   1.000000
   15       -7.649565   1.000000
   16       -7.213244   1.000000
   17       -7.204536   1.000000
   18       -7.062208   1.000000
   19       -6.957342   1.000000
   20       -6.940461   1.000000
   21       -6.459518   1.000000
   22       -6.455375   1.000000
   23       -6.398604   1.000000
   24       -6.171130   1.000000
   25       -6.133929   1.000000
   26       -6.077707   1.000000
   27       -5.807142   1.000000
   28       -5.716525   1.000000
   29       -5.500621   1.000000
   30       -5.397890   1.000000
   31       -5.081237   1.000000
   32       -4.981130   1.000000
   33       -4.462280   1.000000
   34       -4.409534   1.000000
   35       -4.256373   1.000000
   36       -4.110636   1.000000
   37       -3.957003   1.000000
   38       -3.827122   1.000000
   39       -3.628468   1.000000
   40       -3.561265   1.000000
   41       -3.427949   1.000000
   42       -3.305031   1.000000
   43       -3.120127   1.000000
   44       -3.061897   1.000000
   45       -2.951334   1.000000
   46       -2.858212   1.000000
   47       -2.735235   1.000000
   48       -2.651535   1.000000
   49       -2.545776   1.000000
   50       -2.505445   1.000000
   51       -2.365555   1.000000
   52       -2.310228   1.000000
   53       -2.143322   1.000000
   54       -2.137231   1.000000
   55       -2.094602   1.000000
   56       -2.064089   1.000000
   57       -2.031210   1.000000
   58       -2.003861   1.000000
   59       -1.874959   1.000000
   60       -1.842576   1.000000
   61       -1.702531   1.000000
   62       -1.680724   1.000000
   63       -1.636290   1.000000
   64       -1.528007   1.000000
   65       -1.508782   1.000000
   66       -1.422666   1.000000
   67       -1.390361   1.000000
   68       -1.228345   1.000000
   69       -1.201468   1.000000
   70       -1.094407   1.000000
   71       -0.984234   1.000000
   72       -0.953176   1.000000
   73       -0.936029   1.000000
   74       -0.737981   1.000000
   75       -0.734139   1.000000
   76       -0.493999   1.000000
   77       -0.449525   1.000000
   78       -0.272463   1.000000
   79       -0.242108   1.000000
   80       -0.135375   1.000000
   81        0.053072   1.000000
   82        0.165801   1.000000
   83        0.173466   1.000000
   84        0.394148   1.000000
   85        0.638734   1.000000
   86        0.700800   1.000000
   87        0.923254   1.000000
   88        1.013920   1.000000
   89        1.058207   1.000000
   90        1.060454   1.000000
   91        1.127674   1.000000
   92        1.205448   1.000000
   93        1.328682   1.000000
   94        1.330052   1.000000
   95        1.511200   1.000000
   96        1.705562   1.000008
   97        2.166658   1.032802
   98        2.184867   1.026372