   23   23   60    1
  0.8498952E+01  0.6078000E-09  0.6078000E-09  0.6110000E-09  0.5000000E-15
   1.0000000000000000E-004
  CAR 
 Name                                    
     87    365     56

  0.3742002E-15  0.3742002E-15  0.3742002E-15  0.1371742E-02
    1       -6.118227   1.000000
    2       -3.830109   1.000000
    3       -3.054140   1.000000
    4       -2.529661   1.000000
    5       -2.257946   1.000000
    6       -2.237966   1.000000
    7       -2.196624   1.000000
    8       -1.900398   1.000000
    9       -1.879755   1.000000
   10       -1.709700   1.000000
   11       -1.604104   1.000000
   12       -0.258976   1.000000
   13        0.023518   1.000000
   14        0.270035   1.000000
   15        0.355245   1.000000
   16        1.970432   1.000000
   17        2.284012   1.000000
   18        2.449378   1.000000
   19        2.769961   1.000000
   20        2.889505   1.000000
   21        3.179935   1.000000
   22        3.353871   1.000000
   23        3.376127   1.000000
   24        3.862561   1.000000
   25        4.142513   1.000000
   26        4.162417   1.000000
   27        4.179020   1.000000
   28        4.233643   1.000000
   29        4.267028   1.000000
   30        4.337724   1.000000
   31        4.592711   1.000000
   32        4.619843   1.000000
   33        4.627647   1.000000
   34        4.806320   1.000000
   35        4.910683   1.000000
   36        5.926400   1.000000
   37        5.980799   1.000000
   38        6.535098   1.000000
   39        6.654394   1.000000
   40        6.920024   1.000000
   41        7.051033   1.000000
   42        7.259369   1.000000
   43        7.564510   1.000000
   44        7.942947   1.000097
   45        8.156223   1.004082
   46        8.271246   0.266332
   47        9.039767  -0.000000
   48        9.262334  -0.000000
   49        9.329291  -0.000000
   50        9.413496  -0.000000
   51        9.477552  -0.000000
   52        9.672989  -0.000000
   53        9.754655  -0.000000
   54        9.759087  -0.000000
   55        9.822131  -0.000000
   56       10.068548  -0.000000

  0.1111111E+00  0.3745146E-15  0.3742002E-15  0.2743484E-02
    1       -6.059278   1.000000
    2       -3.811317   1.000000
    3       -3.055233   1.000000
    4       -2.782191   1.000000
    5       -2.521365   1.000000
    6       -2.395735   1.000000
    7       -2.271354   1.000000
    8       -2.220698   1.000000
    9       -1.514782   1.000000
   10       -1.408536   1.000000
   11       -1.074656   1.000000
   12       -0.176018   1.000000
   13        0.068925   1.000000
   14        0.266527   1.000000
   15        0.439232   1.000000
   16        1.998325   1.000000
   17        2.290578   1.000000
   18        2.457611   1.000000
   19        2.795595   1.000000
   20        2.888604   1.000000
   21        3.014199   1.000000
   22        3.212951   1.000000
   23        3.405157   1.000000
   24        3.531849   1.000000
   25        3.971034   1.000000
   26        4.175556   1.000000
   27        4.192844   1.000000
   28        4.249542   1.000000
   29        4.250708   1.000000
   30        4.369282   1.000000
   31        4.502687   1.000000
   32        4.569191   1.000000
   33        4.677579   1.000000
   34        4.919952   1.000000
   35        5.244059   1.000000
   36        5.784100   1.000000
   37        5.979842   1.000000
   38        6.070579   1.000000
   39        6.076103   1.000000
   40        7.190146   1.000000
   41        7.486590   1.000000
   42        7.586211   1.000000
   43        7.631859   1.000000
   44        7.796408   1.000000
   45        8.208510   0.768934
   46        8.277439   0.222272
   47        9.050816  -0.000000
   48        9.233140  -0.000000
   49        9.289663  -0.000000
   50        9.378903  -0.000000
   51        9.473098  -0.000000
   52        9.661722  -0.000000
   53        9.712044  -0.000000
   54        9.731729  -0.000000
   55        9.774911  -0.000000
   56        9.921151  -0.000000

  0.2222222E+00  0.3685699E-15  0.3742002E-15  0.2743484E-02
    1       -5.884313   1.000000
    2       -3.754158   1.000000
    3       -3.469634   1.000000
    4       -3.078440   1.000000
    5       -2.616035   1.000000
    6       -2.538142   1.000000
    7       -2.492379   1.000000
    8       -2.378947   1.000000
    9       -1.012347   1.000000
   10       -0.955209   1.000000
   11       -0.291590   1.000000
   12        0.031104   1.000000
   13        0.075040   1.000000
   14        0.234002   1.000000
   15        0.839705   1.000000
   16        2.068301   1.000000
   17        2.304287   1.000000
   18        2.381002   1.000000
   19        2.530566   1.000000
   20        2.669566   1.000000
   21        2.882881   1.000000
   22        2.943682   1.000000
   23        3.202043   1.000000
   24        3.555051   1.000000
   25        3.584939   1.000000
   26        4.150421   1.000000
   27        4.183652   1.000000
   28        4.236710   1.000000
   29        4.277160   1.000000
   30        4.307697   1.000000
   31        4.470956   1.000000
   32        4.562312   1.000000
   33        4.691934   1.000000
   34        5.086786   1.000000
   35        5.088890   1.000000
   36        5.454497   1.000000
   37        5.562890   1.000000
   38        5.834422   1.000000
   39        6.403815   1.000000
   40        6.973444   1.000000
   41        7.409767   1.000000
   42        7.693785   1.000000
   43        7.877532   1.000002
   44        8.202994   0.806110
   45        8.410936  -0.019163
   46        8.572834  -0.000015
   47        9.046355  -0.000000
   48        9.083549  -0.000000
   49        9.114369  -0.000000
   50        9.205749  -0.000000
   51        9.462069  -0.000000
   52        9.582264  -0.000000
   53        9.630882  -0.000000
   54        9.673434  -0.000000
   55        9.693285  -0.000000
   56        9.802610  -0.000000

  0.3333333E+00  0.4145315E-15  0.3742002E-15  0.2743484E-02
    1       -5.599683   1.000000
    2       -4.110765   1.000000
    3       -3.658005   1.000000
    4       -3.170728   1.000000
    5       -2.778329   1.000000
    6       -2.670010   1.000000
    7       -2.613637   1.000000
    8       -2.371333   1.000000
    9       -0.474020   1.000000
   10       -0.436072   1.000000
   11       -0.058715   1.000000
   12        0.186802   1.000000
   13        0.379695   1.000000
   14        0.598906   1.000000
   15        1.451894   1.000000
   16        1.890159   1.000000
   17        1.976112   1.000000
   18        2.125395   1.000000
   19        2.148481   1.000000
   20        2.320517   1.000000
   21        2.839924   1.000000
   22        3.053650   1.000000
   23        3.060104   1.000000
   24        3.215841   1.000000
   25        3.759423   1.000000
   26        3.968278   1.000000
   27        4.034773   1.000000
   28        4.164618   1.000000
   29        4.167637   1.000000
   30        4.285816   1.000000
   31        4.395758   1.000000
   32        4.569181   1.000000
   33        4.636407   1.000000
   34        4.826739   1.000000
   35        5.050897   1.000000
   36        5.236751   1.000000
   37        5.243386   1.000000
   38        6.376645   1.000000
   39        6.477932   1.000000
   40        6.978271   1.000000
   41        7.022882   1.000000
   42        7.831205   1.000000
   43        7.901183   1.000008
   44        8.225246   0.642335
   45        8.641484  -0.000000
   46        8.683822  -0.000000
   47        9.020189  -0.000000
   48        9.042586  -0.000000
   49        9.117758  -0.000000
   50        9.131159  -0.000000
   51        9.396207  -0.000000
   52        9.474388  -0.000000
   53        9.596899  -0.000000
   54        9.609725  -0.000000
   55        9.678554  -0.000000
   56        9.820621  -0.000000

  0.4444444E+00  0.3784822E-15  0.3742002E-15  0.2743484E-02
    1       -5.227985   1.000000
    2       -4.663378   1.000000
    3       -3.532913   1.000000
    4       -3.318700   1.000000
    5       -2.861790   1.000000
    6       -2.758315   1.000000
    7       -2.643539   1.000000
    8       -2.344536   1.000000
    9       -0.121964   1.000000
   10        0.000573   1.000000
   11        0.020387   1.000000
   12        0.153848   1.000000
   13        0.877007   1.000000
   14        1.288154   1.000000
   15        1.391643   1.000000
   16        1.481650   1.000000
   17        1.610952   1.000000
   18        2.026097   1.000000
   19        2.223242   1.000000
   20        2.226238   1.000000
   21        2.440253   1.000000
   22        3.036606   1.000000
   23        3.157941   1.000000
   24        3.273685   1.000000
   25        3.305138   1.000000
   26        3.838618   1.000000
   27        3.945335   1.000000
   28        4.074760   1.000000
   29        4.094362   1.000000
   30        4.293901   1.000000
   31        4.479282   1.000000
   32        4.489465   1.000000
   33        4.673411   1.000000
   34        4.676717   1.000000
   35        5.015827   1.000000
   36        5.200524   1.000000
   37        5.304305   1.000000
   38        6.222788   1.000000
   39        6.683906   1.000000
   40        6.824028   1.000000
   41        7.389261   1.000000
   42        7.846423   1.000000
   43        7.965253   1.000317
   44        8.214196   0.728034
   45        8.230696   0.597798
   46        8.243203   0.492688
   47        8.964726  -0.000000
   48        9.131602  -0.000000
   49        9.330257  -0.000000
   50        9.367357  -0.000000
   51        9.425729  -0.000000
   52        9.494655  -0.000000
   53        9.521381  -0.000000
   54        9.584136  -0.000000
   55        9.628530  -0.000000
   56        9.712264  -0.000000

  0.3742002E-15  0.1111111E+00  0.3742002E-15  0.2743484E-02
    1       -6.059277   1.000000
    2       -3.811315   1.000000
    3       -3.055232   1.000000
    4       -2.782244   1.000000
    5       -2.521339   1.000000
    6       -2.395668   1.000000
    7       -2.271399   1.000000
    8       -2.220674   1.000000
    9       -1.514783   1.000000
   10       -1.408655   1.000000
   11       -1.074567   1.000000
   12       -0.176019   1.000000
   13        0.069004   1.000000
   14        0.266520   1.000000
   15        0.439191   1.000000
   16        1.998321   1.000000
   17        2.290576   1.000000
   18        2.457601   1.000000
   19        2.795583   1.000000
   20        2.888593   1.000000
   21        3.014192   1.000000
   22        3.212980   1.000000
   23        3.405158   1.000000
   24        3.531792   1.000000
   25        3.970985   1.000000
   26        4.175570   1.000000
   27        4.192880   1.000000
   28        4.249504   1.000000
   29        4.250738   1.000000
   30        4.369385   1.000000
   31        4.502772   1.000000
   32        4.569167   1.000000
   33        4.677507   1.000000
   34        4.919924   1.000000
   35        5.244044   1.000000
   36        5.784141   1.000000
   37        5.979897   1.000000
   38        6.070450   1.000000
   39        6.076110   1.000000
   40        7.190138   1.000000
   41        7.486573   1.000000
   42        7.586206   1.000000
   43        7.631928   1.000000
   44        7.796425   1.000000
   45        8.208467   0.769230
   46        8.277479   0.221999
   47        9.050816  -0.000000
   48        9.233143  -0.000000
   49        9.289679  -0.000000
   50        9.378915  -0.000000
   51        9.473097  -0.000000
   52        9.661691  -0.000000
   53        9.712036  -0.000000
   54        9.731718  -0.000000
   55        9.774913  -0.000000
   56        9.921146  -0.000000

  0.1111111E+00  0.1111111E+00  0.3742002E-15  0.2743484E-02
    1       -5.941154   1.000000
    2       -3.769108   1.000000
    3       -3.182006   1.000000
    4       -3.046897   1.000000
    5       -2.937418   1.000000
    6       -2.499667   1.000000
    7       -2.416215   1.000000
    8       -1.886609   1.000000
    9       -1.688761   1.000000
   10       -0.674734   1.000000
   11       -0.643722   1.000000
   12       -0.065960   1.000000
   13       -0.006302   1.000000
   14        0.396181   1.000000
   15        0.699417   1.000000
   16        1.997730   1.000000
   17        2.259892   1.000000
   18        2.375119   1.000000
   19        2.522854   1.000000
   20        2.920446   1.000000
   21        3.007375   1.000000
   22        3.089704   1.000000
   23        3.320818   1.000000
   24        3.530190   1.000000
   25        3.762616   1.000000
   26        3.815745   1.000000
   27        4.209779   1.000000
   28        4.223950   1.000000
   29        4.267772   1.000000
   30        4.419387   1.000000
   31        4.470466   1.000000
   32        4.607889   1.000000
   33        4.689038   1.000000
   34        5.257688   1.000000
   35        5.333770   1.000000
   36        5.374008   1.000000
   37        5.463051   1.000000
   38        5.667505   1.000000
   39        6.388707   1.000000
   40        7.016093   1.000000
   41        7.512169   1.000000
   42        7.684882   1.000000
   43        7.916357   1.000020
   44        8.068254   1.016804
   45        8.180084   0.929878
   46        8.560952  -0.000032
   47        9.070778  -0.000000
   48        9.170551  -0.000000
   49        9.211549  -0.000000
   50        9.224805  -0.000000
   51        9.466763  -0.000000
   52        9.543772  -0.000000
   53        9.626991  -0.000000
   54        9.689600  -0.000000
   55        9.702357  -0.000000
   56        9.840445  -0.000000

  0.2222222E+00  0.1111111E+00  0.3742002E-15  0.2743484E-02
    1       -5.710243   1.000000
    2       -3.782076   1.000000
    3       -3.691605   1.000000
    4       -3.236371   1.000000
    5       -3.069347   1.000000
    6       -2.724896   1.000000
    7       -2.293119   1.000000
    8       -1.996069   1.000000
    9       -1.233304   1.000000
   10       -0.284183   1.000000
   11       -0.180865   1.000000
   12        0.121978   1.000000
   13        0.340832   1.000000
   14        0.495846   1.000000
   15        1.237473   1.000000
   16        1.788024   1.000000
   17        2.038482   1.000000
   18        2.249492   1.000000
   19        2.335968   1.000000
   20        2.648203   1.000000
   21        2.824148   1.000000
   22        3.068866   1.000000
   23        3.269081   1.000000
   24        3.295790   1.000000
   25        3.732588   1.000000
   26        3.757741   1.000000
   27        4.082398   1.000000
   28        4.105977   1.000000
   29        4.178873   1.000000
   30        4.304643   1.000000
   31        4.464811   1.000000
   32        4.675315   1.000000
   33        4.807141   1.000000
   34        4.852362   1.000000
   35        5.098880   1.000000
   36        5.204769   1.000000
   37        5.341898   1.000000
   38        5.860536   1.000000
   39        6.693957   1.000000
   40        6.879739   1.000000
   41        7.114205   1.000000
   42        7.819861   1.000000
   43        7.992327   1.001157
   44        8.243700   0.488487
   45        8.548811  -0.000065
   46        8.846117  -0.000000
   47        8.914250  -0.000000
   48        9.080033  -0.000000
   49        9.104208  -0.000000
   50        9.181298  -0.000000
   51        9.367039  -0.000000
   52        9.456008  -0.000000
   53        9.492960  -0.000000
   54        9.615294  -0.000000
   55        9.641188  -0.000000
   56        9.951068  -0.000000

  0.3333333E+00  0.1111111E+00  0.3742002E-15  0.2743484E-02
    1       -5.376818   1.000000
    2       -4.375321   1.000000
    3       -3.582629   1.000000
    4       -3.383752   1.000000
    5       -3.201868   1.000000
    6       -2.813490   1.000000
    7       -2.185720   1.000000
    8       -2.118001   1.000000
    9       -0.657582   1.000000
   10       -0.455578   1.000000
   11        0.288016   1.000000
   12        0.547759   1.000000
   13        0.692034   1.000000
   14        1.011460   1.000000
   15        1.130501   1.000000
   16        1.855105   1.000000
   17        1.920277   1.000000
   18        2.088097   1.000000
   19        2.186041   1.000000
   20        2.270418   1.000000
   21        2.520100   1.000000
   22        2.760090   1.000000
   23        3.179062   1.000000
   24        3.481558   1.000000
   25        3.510593   1.000000
   26        3.785943   1.000000
   27        3.962164   1.000000
   28        3.985954   1.000000
   29        4.065863   1.000000
   30        4.130065   1.000000
   31        4.432845   1.000000
   32        4.519590   1.000000
   33        4.764675   1.000000
   34        4.857543   1.000000
   35        5.019394   1.000000
   36        5.111518   1.000000
   37        5.352426   1.000000
   38        6.250306   1.000000
   39        6.536685   1.000000
   40        6.741080   1.000000
   41        7.319493   1.000000
   42        7.878964   1.000002
   43        7.970752   1.000418
   44        8.288933   0.149177
   45        8.454844  -0.005228
   46        8.483730  -0.001686
   47        8.953685  -0.000000
   48        9.004318  -0.000000
   49        9.133663  -0.000000
   50        9.261952  -0.000000
   51        9.402021  -0.000000
   52        9.470630  -0.000000
   53        9.497579  -0.000000
   54        9.608245  -0.000000
   55        9.612898  -0.000000
   56        9.719238  -0.000000

  0.4444444E+00  0.1111111E+00  0.3742002E-15  0.2743484E-02
    1       -5.053754   1.000000
    2       -4.787093   1.000000
    3       -3.489501   1.000000
    4       -3.430645   1.000000
    5       -3.345196   1.000000
    6       -2.803806   1.000000
    7       -2.162769   1.000000
    8       -2.139288   1.000000
    9       -0.507145   1.000000
   10       -0.291017   1.000000
   11        0.524687   1.000000
   12        0.566559   1.000000
   13        0.732511   1.000000
   14        1.089802   1.000000
   15        1.412149   1.000000
   16        1.708894   1.000000
   17        1.823314   1.000000
   18        2.009108   1.000000
   19        2.052660   1.000000
   20        2.304598   1.000000
   21        2.603207   1.000000
   22        2.726127   1.000000
   23        2.781103   1.000000
   24        3.392482   1.000000
   25        3.465929   1.000000
   26        3.716446   1.000000
   27        3.801313   1.000000
   28        4.034626   1.000000
   29        4.076753   1.000000
   30        4.181213   1.000000
   31        4.402150   1.000000
   32        4.452726   1.000000
   33        4.558980   1.000000
   34        4.929687   1.000000
   35        5.154944   1.000000
   36        5.250491   1.000000
   37        5.353936   1.000000
   38        6.163298   1.000000
   39        6.560269   1.000000
   40        6.716461   1.000000
   41        7.684102   1.000000
   42        7.803582   1.000000
   43        8.060253   1.013642
   44        8.164183   0.985178
   45        8.215336   0.719539
   46        8.302295   0.080182
   47        8.891439  -0.000000
   48        9.145424  -0.000000
   49        9.219723  -0.000000
   50        9.221334  -0.000000
   51        9.359376  -0.000000
   52        9.390782  -0.000000
   53        9.486414  -0.000000
   54        9.531841  -0.000000
   55        9.579267  -0.000000
   56        9.694735  -0.000000

 -0.4444444E+00  0.1111111E+00  0.3742002E-15  0.2743484E-02
    1       -5.383671   1.000000
    2       -4.368149   1.000000
    3       -3.595090   1.000000
    4       -3.381225   1.000000
    5       -3.253680   1.000000
    6       -2.768640   1.000000
    7       -2.159167   1.000000
    8       -2.127107   1.000000
    9       -0.637407   1.000000
   10       -0.420798   1.000000
   11        0.258719   1.000000
   12        0.558046   1.000000
   13        0.665936   1.000000
   14        0.907929   1.000000
   15        1.281987   1.000000
   16        1.674623   1.000000
   17        1.855173   1.000000
   18        2.137836   1.000000
   19        2.282490   1.000000
   20        2.376462   1.000000
   21        2.555150   1.000000
   22        2.758928   1.000000
   23        3.049412   1.000000
   24        3.294580   1.000000
   25        3.541851   1.000000
   26        3.831713   1.000000
   27        3.910823   1.000000
   28        3.948777   1.000000
   29        4.059631   1.000000
   30        4.115353   1.000000
   31        4.423714   1.000000
   32        4.443601   1.000000
   33        4.791535   1.000000
   34        4.894322   1.000000
   35        5.105090   1.000000
   36        5.308642   1.000000
   37        5.394121   1.000000
   38        6.245957   1.000000
   39        6.658461   1.000000
   40        6.713855   1.000000
   41        7.298629   1.000000
   42        7.807000   1.000000
   43        7.960667   1.000251
   44        8.299150   0.094811
   45        8.462524  -0.003948
   46        8.500111  -0.000813
   47        8.918305  -0.000000
   48        9.054148  -0.000000
   49        9.142818  -0.000000
   50        9.298342  -0.000000
   51        9.387851  -0.000000
   52        9.468312  -0.000000
   53        9.495369  -0.000000
   54        9.588764  -0.000000
   55        9.667124  -0.000000
   56        9.679350  -0.000000

 -0.3333333E+00  0.1111111E+00  0.3742002E-15  0.2743484E-02
    1       -5.716031   1.000000
    2       -3.775761   1.000000
    3       -3.711006   1.000000
    4       -3.231743   1.000000
    5       -3.137846   1.000000
    6       -2.714799   1.000000
    7       -2.188479   1.000000
    8       -2.015921   1.000000
    9       -1.201901   1.000000
   10       -0.244860   1.000000
   11       -0.222970   1.000000
   12        0.106103   1.000000
   13        0.325952   1.000000
   14        0.507060   1.000000
   15        1.075969   1.000000
   16        1.909846   1.000000
   17        2.213595   1.000000
   18        2.340720   1.000000
   19        2.389010   1.000000
   20        2.605190   1.000000
   21        2.699616   1.000000
   22        2.804101   1.000000
   23        3.194650   1.000000
   24        3.257631   1.000000
   25        3.624467   1.000000
   26        3.748040   1.000000
   27        4.090668   1.000000
   28        4.133488   1.000000
   29        4.190607   1.000000
   30        4.265979   1.000000
   31        4.480936   1.000000
   32        4.588358   1.000000
   33        4.751468   1.000000
   34        4.949066   1.000000
   35        5.166422   1.000000
   36        5.345958   1.000000
   37        5.475160   1.000000
   38        6.194968   1.000000
   39        6.589632   1.000000
   40        6.882569   1.000000
   41        7.116537   1.000000
   42        7.774977   1.000000
   43        7.864864   1.000001
   44        8.261483   0.341238
   45        8.609997  -0.000001
   46        8.872787  -0.000000
   47        8.904186  -0.000000
   48        9.077909  -0.000000
   49        9.116792  -0.000000
   50        9.129601  -0.000000
   51        9.386236  -0.000000
   52        9.440451  -0.000000
   53        9.516503  -0.000000
   54        9.615785  -0.000000
   55        9.672142  -0.000000
   56       10.023609  -0.000000

 -0.2222222E+00  0.1111111E+00  0.3742002E-15  0.2743484E-02
    1       -5.944999   1.000000
    2       -3.785066   1.000000
    3       -3.176327   1.000000
    4       -3.080032   1.000000
    5       -2.935117   1.000000
    6       -2.652117   1.000000
    7       -2.172540   1.000000
    8       -1.918578   1.000000
    9       -1.641361   1.000000
   10       -0.764934   1.000000
   11       -0.594183   1.000000
   12       -0.042544   1.000000
   13       -0.020620   1.000000
   14        0.332718   1.000000
   15        0.667287   1.000000
   16        2.131534   1.000000
   17        2.382901   1.000000
   18        2.527847   1.000000
   19        2.648064   1.000000
   20        2.687127   1.000000
   21        2.742839   1.000000
   22        3.014769   1.000000
   23        3.289135   1.000000
   24        3.454179   1.000000
   25        3.566633   1.000000
   26        3.893913   1.000000
   27        4.109819   1.000000
   28        4.203760   1.000000
   29        4.261441   1.000000
   30        4.397341   1.000000
   31        4.571842   1.000000
   32        4.589025   1.000000
   33        4.782891   1.000000
   34        5.252801   1.000000
   35        5.317129   1.000000
   36        5.536538   1.000000
   37        5.734220   1.000000
   38        5.805301   1.000000
   39        6.249898   1.000000
   40        7.121221   1.000000
   41        7.556104   1.000000
   42        7.570366   1.000000
   43        7.894532   1.000005
   44        8.041436   1.007764
   45        8.152187   1.011659
   46        8.544332  -0.000084
   47        9.071332  -0.000000
   48        9.134819  -0.000000
   49        9.191117  -0.000000
   50        9.241994  -0.000000
   51        9.454297  -0.000000
   52        9.526377  -0.000000
   53        9.614802  -0.000000
   54        9.704359  -0.000000
   55        9.810809  -0.000000
   56        9.932039  -0.000000

 -0.1111111E+00  0.1111111E+00  0.3742002E-15  0.2743484E-02
    1       -6.060625   1.000000
    2       -3.817370   1.000000
    3       -3.063089   1.000000
    4       -2.769462   1.000000
    5       -2.594700   1.000000
    6       -2.457265   1.000000
    7       -2.160818   1.000000
    8       -2.143845   1.000000
    9       -1.537923   1.000000
   10       -1.425482   1.000000
   11       -1.068135   1.000000
   12       -0.181532   1.000000
   13        0.097894   1.000000
   14        0.156458   1.000000
   15        0.491193   1.000000
   16        2.047481   1.000000
   17        2.338182   1.000000
   18        2.496112   1.000000
   19        2.705861   1.000000
   20        2.809993   1.000000
   21        3.182398   1.000000
   22        3.182786   1.000000
   23        3.378720   1.000000
   24        3.555633   1.000000
   25        3.617109   1.000000
   26        4.127614   1.000000
   27        4.183683   1.000000
   28        4.243660   1.000000
   29        4.288730   1.000000
   30        4.335328   1.000000
   31        4.602688   1.000000
   32        4.622972   1.000000
   33        4.672124   1.000000
   34        5.097707   1.000000
   35        5.303096   1.000000
   36        5.770632   1.000000
   37        6.008260   1.000000
   38        6.048928   1.000000
   39        6.055814   1.000000
   40        7.307628   1.000000
   41        7.469176   1.000000
   42        7.561892   1.000000
   43        7.567883   1.000000
   44        7.859880   1.000000
   45        8.085796   1.024666
   46        8.319912   0.016424
   47        9.051707  -0.000000
   48        9.245342  -0.000000
   49        9.280646  -0.000000
   50        9.338000  -0.000000
   51        9.469460  -0.000000
   52        9.673048  -0.000000
   53        9.696103  -0.000000
   54        9.719198  -0.000000
   55        9.765915  -0.000000
   56       10.053259  -0.000000

  0.3742002E-15  0.2222222E+00  0.3742002E-15  0.2743484E-02
    1       -5.884308   1.000000
    2       -3.754151   1.000000
    3       -3.469663   1.000000
    4       -3.078434   1.000000
    5       -2.616016   1.000000
    6       -2.538018   1.000000
    7       -2.492369   1.000000
    8       -2.379134   1.000000
    9       -1.012319   1.000000
   10       -0.955261   1.000000
   11       -0.291523   1.000000
   12        0.031235   1.000000
   13        0.075027   1.000000
   14        0.234035   1.000000
   15        0.839648   1.000000
   16        2.068283   1.000000
   17        2.304275   1.000000
   18        2.380945   1.000000
   19        2.530569   1.000000
   20        2.669546   1.000000
   21        2.882849   1.000000
   22        2.943684   1.000000
   23        3.201983   1.000000
   24        3.555056   1.000000
   25        3.584914   1.000000
   26        4.150366   1.000000
   27        4.183712   1.000000
   28        4.236693   1.000000
   29        4.277249   1.000000
   30        4.307810   1.000000
   31        4.470856   1.000000
   32        4.562275   1.000000
   33        4.692106   1.000000
   34        5.086792   1.000000
   35        5.088873   1.000000
   36        5.454408   1.000000
   37        5.562910   1.000000
   38        5.834358   1.000000
   39        6.403818   1.000000
   40        6.973420   1.000000
   41        7.409828   1.000000
   42        7.693776   1.000000
   43        7.877476   1.000002
   44        8.202995   0.806102
   45        8.411075  -0.019102
   46        8.572815  -0.000015
   47        9.046369  -0.000000
   48        9.083558  -0.000000
   49        9.114410  -0.000000
   50        9.205785  -0.000000
   51        9.462057  -0.000000
   52        9.582243  -0.000000
   53        9.630779  -0.000000
   54        9.673407  -0.000000
   55        9.693294  -0.000000
   56        9.802597  -0.000000

  0.1111111E+00  0.2222222E+00  0.3742002E-15  0.2743484E-02
    1       -5.710239   1.000000
    2       -3.782090   1.000000
    3       -3.691600   1.000000
    4       -3.236365   1.000000
    5       -3.069333   1.000000
    6       -2.724896   1.000000
    7       -2.293171   1.000000
    8       -1.996084   1.000000
    9       -1.233272   1.000000
   10       -0.284147   1.000000
   11       -0.180883   1.000000
   12        0.122049   1.000000
   13        0.340797   1.000000
   14        0.495929   1.000000
   15        1.237421   1.000000
   16        1.787988   1.000000
   17        2.038472   1.000000
   18        2.249482   1.000000
   19        2.335994   1.000000
   20        2.648174   1.000000
   21        2.824098   1.000000
   22        3.068850   1.000000
   23        3.269096   1.000000
   24        3.295724   1.000000
   25        3.732592   1.000000
   26        3.757745   1.000000
   27        4.082446   1.000000
   28        4.106083   1.000000
   29        4.178873   1.000000
   30        4.304552   1.000000
   31        4.464757   1.000000
   32        4.675434   1.000000
   33        4.807158   1.000000