   73   73   85    1
  0.2115814E+02  0.1036705E-08  0.2428040E-08  0.6136055E-09  0.5000000E-15
   1.0000000000000000E-004
  CAR 
 Name                                    
    277     68    176

  0.3742002E-15  0.3742002E-15  0.3742002E-15  0.7407407E-02
    1      -14.123238   1.000000
    2      -12.945278   1.000000
    3      -12.939148   1.000000
    4      -12.895118   1.000000
    5      -11.992355   1.000000
    6      -11.790500   1.000000
    7      -11.769617   1.000000
    8      -11.574989   1.000000
    9      -11.570187   1.000000
   10      -11.373130   1.000000
   11      -11.311080   1.000000
   12      -11.090076   1.000000
   13      -11.075016   1.000000
   14      -10.598853   1.000000
   15      -10.539398   1.000000
   16      -10.336878   1.000000
   17      -10.271624   1.000000
   18      -10.187558   1.000000
   19       -9.770971   1.000000
   20       -9.703375   1.000000
   21       -9.630726   1.000000
   22       -9.623461   1.000000
   23       -9.463740   1.000000
   24       -9.407429   1.000000
   25       -8.964136   1.000000
   26       -8.919870   1.000000
   27       -8.667682   1.000000
   28       -8.545217   1.000000
   29       -8.312920   1.000000
   30       -8.272529   1.000000
   31       -8.244982   1.000000
   32       -7.899206   1.000000
   33       -7.848037   1.000000
   34       -7.420281   1.000000
   35       -7.323058   1.000000
   36       -7.258131   1.000000
   37       -7.141726   1.000000
   38       -6.990327   1.000000
   39       -6.892623   1.000000
   40       -6.834832   1.000000
   41       -6.828637   1.000000
   42       -6.812502   1.000000
   43       -6.671220   1.000000
   44       -6.531048   1.000000
   45       -6.432259   1.000000
   46       -6.383189   1.000000
   47       -6.286363   1.000000
   48       -6.243487   1.000000
   49       -6.232186   1.000000
   50       -5.979887   1.000000
   51       -5.919476   1.000000
   52       -5.780575   1.000000
   53       -5.767730   1.000000
   54       -5.756327   1.000000
   55       -5.682733   1.000000
   56       -5.602582   1.000000
   57       -5.535012   1.000000
   58       -5.493131   1.000000
   59       -5.340206   1.000000
   60       -5.322363   1.000000
   61       -5.202104   1.000000
   62       -4.846996   1.000000
   63       -4.830146   1.000000
   64       -4.774577   1.000000
   65       -4.747728   1.000000
   66       -4.674143   1.000000
   67       -4.662233   1.000000
   68       -4.451849   1.000000
   69       -4.262240   1.000000
   70       -4.212693   1.000000
   71       -4.171272   1.000000
   72       -4.163093   1.000000
   73       -4.128337   1.000000
   74       -4.069865   1.000000
   75       -4.067122   1.000000
   76       -4.037736   1.000000
   77       -4.028681   1.000000
   78       -3.953911   1.000000
   79       -3.902087   1.000000
   80       -3.733702   1.000000
   81       -3.721266   1.000000
   82       -3.713354   1.000000
   83       -3.698402   1.000000
   84       -3.684800   1.000000
   85       -3.636598   1.000000
   86       -3.628951   1.000000
   87       -3.623704   1.000000
   88       -3.616673   1.000000
   89       -3.581909   1.000000
   90       -3.538718   1.000000
   91       -3.476555   1.000000
   92       -3.381129   1.000000
   93       -3.086830   1.000000
   94       -3.055956   1.000000
   95       -3.046455   1.000000
   96       -2.941318   1.000000
   97       -2.910740   1.000000
   98       -2.847736   1.000000
   99       -2.711591   1.000000
  100       -2.558980   1.000000
  101       -2.444392   1.000000
  102       -2.427591   1.000000
  103       -2.423473   1.000000
  104       -2.374130   1.000000
  105       -2.240831   1.000000
  106       -2.179083   1.000000
  107       -2.154416   1.000000
  108       -2.127569   1.000000
  109       -2.068121   1.000000
  110       -2.041686   1.000000
  111       -1.969048   1.000000
  112       -1.893546   1.000000
  113       -1.847847   1.000000
  114       -1.761251   1.000000
  115       -1.724176   1.000000
  116       -1.688374   1.000000
  117       -1.685794   1.000000
  118       -1.670768   1.000000
  119       -1.552135   1.000000
  120       -1.479964   1.000000
  121       -1.297736   1.000000
  122       -1.085952   1.000000
  123       -0.952617   1.000000
  124       -0.926840   1.000000
  125       -0.817389   1.000000
  126       -0.725777   1.000000
  127       -0.568922   1.000000
  128       -0.552589   1.000000
  129       -0.470758   1.000000
  130       -0.446550   1.000000
  131       -0.186877   1.000000
  132       -0.175790   1.000000
  133       -0.031168   1.000893
  134        0.128752   1.020227
  135        0.155713   0.955825
  136        0.170989   0.889137
  137        0.242124   0.353961
  138        0.296386   0.033950
  139        0.341267  -0.034902
  140        0.345772  -0.035432
  141        0.423424  -0.008295
  142        0.473209  -0.001230
  143        0.476747  -0.001050
  144        0.493900  -0.000468
  145        0.500519  -0.000336
  146        0.538427  -0.000042
  147        0.553416  -0.000017
  148        0.701349  -0.000000
  149        0.719920  -0.000000
  150        0.723888  -0.000000
  151        0.928995  -0.000000
  152        0.945175  -0.000000
  153        0.985730  -0.000000
  154        1.043142  -0.000000
  155        1.068081  -0.000000
  156        1.096530  -0.000000
  157        1.123904  -0.000000
  158        1.208318  -0.000000
  159        1.236814  -0.000000
  160        1.245659  -0.000000
  161        1.267225  -0.000000
  162        1.280328  -0.000000
  163        1.295687  -0.000000
  164        1.300358  -0.000000
  165        1.428704  -0.000000
  166        1.501287  -0.000000
  167        1.507142  -0.000000
  168        1.514349  -0.000000
  169        1.545318  -0.000000
  170        1.547990  -0.000000
  171        1.557901  -0.000000
  172        1.585882  -0.000000
  173        1.632821  -0.000000
  174        1.650113  -0.000000
  175        1.663988  -0.000000
  176        1.679475  -0.000000

  0.2000000E+00  0.3742002E-15  0.3742002E-15  0.1481481E-01
    1      -14.073997   1.000000
    2      -13.355335   1.000000
    3      -12.850741   1.000000
    4      -12.452477   1.000000
    5      -12.172927   1.000000
    6      -11.976152   1.000000
    7      -11.726934   1.000000
    8      -11.389005   1.000000
    9      -11.364260   1.000000
   10      -11.318333   1.000000
   11      -11.264757   1.000000
   12      -11.177786   1.000000
   13      -10.956681   1.000000
   14      -10.694864   1.000000
   15      -10.665481   1.000000
   16      -10.651297   1.000000
   17      -10.571371   1.000000
   18       -9.908192   1.000000
   19       -9.759886   1.000000
   20       -9.655411   1.000000
   21       -9.589397   1.000000
   22       -9.563248   1.000000
   23       -9.485882   1.000000
   24       -9.416643   1.000000
   25       -9.131232   1.000000
   26       -8.912853   1.000000
   27       -8.402190   1.000000
   28       -8.326000   1.000000
   29       -8.245499   1.000000
   30       -8.216145   1.000000
   31       -8.180073   1.000000
   32       -8.145898   1.000000
   33       -7.720160   1.000000
   34       -7.572908   1.000000
   35       -7.382819   1.000000
   36       -7.349166   1.000000
   37       -7.282673   1.000000
   38       -7.074269   1.000000
   39       -7.000490   1.000000
   40       -6.848105   1.000000
   41       -6.764420   1.000000
   42       -6.735344   1.000000
   43       -6.653188   1.000000
   44       -6.544289   1.000000
   45       -6.465096   1.000000
   46       -6.421165   1.000000
   47       -6.309345   1.000000
   48       -6.200325   1.000000
   49       -6.156458   1.000000
   50       -6.139632   1.000000
   51       -5.866053   1.000000
   52       -5.794216   1.000000
   53       -5.760734   1.000000
   54       -5.620640   1.000000
   55       -5.483329   1.000000
   56       -5.474521   1.000000
   57       -5.399042   1.000000
   58       -5.394311   1.000000
   59       -5.358174   1.000000
   60       -5.320068   1.000000
   61       -5.219223   1.000000
   62       -5.139924   1.000000
   63       -4.940393   1.000000
   64       -4.837823   1.000000
   65       -4.694654   1.000000
   66       -4.684337   1.000000
   67       -4.622628   1.000000
   68       -4.482523   1.000000
   69       -4.245206   1.000000
   70       -4.239664   1.000000
   71       -4.222634   1.000000
   72       -4.180634   1.000000
   73       -4.164497   1.000000
   74       -4.127453   1.000000
   75       -4.010777   1.000000
   76       -3.993754   1.000000
   77       -3.968319   1.000000
   78       -3.874120   1.000000
   79       -3.847320   1.000000
   80       -3.806874   1.000000
   81       -3.754487   1.000000
   82       -3.747173   1.000000
   83       -3.722328   1.000000
   84       -3.706628   1.000000
   85       -3.673302   1.000000
   86       -3.625238   1.000000
   87       -3.586347   1.000000
   88       -3.579478   1.000000
   89       -3.571423   1.000000
   90       -3.555798   1.000000
   91       -3.441707   1.000000
   92       -3.408799   1.000000
   93       -3.127084   1.000000
   94       -3.095358   1.000000
   95       -3.070385   1.000000
   96       -2.938767   1.000000
   97       -2.910730   1.000000
   98       -2.819372   1.000000
   99       -2.734618   1.000000
  100       -2.614293   1.000000
  101       -2.469548   1.000000
  102       -2.447270   1.000000
  103       -2.414575   1.000000
  104       -2.339117   1.000000
  105       -2.210576   1.000000
  106       -2.117787   1.000000
  107       -2.102030   1.000000
  108       -2.076218   1.000000
  109       -2.056566   1.000000
  110       -2.017128   1.000000
  111       -1.983439   1.000000
  112       -1.969857   1.000000
  113       -1.823308   1.000000
  114       -1.731544   1.000000
  115       -1.681603   1.000000
  116       -1.619014   1.000000
  117       -1.580178   1.000000
  118       -1.540465   1.000000
  119       -1.517665   1.000000
  120       -1.434963   1.000000
  121       -1.263800   1.000000
  122       -1.095164   1.000000
  123       -1.002832   1.000000
  124       -0.976178   1.000000
  125       -0.874685   1.000000
  126       -0.774651   1.000000
  127       -0.652591   1.000000
  128       -0.572695   1.000000
  129       -0.525197   1.000000
  130       -0.479119   1.000000
  131       -0.350696   1.000000
  132       -0.317347   1.000000
  133       -0.212194   1.000000
  134        0.003664   1.003842
  135        0.019516   1.006767
  136        0.119953   1.029280
  137        0.213258   0.595067
  138        0.302580   0.015224
  139        0.324379  -0.024926
  140        0.443961  -0.004068
  141        0.475398  -0.001116
  142        0.508796  -0.000220
  143        0.526608  -0.000083
  144        0.528216  -0.000076
  145        0.563798  -0.000009
  146        0.584377  -0.000002
  147        0.623809  -0.000000
  148        0.671108  -0.000000
  149        0.734932  -0.000000
  150        0.802196  -0.000000
  151        0.970177  -0.000000
  152        1.007415  -0.000000
  153        1.028147  -0.000000
  154        1.081426  -0.000000
  155        1.124425  -0.000000
  156        1.168218  -0.000000
  157        1.191994  -0.000000
  158        1.209540  -0.000000
  159        1.230387  -0.000000
  160        1.236284  -0.000000
  161        1.308671  -0.000000
  162        1.324634  -0.000000
  163        1.333691  -0.000000
  164        1.353878  -0.000000
  165        1.421609  -0.000000
  166        1.471560  -0.000000
  167        1.491270  -0.000000
  168        1.502828  -0.000000
  169        1.543585  -0.000000
  170        1.552140  -0.000000
  171        1.577286  -0.000000
  172        1.619151  -0.000000
  173        1.630766  -0.000000
  174        1.668339  -0.000000
  175        1.683088  -0.000000
  176        1.728119  -0.000000

  0.4000000E+00  0.3742002E-15  0.3742002E-15  0.1481481E-01
    1      -13.927310   1.000000
    2      -13.686054   1.000000
    3      -12.713550   1.000000
    4      -12.485139   1.000000
    5      -11.927668   1.000000
    6      -11.898345   1.000000
    7      -11.844919   1.000000
    8      -11.334892   1.000000
    9      -11.295190   1.000000
   10      -11.288956   1.000000
   11      -11.157720   1.000000
   12      -11.125401   1.000000
   13      -10.942711   1.000000
   14      -10.899869   1.000000
   15      -10.814651   1.000000
   16      -10.773902   1.000000
   17      -10.675937   1.000000
   18      -10.192398   1.000000
   19       -9.805512   1.000000
   20       -9.684749   1.000000
   21       -9.534189   1.000000
   22       -9.434257   1.000000
   23       -9.383977   1.000000
   24       -9.334478   1.000000
   25       -9.147461   1.000000
   26       -8.871254   1.000000
   27       -8.414415   1.000000
   28       -8.180005   1.000000
   29       -8.028148   1.000000
   30       -7.971789   1.000000
   31       -7.905513   1.000000
   32       -7.872688   1.000000
   33       -7.851706   1.000000
   34       -7.840972   1.000000
   35       -7.613838   1.000000
   36       -7.562431   1.000000
   37       -7.465428   1.000000
   38       -7.344304   1.000000
   39       -7.214077   1.000000
   40       -6.951429   1.000000
   41       -6.825599   1.000000
   42       -6.680923   1.000000
   43       -6.550980   1.000000
   44       -6.491036   1.000000
   45       -6.482043   1.000000
   46       -6.244806   1.000000
   47       -6.208832   1.000000
   48       -6.107903   1.000000
   49       -6.023521   1.000000
   50       -5.971186   1.000000
   51       -5.946697   1.000000
   52       -5.855530   1.000000
   53       -5.836722   1.000000
   54       -5.762306   1.000000
   55       -5.570405   1.000000
   56       -5.469155   1.000000
   57       -5.363463   1.000000
   58       -5.270751   1.000000
   59       -5.232966   1.000000
   60       -5.203449   1.000000
   61       -5.143651   1.000000
   62       -5.029510   1.000000
   63       -4.993903   1.000000
   64       -4.829985   1.000000
   65       -4.744098   1.000000
   66       -4.694206   1.000000
   67       -4.511060   1.000000
   68       -4.474348   1.000000
   69       -4.456929   1.000000
   70       -4.353080   1.000000
   71       -4.254432   1.000000
   72       -4.222130   1.000000
   73       -4.167953   1.000000
   74       -4.125904   1.000000
   75       -4.113880   1.000000
   76       -4.086573   1.000000
   77       -4.045094   1.000000
   78       -3.940214   1.000000
   79       -3.829048   1.000000
   80       -3.815274   1.000000
   81       -3.807406   1.000000
   82       -3.785869   1.000000
   83       -3.750974   1.000000
   84       -3.689262   1.000000
   85       -3.601265   1.000000
   86       -3.587002   1.000000
   87       -3.563209   1.000000
   88       -3.440928   1.000000
   89       -3.417303   1.000000
   90       -3.399395   1.000000
   91       -3.381942   1.000000
   92       -3.325792   1.000000
   93       -3.240840   1.000000
   94       -3.193669   1.000000
   95       -3.156464   1.000000
   96       -3.063813   1.000000
   97       -2.944525   1.000000
   98       -2.935974   1.000000
   99       -2.768566   1.000000
  100       -2.621834   1.000000
  101       -2.458398   1.000000
  102       -2.379053   1.000000
  103       -2.311321   1.000000
  104       -2.294393   1.000000
  105       -2.281925   1.000000
  106       -2.191161   1.000000
  107       -2.119155   1.000000
  108       -2.097192   1.000000
  109       -2.070677   1.000000
  110       -2.058521   1.000000
  111       -1.839614   1.000000
  112       -1.742392   1.000000
  113       -1.707928   1.000000
  114       -1.636000   1.000000
  115       -1.627199   1.000000
  116       -1.512180   1.000000
  117       -1.463485   1.000000
  118       -1.368989   1.000000
  119       -1.305498   1.000000
  120       -1.223858   1.000000
  121       -1.188219   1.000000
  122       -1.171682   1.000000
  123       -1.126897   1.000000
  124       -1.085908   1.000000
  125       -1.055913   1.000000
  126       -0.852550   1.000000
  127       -0.817713   1.000000
  128       -0.798465   1.000000
  129       -0.703525   1.000000
  130       -0.683168   1.000000
  131       -0.535670   1.000000
  132       -0.460144   1.000000
  133       -0.216659   1.000000
  134       -0.191186   1.000000
  135       -0.046547   1.000428
  136        0.180056   0.838504
  137        0.206652   0.648980
  138        0.224002   0.504817
  139        0.345198  -0.035404
  140        0.414961  -0.010770
  141        0.436846  -0.005271
  142        0.444872  -0.003931
  143        0.511338  -0.000192
  144        0.540731  -0.000037
  145        0.580402  -0.000003
  146        0.594011  -0.000001
  147        0.704322  -0.000000
  148        0.827665  -0.000000
  149        0.853988  -0.000000
  150        0.887222  -0.000000
  151        1.054856  -0.000000
  152        1.061844  -0.000000
  153        1.093903  -0.000000
  154        1.140537  -0.000000
  155        1.145139  -0.000000
  156        1.218167  -0.000000
  157        1.272350  -0.000000
  158        1.307920  -0.000000
  159        1.336928  -0.000000
  160        1.346149  -0.000000
  161        1.355782  -0.000000
  162        1.362579  -0.000000
  163        1.382710  -0.000000
  164        1.460004  -0.000000
  165        1.482757  -0.000000
  166        1.492166  -0.000000
  167        1.511828  -0.000000
  168        1.523028  -0.000000
  169        1.579395  -0.000000
  170        1.596670  -0.000000
  171        1.611496  -0.000000
  172        1.662871  -0.000000
  173        1.677919  -0.000000
  174        1.694999  -0.000000
  175        1.698651  -0.000000
  176        1.725143  -0.000000

  0.3742002E-15  0.3333333E+00  0.3742002E-15  0.1481481E-01
    1      -14.123238   1.000000
    2      -12.945278   1.000000
    3      -12.939148   1.000000
    4      -12.895118   1.000000
    5      -11.992354   1.000000
    6      -11.790499   1.000000
    7      -11.769616   1.000000
    8      -11.574989   1.000000
    9      -11.570187   1.000000
   10      -11.373130   1.000000
   11      -11.311079   1.000000
   12      -11.090077   1.000000
   13      -11.075016   1.000000
   14      -10.598851   1.000000
   15      -10.539395   1.000000
   16      -10.336876   1.000000
   17      -10.271623   1.000000
   18      -10.187556   1.000000
   19       -9.770970   1.000000
   20       -9.703372   1.000000
   21       -9.630730   1.000000
   22       -9.623460   1.000000
   23       -9.463738   1.000000
   24       -9.407426   1.000000
   25       -8.964135   1.000000
   26       -8.919866   1.000000
   27       -8.667682   1.000000
   28       -8.545215   1.000000
   29       -8.312926   1.000000
   30       -8.272527   1.000000
   31       -8.244987   1.000000
   32       -7.899198   1.000000
   33       -7.848029   1.000000
   34       -7.420279   1.000000
   35       -7.323057   1.000000
   36       -7.258129   1.000000
   37       -7.141723   1.000000
   38       -6.990326   1.000000
   39       -6.892624   1.000000
   40       -6.834830   1.000000
   41       -6.828636   1.000000
   42       -6.812502   1.000000
   43       -6.671218   1.000000
   44       -6.531039   1.000000
   45       -6.432254   1.000000
   46       -6.383185   1.000000
   47       -6.286365   1.000000
   48       -6.243492   1.000000
   49       -6.232187   1.000000
   50       -5.979882   1.000000
   51       -5.919471   1.000000
   52       -5.780576   1.000000
   53       -5.767730   1.000000
   54       -5.756327   1.000000
   55       -5.682729   1.000000
   56       -5.602582   1.000000
   57       -5.535008   1.000000
   58       -5.493124   1.000000
   59       -5.340207   1.000000
   60       -5.322361   1.000000
   61       -5.202090   1.000000
   62       -4.846999   1.000000
   63       -4.830149   1.000000
   64       -4.774574   1.000000
   65       -4.747720   1.000000
   66       -4.674147   1.000000
   67       -4.662237   1.000000
   68       -4.451838   1.000000
   69       -4.262237   1.000000
   70       -4.212691   1.000000
   71       -4.171271   1.000000
   72       -4.163089   1.000000
   73       -4.128335   1.000000
   74       -4.069862   1.000000
   75       -4.067120   1.000000
   76       -4.037731   1.000000
   77       -4.028677   1.000000
   78       -3.953907   1.000000
   79       -3.902083   1.000000
   80       -3.733695   1.000000
   81       -3.721264   1.000000
   82       -3.713352   1.000000
   83       -3.698393   1.000000
   84       -3.684792   1.000000
   85       -3.636599   1.000000
   86       -3.628952   1.000000
   87       -3.623701   1.000000
   88       -3.616671   1.000000
   89       -3.581905   1.000000
   90       -3.538719   1.000000
   91       -3.476556   1.000000
   92       -3.381125   1.000000
   93       -3.086831   1.000000
   94       -3.055957   1.000000
   95       -3.046451   1.000000
   96       -2.941317   1.000000
   97       -2.910739   1.000000
   98       -2.847735   1.000000
   99       -2.711586   1.000000
  100       -2.558977   1.000000
  101       -2.444394   1.000000
  102       -2.427591   1.000000
  103       -2.423473   1.000000
  104       -2.374129   1.000000
  105       -2.240819   1.000000
  106       -2.179084   1.000000
  107       -2.154418   1.000000
  108       -2.127566   1.000000
  109       -2.068115   1.000000
  110       -2.041676   1.000000
  111       -1.969048   1.000000
  112       -1.893544   1.000000
  113       -1.847846   1.000000
  114       -1.761249   1.000000
  115       -1.724170   1.000000
  116       -1.688368   1.000000
  117       -1.685793   1.000000
  118       -1.670764   1.000000
  119       -1.552132   1.000000
  120       -1.479963   1.000000
  121       -1.297731   1.000000
  122       -1.085953   1.000000
  123       -0.952623   1.000000
  124       -0.926838   1.000000
  125       -0.817389   1.000000
  126       -0.725775   1.000000
  127       -0.568925   1.000000
  128       -0.552587   1.000000
  129       -0.470751   1.000000
  130       -0.446546   1.000000
  131       -0.186879   1.000000
  132       -0.175792   1.000000
  133       -0.031163   1.000893
  134        0.128754   1.020224
  135        0.155711   0.955831
  136        0.170987   0.889146
  137        0.242128   0.353929
  138        0.296387   0.033948
  139        0.341266  -0.034902
  140        0.345771  -0.035432
  141        0.423432  -0.008293
  142        0.473214  -0.001230
  143        0.476752  -0.001050
  144        0.493901  -0.000468
  145        0.500520  -0.000336
  146        0.538438  -0.000042
  147        0.553429  -0.000017
  148        0.701348  -0.000000
  149        0.719924  -0.000000
  150        0.723886  -0.000000
  151        0.928991  -0.000000
  152        0.945172  -0.000000
  153        0.985733  -0.000000
  154        1.043141  -0.000000
  155        1.068079  -0.000000
  156        1.096534  -0.000000
  157        1.123902  -0.000000
  158        1.208318  -0.000000
  159        1.236814  -0.000000
  160        1.245667  -0.000000
  161        1.267224  -0.000000
  162        1.280327  -0.000000
  163        1.295685  -0.000000
  164        1.300357  -0.000000
  165        1.428708  -0.000000
  166        1.501286  -0.000000
  167        1.507147  -0.000000
  168        1.514349  -0.000000
  169        1.545305  -0.000000
  170        1.548017  -0.000000
  171        1.557996  -0.000000
  172        1.585906  -0.000000
  173        1.633480  -0.000000
  174        1.650442  -0.000000
  175        1.665553  -0.000000
  176        1.677873  -0.000000

  0.2000000E+00  0.3333333E+00  0.3742002E-15  0.1481481E-01
    1      -14.073998   1.000000
    2      -13.355335   1.000000
    3      -12.850741   1.000000
    4      -12.452477   1.000000
    5      -12.172926   1.000000
    6      -11.976152   1.000000
    7      -11.726933   1.000000
    8      -11.389004   1.000000
    9      -11.364260   1.000000
   10      -11.318332   1.000000
   11      -11.264757   1.000000
   12      -11.177786   1.000000
   13      -10.956680   1.000000
   14      -10.694864   1.000000
   15      -10.665480   1.000000
   16      -10.651296   1.000000
   17      -10.571371   1.000000
   18       -9.908192   1.000000
   19       -9.759886   1.000000
   20       -9.655413   1.000000
   21       -9.589398   1.000000
   22       -9.563249   1.000000
   23       -9.485881   1.000000
   24       -9.416642   1.000000
   25       -9.131231   1.000000
   26       -8.912851   1.000000
   27       -8.402186   1.000000
   28       -8.325999   1.000000
   29       -8.245501   1.000000
   30       -8.216146   1.000000
   31       -8.180074   1.000000
   32       -8.145897   1.000000
   33       -7.720163   1.000000
   34       -7.572907   1.000000
   35       -7.382820   1.000000
   36       -7.349159   1.000000
   37       -7.282671   1.000000
   38       -7.074266   1.000000
   39       -7.000491   1.000000
   40       -6.848105   1.000000
   41       -6.764419   1.000000
   42       -6.735347   1.000000
   43       -6.653187   1.000000
   44       -6.544289   1.000000
   45       -6.465098   1.000000
   46       -6.421166   1.000000
   47       -6.309344   1.000000
   48       -6.200324   1.000000
   49       -6.156460   1.000000
   50       -6.139633   1.000000
   51       -5.866055   1.000000
   52       -5.794216   1.000000
   53       -5.760734   1.000000
   54       -5.620637   1.000000
   55       -5.483331   1.000000
   56       -5.474520   1.000000
   57       -5.399043   1.000000
   58       -5.394310   1.000000
   59       -5.358174   1.000000
   60       -5.320071   1.000000
   61       -5.219221   1.000000
   62       -5.139925   1.000000
   63       -4.940392   1.000000
   64       -4.837826   1.000000
   65       -4.694653   1.000000
   66       -4.684336   1.000000
   67       -4.622630   1.000000
   68       -4.482523   1.000000
   69       -4.245206   1.000000
   70       -4.239663   1.000000
   71       -4.222634   1.000000
   72       -4.180637   1.000000
   73       -4.164496   1.000000
   74       -4.127456   1.000000
   75       -4.010780   1.000000
   76       -3.993754   1.000000
   77       -3.968323   1.000000
   78       -3.874119   1.000000
   79       -3.847321   1.000000
   80       -3.806876   1.000000
   81       -3.754488   1.000000
   82       -3.747174   1.000000
   83       -3.722328   1.000000
   84       -3.706630   1.000000
   85       -3.673302   1.000000
   86       -3.625237   1.000000
   87       -3.586348   1.000000
   88       -3.579479   1.000000
   89       -3.571421   1.000000
   90       -3.555798   1.000000
   91       -3.441705   1.000000
   92       -3.408799   1.000000
   93       -3.127084   1.000000
   94       -3.095359   1.000000
   95       -3.070386   1.000000
   96       -2.938769   1.000000
   97       -2.910730   1.000000
   98       -2.819373   1.000000
   99       -2.734615   1.000000
  100       -2.614292   1.000000
  101       -2.469547   1.000000
  102       -2.447270   1.000000
  103       -2.414579   1.000000
  104       -2.339121   1.000000
  105       -2.210576   1.000000
  106       -2.117790   1.000000
  107       -2.102028   1.000000
  108       -2.076217   1.000000
  109       -2.056566   1.000000
  110       -2.017130   1.000000
  111       -1.983441   1.000000
  112       -1.969858   1.000000
  113       -1.823307   1.000000
  114       -1.731541   1.000000
  115       -1.681600   1.000000
  116       -1.619012   1.000000
  117       -1.580176   1.000000
  118       -1.540465   1.000000
  119       -1.517665   1.000000
  120       -1.434964   1.000000
  121       -1.263800   1.000000
  122       -1.095163   1.000000
  123       -1.002832   1.000000
  124       -0.976178   1.000000
  125       -0.874687   1.000000
  126       -0.774652   1.000000
  127       -0.652590   1.000000
  128       -0.572696   1.000000
  129       -0.525199   1.000000
  130       -0.479120   1.000000
  131       -0.350686   1.000000
  132       -0.317346   1.000000
  133       -0.212195   1.000000
  134        0.003662   1.003842
  135        0.019515   1.006766
  136        0.119953   1.029280
  137        0.213258   0.595067
  138        0.302579   0.015227
  139        0.324378  -0.024925
  140        0.443962  -0.004067
  141        0.475400  -0.001116
  142        0.508796  -0.000220
  143        0.526609  -0.000083
  144        0.528216  -0.000076
  145        0.563798  -0.000009
  146        0.584378  -0.000002
  147        0.623809  -0.000000
  148        0.671108  -0.000000
  149        0.734937  -0.000000
  150        0.802195  -0.000000
  151        0.970177  -0.000000
  152        1.007415  -0.000000
  153        1.028148  -0.000000
  154        1.081426  -0.000000
  155        1.124425  -0.000000
  156        1.168218  -0.000000
  157        1.191994  -0.000000
  158        1.209540  -0.000000
  159        1.230387  -0.000000
  160        1.236284  -0.000000
  161        1.308670  -0.000000
  162        1.324634  -0.000000
  163        1.333690  -0.000000
  164        1.353876  -0.000000
  165        1.421608  -0.000000
  166        1.471561  -0.000000
  167        1.491263  -0.000000
  168        1.502826  -0.000000
  169        1.543584  -0.000000
  170        1.552136  -0.000000
  171        1.577296  -0.000000
  172        1.619329  -0.000000
  173        1.630737  -0.000000
  174        1.668380  -0.000000
  175        1.685015  -0.000000
  176        1.728240  -0.000000

  0.4000000E+00  0.3333333E+00  0.3742002E-15  0.1481481E-01
    1      -13.927309   1.000000
    2      -13.686056   1.000000
    3      -12.713549   1.000000
    4      -12.485140   1.000000
    5      -11.927669   1.000000
    6      -11.898345   1.000000
    7      -11.844917   1.000000
    8      -11.334892   1.000000
    9      -11.295189   1.000000
   10      -11.288956   1.000000
   11      -11.157719   1.000000