 running on   72 total cores
 distrk:  each k-point on   72 cores,    1 groups
 distr:  one band on    9 cores,    8 groups
 using from now: INCAR     
 vasp.5.4.4.18Apr17-6-g9f103f2a35 (build Dec  7 2020 12:43:57) complex           
 POSCAR found type information on POSCAR  Mo V  B  H 
 POSCAR found :  4 types and      73 ions
 scaLAPACK will be used
 LDA part: xc-table for Pade appr. of Perdew
 POSCAR, INCAR and KPOINTS ok, starting setup
 resort distribution
 resort distribution
 resort distribution
 resort distribution
 resort distribution
 resort distribution
 resort distribution
 resort distribution
 resort distribution
 resort distribution
 resort distribution
 resort distribution
 resort distribution
 resort distribution
 resort distribution
 resort distribution
 resort distribution
 resort distribution
 resort distribution
 resort distribution
 resort distribution
 resort distribution
 resort distribution
 resort distribution
 resort distribution
 resort distribution
 resort distribution
 resort distribution
 resort distribution
 resort distribution
 resort distribution
 resort distribution
 resort distribution
 resort distribution
 resort distribution
 resort distribution
 resort distribution
 resort distribution
 resort distribution
 resort distribution
 resort distribution
 resort distribution
 resort distribution
 resort distribution
 resort distribution
 resort distribution
 resort distribution
 resort distribution
 resort distribution
 resort distribution
 resort distribution
 resort distribution
 resort distribution
 resort distribution
 resort distribution
 resort distribution
 resort distribution
 resort distribution
 resort distribution
 resort distribution
 resort distribution
 resort distribution
 resort distribution
 resort distribution
 resort distribution
 resort distribution
 resort distribution
 resort distribution
 resort distribution
 resort distribution
 resort distribution
 resort distribution
 FFT: planning ...
 WAVECAR not read
 augmentation electrons   277.02612153757667     
 soft         electrons   0.0000000000000000     
 augmentation electrons   277.02612153757667     
 soft         electrons   0.0000000000000000     
 augmentation electrons   277.02612153757667     
 soft         electrons   0.0000000000000000     
 augmentation electrons   277.02612153757667     
 soft         electrons   0.0000000000000000     
 augmentation electrons   277.02612153757667     
 soft         electrons   0.0000000000000000     
 augmentation electrons   277.02612153757667     
 soft         electrons   0.0000000000000000     
 augmentation electrons   277.02612153757667     
 soft         electrons   0.0000000000000000     
 augmentation electrons   277.02612153757667     
 soft         electrons   0.0000000000000000     
 augmentation electrons   277.02612153757667     
 soft         electrons   0.0000000000000000     
 augmentation electrons   277.02612153757667     
 soft         electrons   0.0000000000000000     
 augmentation electrons   277.02612153757667     
 soft         electrons   0.0000000000000000     
 augmentation electrons   277.02612153757667     
 soft         electrons   0.0000000000000000     
 augmentation electrons   277.02612153757667     
 soft         electrons   0.0000000000000000     
 augmentation electrons   277.02612153757667     
 soft         electrons   0.0000000000000000     
 augmentation electrons   277.02612153757667     
 soft         electrons   0.0000000000000000     
 augmentation electrons   277.02612153757667     
 soft         electrons   0.0000000000000000     
 augmentation electrons   277.02612153757667     
 soft         electrons   0.0000000000000000     
 augmentation electrons   277.02612153757667     
 soft         electrons   0.0000000000000000     
 augmentation electrons   277.02612153757667     
 soft         electrons   0.0000000000000000     
 augmentation electrons   277.02612153757667     
 soft         electrons   0.0000000000000000     
 augmentation electrons   277.02612153757667     
 soft         electrons   0.0000000000000000     
 augmentation electrons   277.02612153757667     
 soft         electrons   0.0000000000000000     
 augmentation electrons   277.02612153757667     
 soft         electrons   0.0000000000000000     
 augmentation electrons   277.02612153757667     
 soft         electrons   0.0000000000000000     
 augmentation electrons   277.02612153757667     
 soft         electrons   0.0000000000000000     
 augmentation electrons   277.02612153757667     
 soft         electrons   0.0000000000000000     
 augmentation electrons   277.02612153757667     
 soft         electrons   0.0000000000000000     
 augmentation electrons   277.02612153757667     
 soft         electrons   0.0000000000000000     
 augmentation electrons   277.02612153757667     
 soft         electrons   0.0000000000000000     
 augmentation electrons   277.02612153757667     
 soft         electrons   0.0000000000000000     
 augmentation electrons   277.02612153757667     
 soft         electrons   0.0000000000000000     
 augmentation electrons   277.02612153757667     
 soft         electrons   0.0000000000000000     
 augmentation electrons   277.02612153757667     
 soft         electrons   0.0000000000000000     
 augmentation electrons   277.02612153757667     
 soft         electrons   0.0000000000000000     
 augmentation electrons   277.02612153757667     
 soft         electrons   0.0000000000000000     
 augmentation electrons   277.02612153757667     
 soft         electrons   0.0000000000000000     
 augmentation electrons   277.02612153757667     
 soft         electrons   0.0000000000000000     
 augmentation electrons   277.02612153757667     
 soft         electrons   0.0000000000000000     
 augmentation electrons   277.02612153757667     
 soft         electrons   0.0000000000000000     
 augmentation electrons   277.02612153757667     
 soft         electrons   0.0000000000000000     
 augmentation electrons   277.02612153757667     
 soft         electrons   0.0000000000000000     
 augmentation electrons   277.02612153757667     
 soft         electrons   0.0000000000000000     
 augmentation electrons   277.02612153757667     
 soft         electrons   0.0000000000000000     
 augmentation electrons   277.02612153757667     
 soft         electrons   0.0000000000000000     
 augmentation electrons   277.02612153757667     
 soft         electrons   0.0000000000000000     
 augmentation electrons   277.02612153757667     
 soft         electrons   0.0000000000000000     
 augmentation electrons   277.02612153757667     
 soft         electrons   0.0000000000000000     
 augmentation electrons   277.02612153757667     
 soft         electrons   0.0000000000000000     
 augmentation electrons   277.02612153757667     
 soft         electrons   0.0000000000000000     
 augmentation electrons   277.02612153757667     
 soft         electrons   0.0000000000000000     
 augmentation electrons   277.02612153757667     
 soft         electrons   0.0000000000000000     
 augmentation electrons   277.02612153757667     
 soft         electrons   0.0000000000000000     
 augmentation electrons   277.02612153757667     
 soft         electrons   0.0000000000000000     
 augmentation electrons   277.02612153757667     
 soft         electrons   0.0000000000000000     
 augmentation electrons   277.02612153757667     
 soft         electrons   0.0000000000000000     
 augmentation electrons   277.02612153757667     
 soft         electrons   0.0000000000000000     
 augmentation electrons   277.02612153757667     
 soft         electrons   0.0000000000000000     
 augmentation electrons   277.02612153757667     
 soft         electrons   0.0000000000000000     
 augmentation electrons   277.02612153757667     
 soft         electrons   0.0000000000000000     
 augmentation electrons   277.02612153757667     
 soft         electrons   0.0000000000000000     
 augmentation electrons   277.02612153757667     
 soft         electrons   0.0000000000000000     
 augmentation electrons   277.02612153757667     
 soft         electrons   0.0000000000000000     
 augmentation electrons   277.02612153757667     
 soft         electrons   0.0000000000000000     
 augmentation electrons   277.02612153757667     
 soft         electrons   0.0000000000000000     
 augmentation electrons   277.02612153757667     
 soft         electrons   0.0000000000000000     
 augmentation electrons   277.02612153757667     
 soft         electrons   0.0000000000000000     
 augmentation electrons   277.02612153757667     
 soft         electrons   0.0000000000000000     
 augmentation electrons   277.02612153757667     
 soft         electrons   0.0000000000000000     
 augmentation electrons   277.02612153757667     
 soft         electrons   0.0000000000000000     
 augmentation electrons   277.02612153757667     
 soft         electrons   0.0000000000000000     
 augmentation electrons   277.02612153757667     
 soft         electrons   0.0000000000000000     
 augmentation electrons   277.02612153757667     
 soft         electrons   0.0000000000000000     
 total        electrons   277.02612153757667     
 total        electrons   277.02612153757667     
 total        electrons   277.02612153757667     
 total        electrons   277.02612153757667     
 total        electrons   277.02612153757667     
 total        electrons   277.02612153757667     
 total        electrons   277.02612153757667     
 total        electrons   277.02612153757667     
 total        electrons   277.02612153757667     
 total        electrons   277.02612153757667     
 total        electrons   277.02612153757667     
 total        electrons   277.02612153757667     
 total        electrons   277.02612153757667     
 total        electrons   277.02612153757667     
 total        electrons   277.02612153757667     
 total        electrons   277.02612153757667     
 total        electrons   277.02612153757667     
 total        electrons   277.02612153757667     
 total        electrons   277.02612153757667     
 total        electrons   277.02612153757667     
 total        electrons   277.02612153757667     
 total        electrons   277.02612153757667     
 total        electrons   277.02612153757667     
 total        electrons   277.02612153757667     
 total        electrons   277.02612153757667     
 total        electrons   277.02612153757667     
 total        electrons   277.02612153757667     
 total        electrons   277.02612153757667     
 total        electrons   277.02612153757667     
 total        electrons   277.02612153757667     
 total        electrons   277.02612153757667     
 total        electrons   277.02612153757667     
 total        electrons   277.02612153757667     
 total        electrons   277.02612153757667     
 total        electrons   277.02612153757667     
 total        electrons   277.02612153757667     
 total        electrons   277.02612153757667     
 total        electrons   277.02612153757667     
 total        electrons   277.02612153757667     
 total        electrons   277.02612153757667     
 total        electrons   277.02612153757667     
 total        electrons   277.02612153757667     
 total        electrons   277.02612153757667     
 total        electrons   277.02612153757667     
 total        electrons   277.02612153757667     
 total        electrons   277.02612153757667     
 total        electrons   277.02612153757667     
 total        electrons   277.02612153757667     
 total        electrons   277.02612153757667     
 total        electrons   277.02612153757667     
 total        electrons   277.02612153757667     
 total        electrons   277.02612153757667     
 total        electrons   277.02612153757667     
 total        electrons   277.02612153757667     
 total        electrons   277.02612153757667     
 total        electrons   277.02612153757667     
 total        electrons   277.02612153757667     
 total        electrons   277.02612153757667     
 total        electrons   277.02612153757667     
 total        electrons   277.02612153757667     
 total        electrons   277.02612153757667     
 total        electrons   277.02612153757667     
 total        electrons   277.02612153757667     
 total        electrons   277.02612153757667     
 total        electrons   277.02612153757667     
 total        electrons   277.02612153757667     
 total        electrons   277.02612153757667     
 total        electrons   277.02612153757667     
 total        electrons   277.02612153757667     
 total        electrons   277.02612153757667     
 total        electrons   277.02612153757667     
 total        electrons   277.02612153757667     
 augmentation electrons   864.17172981569820     
 soft         electrons   0.0000000000000000     
 augmentation electrons   864.17172981569820     
 soft         electrons   0.0000000000000000     
 augmentation electrons   864.17172981569820     
 soft         electrons   0.0000000000000000     
 augmentation electrons   864.17172981569820     
 soft         electrons   0.0000000000000000     
 augmentation electrons   864.17172981569820     
 soft         electrons   0.0000000000000000     
 augmentation electrons   864.17172981569820     
 soft         electrons   0.0000000000000000     
 augmentation electrons   864.17172981569820     
 soft         electrons   0.0000000000000000     
 augmentation electrons   864.17172981569820     
 soft         electrons   0.0000000000000000     
 augmentation electrons   864.17172981569820     
 soft         electrons   0.0000000000000000     
 augmentation electrons   864.17172981569820     
 soft         electrons   0.0000000000000000     
 augmentation electrons   864.17172981569820     
 soft         electrons   0.0000000000000000     
 augmentation electrons   864.17172981569820     
 soft         electrons   0.0000000000000000     
 augmentation electrons   864.17172981569820     
 soft         electrons   0.0000000000000000     
 augmentation electrons   864.17172981569820     
 soft         electrons   0.0000000000000000     
 augmentation electrons   864.17172981569820     
 soft         electrons   0.0000000000000000     
 augmentation electrons   864.17172981569820     
 soft         electrons   0.0000000000000000     
 augmentation electrons   864.17172981569820     
 soft         electrons   0.0000000000000000     
 augmentation electrons   864.17172981569820     
 soft         electrons   0.0000000000000000     
 augmentation electrons   864.17172981569820     
 soft         electrons   0.0000000000000000     
 augmentation electrons   864.17172981569820     
 soft         electrons   0.0000000000000000     
 augmentation electrons   864.17172981569820     
 soft         electrons   0.0000000000000000     
 augmentation electrons   864.17172981569820     
 soft         electrons   0.0000000000000000     
 augmentation electrons   864.17172981569820     
 soft         electrons   0.0000000000000000     
 augmentation electrons   864.17172981569820     
 soft         electrons   0.0000000000000000     
 augmentation electrons   864.17172981569820     
 soft         electrons   0.0000000000000000     
 augmentation electrons   864.17172981569820     
 soft         electrons   0.0000000000000000     
 augmentation electrons   864.17172981569820     
 soft         electrons   0.0000000000000000     
 augmentation electrons   864.17172981569820     
 soft         electrons   0.0000000000000000     
 augmentation electrons   864.17172981569820     
 soft         electrons   0.0000000000000000     
 augmentation electrons   864.17172981569820     
 soft         electrons   0.0000000000000000     
 augmentation electrons   864.17172981569820     
 soft         electrons   0.0000000000000000     
 augmentation electrons   864.17172981569820     
 soft         electrons   0.0000000000000000     
 augmentation electrons   864.17172981569820     
 soft         electrons   0.0000000000000000     
 augmentation electrons   864.17172981569820     
 soft         electrons   0.0000000000000000     
 augmentation electrons   864.17172981569820     
 soft         electrons   0.0000000000000000     
 augmentation electrons   864.17172981569820     
 soft         electrons   0.0000000000000000     
 augmentation electrons   864.17172981569820     
 soft         electrons   0.0000000000000000     
 augmentation electrons   864.17172981569820     
 soft         electrons   0.0000000000000000     
 augmentation electrons   864.17172981569820     
 soft         electrons   0.0000000000000000     
 augmentation electrons   864.17172981569820     
 soft         electrons   0.0000000000000000     
 augmentation electrons   864.17172981569820     
 soft         electrons   0.0000000000000000     
 augmentation electrons   864.17172981569820     
 soft         electrons   0.0000000000000000     
 augmentation electrons   864.17172981569820     
 soft         electrons   0.0000000000000000     
 augmentation electrons   864.17172981569820     
 soft         electrons   0.0000000000000000     
 augmentation electrons   864.17172981569820     
 soft         electrons   0.0000000000000000     
 augmentation electrons   864.17172981569820     
 soft         electrons   0.0000000000000000     
 augmentation electrons   864.17172981569820     
 soft         electrons   0.0000000000000000     
 augmentation electrons   864.17172981569820     
 soft         electrons   0.0000000000000000     
 augmentation electrons   864.17172981569820     
 soft         electrons   0.0000000000000000     
 augmentation electrons   864.17172981569820     
 soft         electrons   0.0000000000000000     
 augmentation electrons   864.17172981569820     
 soft         electrons   0.0000000000000000     
 augmentation electrons   864.17172981569820     
 soft         electrons   0.0000000000000000     
 augmentation electrons   864.17172981569820     
 soft         electrons   0.0000000000000000     
 augmentation electrons   864.17172981569820     
 soft         electrons   0.0000000000000000     
 augmentation electrons   864.17172981569820     
 soft         electrons   0.0000000000000000     
 augmentation electrons   864.17172981569820     
 soft         electrons   0.0000000000000000     
 augmentation electrons   864.17172981569820     
 soft         electrons   0.0000000000000000     
 augmentation electrons   864.17172981569820     
 soft         electrons   0.0000000000000000     
 augmentation electrons   864.17172981569820     
 soft         electrons   0.0000000000000000     
 augmentation electrons   864.17172981569820     
 soft         electrons   0.0000000000000000     
 augmentation electrons   864.17172981569820     
 soft         electrons   0.0000000000000000     
 augmentation electrons   864.17172981569820     
 soft         electrons   0.0000000000000000     
 augmentation electrons   864.17172981569820     
 soft         electrons   0.0000000000000000     
 augmentation electrons   864.17172981569820     
 soft         electrons   0.0000000000000000     
 augmentation electrons   864.17172981569820     
 soft         electrons   0.0000000000000000     
 augmentation electrons   864.17172981569820     
 soft         electrons   0.0000000000000000     
 augmentation electrons   864.17172981569820     
 soft         electrons   0.0000000000000000     
 augmentation electrons   864.17172981569820     
 soft         electrons   0.0000000000000000     
 augmentation electrons   864.17172981569820     
 soft         electrons   0.0000000000000000     
 augmentation electrons   864.17172981569820     
 soft         electrons   0.0000000000000000     
 augmentation electrons   864.17172981569820     
 soft         electrons   0.0000000000000000     
 augmentation electrons   864.17172981569820     
 soft         electrons   0.0000000000000000     
 total        electrons   864.17172981569820     
 total        electrons   864.17172981569820     
 total        electrons   864.17172981569820     
 total        electrons   864.17172981569820     
 total        electrons   864.17172981569820     
 total        electrons   864.17172981569820     
 total        electrons   864.17172981569820     
 total        electrons   864.17172981569820     
 total        electrons   864.17172981569820     
 total        electrons   864.17172981569820     
 total        electrons   864.17172981569820     
 total        electrons   864.17172981569820     
 total        electrons   864.17172981569820     
 total        electrons   864.17172981569820     
 total        electrons   864.17172981569820     
 total        electrons   864.17172981569820     
 total        electrons   864.17172981569820     
 total        electrons   864.17172981569820     
 total        electrons   864.17172981569820     
 total        electrons   864.17172981569820     
 total        electrons   864.17172981569820     
 total        electrons   864.17172981569820     
 total        electrons   864.17172981569820     
 total        electrons   864.17172981569820     
 total        electrons   864.17172981569820     
 total        electrons   864.17172981569820     
 total        electrons   864.17172981569820     
 total        electrons   864.17172981569820     
 total        electrons   864.17172981569820     
 total        electrons   864.17172981569820     
 total        electrons   864.17172981569820     
 total        electrons   864.17172981569820     
 total        electrons   864.17172981569820     
 total        electrons   864.17172981569820     
 total        electrons   864.17172981569820     
 total        electrons   864.17172981569820     
 total        electrons   864.17172981569820     
 total        electrons   864.17172981569820     
 total        electrons   864.17172981569820     
 total        electrons   864.17172981569820     
 total        electrons   864.17172981569820     
 total        electrons   864.17172981569820     
 total        electrons   864.17172981569820     
 total        electrons   864.17172981569820     
 total        electrons   864.17172981569820     
 total        electrons   864.17172981569820     
 total        electrons   864.17172981569820     
 total        electrons   864.17172981569820     
 total        electrons   864.17172981569820     
 total        electrons   864.17172981569820     
 total        electrons   864.17172981569820     
 total        electrons   864.17172981569820     
 total        electrons   864.17172981569820     
 total        electrons   864.17172981569820     
 total        electrons   864.17172981569820     
 total        electrons   864.17172981569820     
 total        electrons   864.17172981569820     
 total        electrons   864.17172981569820     
 total        electrons   864.17172981569820     
 total        electrons   864.17172981569820     
 total        electrons   864.17172981569820     
 total        electrons   864.17172981569820     
 total        electrons   864.17172981569820     
 total        electrons   864.17172981569820     
 total        electrons   864.17172981569820     
 total        electrons   864.17172981569820     
 total        electrons   864.17172981569820     
 total        electrons   864.17172981569820     
 total        electrons   864.17172981569820     
 total        electrons   864.17172981569820     
 total        electrons   864.17172981569820     
 total        electrons   864.17172981569820     
 entering main loop
       N       E                     dE             d eps       ncg     rms          rms(c)
DAV:   1     0.308028883364E+04    0.30803E+04   -0.94656E+04 23936   0.132E+03
DAV:   2     0.104576219081E+03   -0.29757E+04   -0.27653E+04 25376   0.344E+02
DAV:   3    -0.625727044812E+03   -0.73030E+03   -0.70329E+03 33984   0.204E+02
DAV:   4    -0.699851509424E+03   -0.74124E+02   -0.70828E+02 39176   0.725E+01
DAV:   5    -0.704265009347E+03   -0.44135E+01   -0.41695E+01 39832   0.181E+01    0.142E+02
RMM:   6    -0.640960174500E+03    0.63305E+02   -0.14502E+03 28647   0.117E+02    0.704E+01
RMM:   7    -0.672405754429E+03   -0.31446E+02   -0.86764E+02 29061   0.105E+02    0.530E+01
RMM:   8    -0.595383155256E+03    0.77023E+02   -0.95145E+01 24771   0.360E+01    0.270E+01
RMM:   9    -0.598909425398E+03   -0.35263E+01   -0.64715E+01 25156   0.267E+01    0.269E+01
RMM:  10    -0.581682494830E+03    0.17227E+02   -0.21653E+01 30478   0.119E+01    0.175E+01
RMM:  11    -0.581754999477E+03   -0.72505E-01   -0.60127E+00 27253   0.570E+00    0.158E+01
RMM:  12    -0.581789679426E+03   -0.34680E-01   -0.15032E+00 31748   0.250E+00    0.144E+01
RMM:  13    -0.580958133078E+03    0.83155E+00   -0.22891E+00 27096   0.481E+00    0.107E+01
RMM:  14    -0.581300055097E+03   -0.34192E+00   -0.57167E+00 24891   0.765E+00    0.931E+00
RMM:  15    -0.580528338085E+03    0.77172E+00   -0.17603E+00 26376   0.454E+00    0.401E+00
RMM:  16    -0.580506833283E+03    0.21505E-01   -0.94933E-01 26540   0.284E+00    0.293E+00
RMM:  17    -0.580461592534E+03    0.45241E-01   -0.50853E-01 31856   0.131E+00    0.217E+00
RMM:  18    -0.580443586012E+03    0.18007E-01   -0.16260E-01 25488   0.115E+00    0.199E+00
RMM:  19    -0.580408969726E+03    0.34616E-01   -0.11114E-01 29019   0.865E-01    0.117E+00
RMM:  20    -0.580404705343E+03    0.42644E-02   -0.13142E-01 28887   0.934E-01    0.110E+00
RMM:  21    -0.580398895184E+03    0.58102E-02   -0.63799E-02 26257   0.694E-01    0.808E-01
RMM:  22    -0.580396929511E+03    0.19657E-02   -0.24729E-02 29443   0.300E-01    0.593E-01
RMM:  23    -0.580395041140E+03    0.18884E-02   -0.12606E-02 29120   0.294E-01    0.299E-01
RMM:  24    -0.580396208744E+03   -0.11676E-02   -0.89459E-03 30714   0.225E-01    0.284E-01
RMM:  25    -0.580396156978E+03    0.51767E-04   -0.34419E-03 27060   0.172E-01    0.143E-01
RMM:  26    -0.580397070749E+03   -0.91377E-03   -0.29499E-03 31355   0.117E-01    0.140E-01
RMM:  27    -0.580397775350E+03   -0.70460E-03   -0.13853E-03 30991   0.872E-02    0.900E-02
RMM:  28    -0.580398267975E+03   -0.49262E-03   -0.81768E-04 30185   0.719E-02    0.734E-02
RMM:  29    -0.580399188322E+03   -0.92035E-03   -0.45499E-04 30789   0.468E-02    0.591E-02
RMM:  30    -0.580399639506E+03   -0.45118E-03   -0.34920E-04 28040   0.496E-02    0.507E-02
RMM:  31    -0.580399836820E+03   -0.19731E-03   -0.14859E-04 29272   0.267E-02    0.442E-02
RMM:  32    -0.580400081984E+03   -0.24516E-03   -0.13460E-04 24130   0.385E-02    0.197E-02
RMM:  33    -0.580400176241E+03   -0.94257E-04   -0.89006E-05 28727   0.131E-02    0.207E-02
RMM:  34    -0.580400261972E+03   -0.85731E-04   -0.16104E-05 20756   0.976E-03    0.159E-02
RMM:  35    -0.580400320639E+03   -0.58667E-04   -0.86287E-06 18769   0.898E-03    0.119E-02
RMM:  36    -0.580400396149E+03   -0.75510E-04   -0.19821E-05 20588   0.103E-02    0.636E-03
RMM:  37    -0.580400483423E+03   -0.87274E-04   -0.15234E-05 24093   0.697E-03    0.119E-02
RMM:  38    -0.580400535213E+03   -0.51789E-04   -0.26847E-06 15972   0.583E-03    0.985E-03
RMM:  39    -0.580400586356E+03   -0.51143E-04   -0.39531E-06 17428   0.546E-03    0.527E-03
RMM:  40    -0.580400652983E+03   -0.66627E-04   -0.76518E-06 20268   0.462E-03    0.434E-03
RMM:  41    -0.580400697770E+03   -0.44787E-04   -0.29616E-06 15948   0.437E-03    0.336E-03
RMM:  42    -0.580400719023E+03   -0.21252E-04   -0.15170E-06 15113   0.230E-03    0.129E-03
RMM:  43    -0.580400738402E+03   -0.19380E-04   -0.17294E-06 15192   0.205E-03    0.131E-03
RMM:  44    -0.580400743336E+03   -0.49332E-05   -0.53800E-07 12627   0.190E-03    0.118E-03
RMM:  45    -0.580400746239E+03   -0.29037E-05   -0.33053E-07 12487   0.163E-03    0.397E-04
RMM:  46    -0.580400749243E+03   -0.30033E-05   -0.33849E-07  8054   0.866E-04    0.313E-04
RMM:  47    -0.580400750064E+03   -0.82101E-06   -0.15893E-07  7969   0.982E-04
   1 F= -.58040075E+03 E0= -.58040211E+03  d E =-.580401E+03
 curvature:   0.00 expect dE= 0.000E+00 dE for cont linesearch  0.000E+00
 trial: gam= 0.00000 g(F)=  0.528E-04 g(S)=  0.000E+00 ort = 0.000E+00 (trialstep = 0.100E+01)
 search vector abs. value=  0.528E-04
 bond charge predicted
       N       E                     dE             d eps       ncg     rms          rms(c)
DAV:   1    -0.580400793132E+03   -0.43889E-04   -0.91383E-04 26512   0.550E-02    0.104E-02
RMM:   2    -0.580400792483E+03    0.64906E-06   -0.15897E-05 20535   0.124E-02    0.642E-03
RMM:   3    -0.580400793770E+03   -0.12871E-05   -0.97663E-06 21978   0.777E-03    0.104E-02
RMM:   4    -0.580400792844E+03    0.92518E-06   -0.30447E-06 16451   0.756E-03    0.642E-03
RMM:   5    -0.580400792589E+03    0.25544E-06   -0.11560E-06 14460   0.399E-03
   2 F= -.58040079E+03 E0= -.58040216E+03  d E =-.425254E-04
 trial-energy change:   -0.000043  1 .order   -0.000042   -0.000053   -0.000030
 step:   2.3535(harm=  2.3535)  dis= 0.00324  next Energy=  -580.400812 (dE=-0.622E-04)
 bond charge predicted
       N       E                     dE             d eps       ncg     rms          rms(c)
DAV:   1    -0.580400815015E+03   -0.22170E-04   -0.16713E-03 26128   0.750E-02    0.143E-02
RMM:   2    -0.580400815533E+03   -0.51832E-06   -0.31127E-05 22632   0.190E-02    0.118E-02
RMM:   3    -0.580400822663E+03   -0.71298E-05   -0.18309E-05 22910   0.140E-02    0.257E-02
RMM:   4    -0.580400820068E+03    0.25947E-05   -0.12905E-05 21610   0.115E-02    0.208E-02
RMM:   5    -0.580400814763E+03    0.53049E-05   -0.62327E-06 17917   0.946E-03    0.713E-03
RMM:   6    -0.580400814350E+03    0.41270E-06   -0.24756E-06 15760   0.577E-03
   3 F= -.58040081E+03 E0= -.58040218E+03  d E =-.642868E-04
 curvature:  -1.18 expect dE=-0.372E-04 dE for cont linesearch -0.329E-07
 trial: gam= 0.57608 g(F)=  0.316E-04 g(S)=  0.000E+00 ort = 0.121E-05 (trialstep = 0.127E+01)
 search vector abs. value=  0.506E-04
 bond charge predicted
       N       E                     dE             d eps       ncg     rms          rms(c)
DAV:   1    -0.580400850199E+03   -0.35436E-04   -0.13059E-03 25992   0.677E-02    0.116E-02
RMM:   2    -0.580400851840E+03   -0.16409E-05   -0.20301E-05 22239   0.157E-02    0.874E-03
RMM:   3    -0.580400857914E+03   -0.60741E-05   -0.11355E-05 21330   0.110E-02    0.216E-02
RMM:   4    -0.580400853748E+03    0.41655E-05   -0.58341E-06 17825   0.903E-03    0.119E-02
RMM:   5    -0.580400851989E+03    0.17599E-05   -0.33372E-06 17013   0.826E-03    0.470E-03
RMM:   6    -0.580400851874E+03    0.11481E-06   -0.10694E-06 14166   0.398E-03
   4 F= -.58040085E+03 E0= -.58040222E+03  d E =-.375233E-04
 ZBRENT: can't locate minimum, use default step
 trial-energy change:   -0.000038  1 .order   -0.000037   -0.000041   -0.000034
 step:   5.0828(harm=  7.0654)  dis= 0.00511  next Energy=  -580.400929 (dE=-0.114E-03)
 bond charge predicted
       N       E                     dE             d eps       ncg     rms          rms(c)
DAV:   1    -0.580400908978E+03   -0.56989E-04   -0.11767E-02 25440   0.202E-01    0.333E-02
RMM:   2    -0.580400922154E+03   -0.13177E-04   -0.15673E-04 26213   0.412E-02    0.259E-02
RMM:   3    -0.580400974556E+03   -0.52402E-04   -0.97919E-05 27962   0.290E-02    0.641E-02
RMM:   4    -0.580400941996E+03    0.32560E-04   -0.60492E-05 24856   0.256E-02    0.412E-02
RMM:   5    -0.580400923284E+03    0.18713E-04   -0.30236E-05 22427   0.199E-02    0.166E-02
RMM:   6    -0.580400920486E+03    0.27971E-05   -0.10455E-05 19672   0.108E-02    0.716E-03
RMM:   7    -0.580400920406E+03    0.80778E-07   -0.49162E-06 16961   0.647E-03
   5 F= -.58040092E+03 E0= -.58040229E+03  d E =-.106055E-03
 curvature:  -4.88 expect dE=-0.185E-04 dE for cont linesearch -0.723E-05
 trial: gam=-0.10674 g(F)=  0.379E-05 g(S)=  0.000E+00 ort = 0.866E-05 (trialstep = 0.203E+01)
 search vector abs. value=  0.252E-05
 reached required accuracy - stopping structural energy minimisation
 augmentation electrons   35.558398559912234     
 soft         electrons   241.53690126787129     
 augmentation electrons   35.558398559912234     
 soft         electrons   241.53690126787129     
 augmentation electrons   35.558398559912234     
 soft         electrons   241.53690126787129     
 augmentation electrons   35.558398559912234     
 soft         electrons   241.53690126787129     
 augmentation electrons   35.558398559912234     
 soft         electrons   241.53690126787129     
 augmentation electrons   35.558398559912234     
 soft         electrons   241.53690126787129     
 augmentation electrons   35.558398559912234     
 soft         electrons   241.53690126787129     
 augmentation electrons   35.558398559912234     
 soft         electrons   241.53690126787129     
 augmentation electrons   35.558398559912234     
 soft         electrons   241.53690126787129     
 augmentation electrons   35.558398559912234     
 soft         electrons   241.53690126787129     
 augmentation electrons   35.558398559912234     
 soft         electrons   241.53690126787129     
 augmentation electrons   35.558398559912234     
 soft         electrons   241.53690126787129     
 augmentation electrons   35.558398559912234     
 soft         electrons   241.53690126787129     
 augmentation electrons   35.558398559912234     
 soft         electrons   241.53690126787129     
 augmentation electrons   35.558398559912234     
 soft         electrons   241.53690126787129     
 augmentation electrons   35.558398559912234     
 soft         electrons   241.53690126787129     
 augmentation electrons   35.558398559912234     
 soft         electrons   241.53690126787129     
 augmentation electrons   35.558398559912234     
 soft         electrons   241.53690126787129     
 augmentation electrons   35.558398559912234     
 soft         electrons   241.53690126787129     
 augmentation electrons   35.558398559912234     
 soft         electrons   241.53690126787129     
 augmentation electrons   35.558398559912234     
 soft         electrons   241.53690126787129     
 augmentation electrons   35.558398559912234     
 soft         electrons   241.53690126787129     
 augmentation electrons   35.558398559912234     
 soft         electrons   241.53690126787129     
 augmentation electrons   35.558398559912234     
 soft         electrons   241.53690126787129     
 augmentation electrons   35.558398559912234     
 soft         electrons   241.53690126787129     
 augmentation electrons   35.558398559912234     
 soft         electrons   241.53690126787129     
 augmentation electrons   35.558398559912234     
 soft         electrons   241.53690126787129     
 augmentation electrons   35.558398559912234     
 soft         electrons   241.53690126787129     
 augmentation electrons   35.558398559912234     
 soft         electrons   241.53690126787129     
 augmentation electrons   35.558398559912234     
 soft         electrons   241.53690126787129     
 augmentation electrons   35.558398559912234     
 soft         electrons   241.53690126787129     
 augmentation electrons   35.558398559912234     
 soft         electrons   241.53690126787129     
 augmentation electrons   35.558398559912234     
 soft         electrons   241.53690126787129     
 augmentation electrons   35.558398559912234     
 soft         electrons   241.53690126787129     
 augmentation electrons   35.558398559912234     
 soft         electrons   241.53690126787129     
 augmentation electrons   35.558398559912234     
 soft         electrons   241.53690126787129     
 augmentation electrons   35.558398559912234     
 soft         electrons   241.53690126787129     
 augmentation electrons   35.558398559912234     
 soft         electrons   241.53690126787129     
 augmentation electrons   35.558398559912234     
 soft         electrons   241.53690126787129     
 augmentation electrons   35.558398559912234     
 soft         electrons   241.53690126787129     
 augmentation electrons   35.558398559912234     
 soft         electrons   241.53690126787129     
 augmentation electrons   35.558398559912234     
 soft         electrons   241.53690126787129     
 augmentation electrons   35.558398559912234     
 soft         electrons   241.53690126787129     
 augmentation electrons   35.558398559912234     
 soft         electrons   241.53690126787129     
 augmentation electrons   35.558398559912234     
 soft         electrons   241.53690126787129     
 augmentation electrons   35.558398559912234     
 soft         electrons   241.53690126787129     
 augmentation electrons   35.558398559912234     
 soft         electrons   241.53690126787129     
 augmentation electrons   35.558398559912234     
 soft         electrons   241.53690126787129     
 augmentation electrons   35.558398559912234     
 soft         electrons   241.53690126787129     
 augmentation electrons   35.558398559912234     
 soft         electrons   241.53690126787129     
 augmentation electrons   35.558398559912234     
 soft         electrons   241.53690126787129     
 augmentation electrons   35.558398559912234     
 soft         electrons   241.53690126787129     
 augmentation electrons   35.558398559912234     
 soft         electrons   241.53690126787129     
 augmentation electrons   35.558398559912234     
 soft         electrons   241.53690126787129     
 augmentation electrons   35.558398559912234     
 soft         electrons   241.53690126787129     
 augmentation electrons   35.558398559912234     
 soft         electrons   241.53690126787129     
 augmentation electrons   35.558398559912234     
 soft         electrons   241.53690126787129     
 augmentation electrons   35.558398559912234     
 soft         electrons   241.53690126787129     
 augmentation electrons   35.558398559912234     
 soft         electrons   241.53690126787129     
 augmentation electrons   35.558398559912234     
 soft         electrons   241.53690126787129     
 augmentation electrons   35.558398559912234     
 soft         electrons   241.53690126787129     
 augmentation electrons   35.558398559912234     
 soft         electrons   241.53690126787129     
 augmentation electrons   35.558398559912234     
 soft         electrons   241.53690126787129     
 augmentation electrons   35.558398559912234     
 soft         electrons   241.53690126787129     
 augmentation electrons   35.558398559912234     
 soft         electrons   241.53690126787129     
 augmentation electrons   35.558398559912234     
 soft         electrons   241.53690126787129     
 augmentation electrons   35.558398559912234     
 soft         electrons   241.53690126787129     
 augmentation electrons   35.558398559912234     
 soft         electrons   241.53690126787129     
 augmentation electrons   35.558398559912234     
 soft         electrons   241.53690126787129     
 augmentation electrons   35.558398559912234     
 soft         electrons   241.53690126787129     
 augmentation electrons   35.558398559912234     
 soft         electrons   241.53690126787129     
 augmentation electrons   35.558398559912234     
 soft         electrons   241.53690126787129     
 total        electrons   277.09529982778349     
 total        electrons   277.09529982778349     
 total        electrons   277.09529982778349     
 total        electrons   277.09529982778349     
 total        electrons   277.09529982778349     
 total        electrons   277.09529982778349     
 total        electrons   277.09529982778349     
 total        electrons   277.09529982778349     
 total        electrons   277.09529982778349     
 total        electrons   277.09529982778349     
 total        electrons   277.09529982778349     
 total        electrons   277.09529982778349     
 total        electrons   277.09529982778349     
 total        electrons   277.09529982778349     
 total        electrons   277.09529982778349     
 total        electrons   277.09529982778349     
 total        electrons   277.09529982778349     
 total        electrons   277.09529982778349     
 total        electrons   277.09529982778349     
 total        electrons   277.09529982778349     
 total        electrons   277.09529982778349     
 total        electrons   277.09529982778349     
 total        electrons   277.09529982778349     
 total        electrons   277.09529982778349     
 total        electrons   277.09529982778349     
 total        electrons   277.09529982778349     
 total        electrons   277.09529982778349     
 total        electrons   277.09529982778349     
 total        electrons   277.09529982778349     
 total        electrons   277.09529982778349     
 total        electrons   277.09529982778349     
 total        electrons   277.09529982778349     
 total        electrons   277.09529982778349     
 total        electrons   277.09529982778349     
 total        electrons   277.09529982778349     
 total        electrons   277.09529982778349     
 total        electrons   277.09529982778349     
 total        electrons   277.09529982778349     
 total        electrons   277.09529982778349     
 total        electrons   277.09529982778349     
 total        electrons   277.09529982778349     
 total        electrons   277.09529982778349     
 total        electrons   277.09529982778349     
 total        electrons   277.09529982778349     
 total        electrons   277.09529982778349     
 total        electrons   277.09529982778349     
 total        electrons   277.09529982778349     
 total        electrons   277.09529982778349     
 total        electrons   277.09529982778349     
 total        electrons   277.09529982778349     
 total        electrons   277.09529982778349     
 total        electrons   277.09529982778349     
 total        electrons   277.09529982778349     
 total        electrons   277.09529982778349     
 total        electrons   277.09529982778349     
 total        electrons   277.09529982778349     
 total        electrons   277.09529982778349     
 total        electrons   277.09529982778349     
 total        electrons   277.09529982778349     
 total        electrons   277.09529982778349     
 total        electrons   277.09529982778349     
 total        electrons   277.09529982778349     
 total        electrons   277.09529982778349     
 total        electrons   277.09529982778349     
 total        electrons   277.09529982778349     
 total        electrons   277.09529982778349     
 total        electrons   277.09529982778349     
 total        electrons   277.09529982778349     
 total        electrons   277.09529982778349     
 total        electrons   277.09529982778349     
 total        electrons   277.09529982778349     
 total        electrons   277.09529982778349     
Note: The following floating-point exceptions are signalling: IEEE_OVERFLOW_FLAG
Note: The following floating-point exceptions are signalling: IEEE_OVERFLOW_FLAG
Note: The following floating-point exceptions are signalling: IEEE_OVERFLOW_FLAG
Note: The following floating-point exceptions are signalling: IEEE_OVERFLOW_FLAG
Note: The following floating-point exceptions are signalling: IEEE_OVERFLOW_FLAG
Note: The following floating-point exceptions are signalling: IEEE_OVERFLOW_FLAG
Note: The following floating-point exceptions are signalling: IEEE_OVERFLOW_FLAG
Note: The following floating-point exceptions are signalling: IEEE_OVERFLOW_FLAG
Note: The following floating-point exceptions are signalling: IEEE_OVERFLOW_FLAG
Note: The following floating-point exceptions are signalling: IEEE_OVERFLOW_FLAG
Note: The following floating-point exceptions are signalling: IEEE_OVERFLOW_FLAG
Note: The following floating-point exceptions are signalling: IEEE_OVERFLOW_FLAG
Note: The following floating-point exceptions are signalling: IEEE_OVERFLOW_FLAG
Note: The following floating-point exceptions are signalling: IEEE_OVERFLOW_FLAG
Note: The following floating-point exceptions are signalling: IEEE_OVERFLOW_FLAG
Note: The following floating-point exceptions are signalling: IEEE_OVERFLOW_FLAG
Note: The following floating-point exceptions are signalling: IEEE_OVERFLOW_FLAG
Note: The following floating-point exceptions are signalling: IEEE_OVERFLOW_FLAG
Note: The following floating-point exceptions are signalling: IEEE_OVERFLOW_FLAG
Note: The following floating-point exceptions are signalling: IEEE_OVERFLOW_FLAG
Note: The following floating-point exceptions are signalling: IEEE_OVERFLOW_FLAG
Note: The following floating-point exceptions are signalling: IEEE_OVERFLOW_FLAG
Note: The following floating-point exceptions are signalling: IEEE_OVERFLOW_FLAG
Note: The following floating-point exceptions are signalling: IEEE_OVERFLOW_FLAG
Note: The following floating-point exceptions are signalling: IEEE_OVERFLOW_FLAG
Note: The following floating-point exceptions are signalling: IEEE_OVERFLOW_FLAG
Note: The following floating-point exceptions are signalling: IEEE_OVERFLOW_FLAG
Note: The following floating-point exceptions are signalling: IEEE_OVERFLOW_FLAG
Note: The following floating-point exceptions are signalling: IEEE_OVERFLOW_FLAG
Note: The following floating-point exceptions are signalling: IEEE_OVERFLOW_FLAG
Note: The following floating-point exceptions are signalling: IEEE_OVERFLOW_FLAG
Note: The following floating-point exceptions are signalling: IEEE_OVERFLOW_FLAG
Note: The following floating-point exceptions are signalling: IEEE_OVERFLOW_FLAG
Note: The following floating-point exceptions are signalling: IEEE_OVERFLOW_FLAG
Note: The following floating-point exceptions are signalling: IEEE_OVERFLOW_FLAG
Note: The following floating-point exceptions are signalling: IEEE_OVERFLOW_FLAG
Note: The following floating-point exceptions are signalling: IEEE_OVERFLOW_FLAG
Note: The following floating-point exceptions are signalling: IEEE_OVERFLOW_FLAG
Note: The following floating-point exceptions are signalling: IEEE_OVERFLOW_FLAG
Note: The following floating-point exceptions are signalling: IEEE_OVERFLOW_FLAG
Note: The following floating-point exceptions are signalling: IEEE_OVERFLOW_FLAG
Note: The following floating-point exceptions are signalling: IEEE_OVERFLOW_FLAG
Note: The following floating-point exceptions are signalling: IEEE_OVERFLOW_FLAG
Note: The following floating-point exceptions are signalling: IEEE_OVERFLOW_FLAG
Note: The following floating-point exceptions are signalling: IEEE_OVERFLOW_FLAG
Note: The following floating-point exceptions are signalling: IEEE_OVERFLOW_FLAG
Note: The following floating-point exceptions are signalling: IEEE_OVERFLOW_FLAG
Note: The following floating-point exceptions are signalling: IEEE_OVERFLOW_FLAG
Note: The following floating-point exceptions are signalling: IEEE_OVERFLOW_FLAG
Note: The following floating-point exceptions are signalling: IEEE_OVERFLOW_FLAG
Note: The following floating-point exceptions are signalling: IEEE_OVERFLOW_FLAG
Note: The following floating-point exceptions are signalling: IEEE_OVERFLOW_FLAG
Note: The following floating-point exceptions are signalling: IEEE_OVERFLOW_FLAG
Note: The following floating-point exceptions are signalling: IEEE_OVERFLOW_FLAG
Note: The following floating-point exceptions are signalling: IEEE_OVERFLOW_FLAG
Note: The following floating-point exceptions are signalling: IEEE_OVERFLOW_FLAG
Note: The following floating-point exceptions are signalling: IEEE_OVERFLOW_FLAG
Note: The following floating-point exceptions are signalling: IEEE_OVERFLOW_FLAG
Note: The following floating-point exceptions are signalling: IEEE_OVERFLOW_FLAG
Note: The following floating-point exceptions are signalling: IEEE_OVERFLOW_FLAG
Note: The following floating-point exceptions are signalling: IEEE_OVERFLOW_FLAG
Note: The following floating-point exceptions are signalling: IEEE_OVERFLOW_FLAG
Note: The following floating-point exceptions are signalling: IEEE_OVERFLOW_FLAG
Note: The following floating-point exceptions are signalling: IEEE_OVERFLOW_FLAG
Note: The following floating-point exceptions are signalling: IEEE_OVERFLOW_FLAG
Note: The following floating-point exceptions are signalling: IEEE_OVERFLOW_FLAG
Note: The following floating-point exceptions are signalling: IEEE_OVERFLOW_FLAG
Note: The following floating-point exceptions are signalling: IEEE_OVERFLOW_FLAG
Note: The following floating-point exceptions are signalling: IEEE_OVERFLOW_FLAG
Note: The following floating-point exceptions are signalling: IEEE_OVERFLOW_FLAG
Note: The following floating-point exceptions are signalling: IEEE_OVERFLOW_FLAG
Note: The following floating-point exceptions are signalling: IEEE_OVERFLOW_FLAG
