   56   56    1    1
  0.1275712E+02  0.6078000E-09  0.6078000E-09  0.2233000E-08  0.5000000E-15
   1.0000000000000000E-004
  CAR 
 Name                                    
    204     41    132

  0.3742002E-15  0.3742002E-15  0.1262379E-14  0.1234568E-01
    1      -11.113966   1.000000
    2      -10.536973   1.000000
    3       -9.740204   1.000000
    4       -8.678356   1.000000
    5       -8.262823   1.000000
    6       -8.232404   1.000000
    7       -7.839648   1.000000
    8       -7.771279   1.000000
    9       -7.648222   1.000000
   10       -7.517149   1.000000
   11       -7.374012   1.000000
   12       -7.339683   1.000000
   13       -7.310532   1.000000
   14       -7.303988   1.000000
   15       -6.987216   1.000000
   16       -6.978451   1.000000
   17       -6.927139   1.000000
   18       -6.771041   1.000000
   19       -6.699864   1.000000
   20       -6.668264   1.000000
   21       -6.420995   1.000000
   22       -5.880633   1.000000
   23       -5.778091   1.000000
   24       -5.552378   1.000000
   25       -5.488446   1.000000
   26       -5.432779   1.000000
   27       -5.407305   1.000000
   28       -5.254107   1.000000
   29       -5.077970   1.000000
   30       -4.788754   1.000000
   31       -4.758314   1.000000
   32       -4.281660   1.000000
   33       -4.169739   1.000000
   34       -4.135087   1.000000
   35       -3.927895   1.000000
   36       -3.745452   1.000000
   37       -3.711260   1.000000
   38       -3.185349   1.000000
   39       -2.974300   1.000000
   40       -2.838826   1.000000
   41       -2.659576   1.000000
   42       -2.629667   1.000000
   43       -2.439297   1.000000
   44       -2.336034   1.000000
   45       -2.257110   1.000000
   46       -2.101711   1.000000
   47       -2.091342   1.000000
   48       -1.957055   1.000000
   49       -1.918823   1.000000
   50       -1.735697   1.000000
   51       -1.703325   1.000000
   52       -1.610012   1.000000
   53       -1.578116   1.000000
   54       -1.507488   1.000000
   55       -1.478245   1.000000
   56       -1.424283   1.000000
   57       -1.379843   1.000000
   58       -1.239447   1.000000
   59       -1.188805   1.000000
   60       -1.165586   1.000000
   61       -1.152909   1.000000
   62       -1.119514   1.000000
   63       -1.041405   1.000000
   64       -0.886663   1.000000
   65       -0.744187   1.000000
   66       -0.721797   1.000000
   67       -0.701371   1.000000
   68       -0.527413   1.000000
   69       -0.446030   1.000000
   70       -0.429396   1.000000
   71       -0.394353   1.000000
   72       -0.340043   1.000000
   73       -0.297237   1.000000
   74       -0.284136   1.000000
   75        0.006454   1.000000
   76        0.122125   1.000000
   77        0.215200   1.000000
   78        0.245160   1.000000
   79        0.333843   1.000000
   80        0.517791   1.000000
   81        0.809259   1.000000
   82        0.815481   1.000000
   83        0.888383   1.000000
   84        0.992195   1.000000
   85        1.473543   1.000000
   86        1.623397   1.000000
   87        1.628213   1.000000
   88        1.654751   1.000000
   89        1.762251   1.000000
   90        1.789306   1.000000
   91        1.826472   1.000000
   92        1.964945   1.000000
   93        2.007911   1.000000
   94        2.025067   1.000000
   95        2.092476   1.000000
   96        2.226017   1.000000
   97        2.402287   1.000000
   98        2.541201   1.000045
   99        2.757819   1.006939
  100        3.068903   0.863226
  101        3.145011   0.590051
  102        3.247422   0.186461
  103        3.371245  -0.027449
  104        3.441742  -0.032594
  105        3.506967  -0.018430
  106        3.613163  -0.003499
  107        3.774977  -0.000073
  108        3.871374  -0.000004
  109        3.959352  -0.000000
  110        3.970898  -0.000000
  111        3.996744  -0.000000
  112        4.077064  -0.000000
  113        4.183629  -0.000000
  114        4.259701  -0.000000
  115        4.272248  -0.000000
  116        4.330643  -0.000000
  117        4.424451  -0.000000
  118        4.470258  -0.000000
  119        4.489686  -0.000000
  120        4.640730  -0.000000
  121        4.674386  -0.000000
  122        4.719957  -0.000000
  123        4.753941  -0.000000
  124        4.818236  -0.000000
  125        5.173087  -0.000000
  126        5.354889  -0.000000
  127        5.553019  -0.000000
  128        5.777750  -0.000000
  129        6.021877  -0.000000
  130        6.329218  -0.000000
  131        6.421225  -0.000000
  132        6.621219  -0.000000

  0.1111111E+00  0.3687552E-15  0.1262379E-14  0.2469136E-01
    1      -11.056403   1.000000
    2      -10.484809   1.000000
    3       -9.700597   1.000000
    4       -8.644291   1.000000
    5       -8.265890   1.000000
    6       -8.227424   1.000000
    7       -7.950121   1.000000
    8       -7.918638   1.000000
    9       -7.813809   1.000000
   10       -7.714509   1.000000
   11       -7.614621   1.000000
   12       -7.555547   1.000000
   13       -7.419459   1.000000
   14       -7.395970   1.000000
   15       -7.071468   1.000000
   16       -6.752635   1.000000
   17       -6.739047   1.000000
   18       -6.552957   1.000000
   19       -6.498772   1.000000
   20       -6.388996   1.000000
   21       -6.187508   1.000000
   22       -5.874692   1.000000
   23       -5.758232   1.000000
   24       -5.606509   1.000000
   25       -5.474838   1.000000
   26       -5.424864   1.000000
   27       -5.314566   1.000000
   28       -5.276809   1.000000
   29       -5.017962   1.000000
   30       -4.878533   1.000000
   31       -4.643852   1.000000
   32       -4.166951   1.000000
   33       -4.106242   1.000000
   34       -3.963727   1.000000
   35       -3.871875   1.000000
   36       -3.680343   1.000000
   37       -3.506033   1.000000
   38       -3.171397   1.000000
   39       -2.969084   1.000000
   40       -2.812947   1.000000
   41       -2.687898   1.000000
   42       -2.600942   1.000000
   43       -2.544632   1.000000
   44       -2.305431   1.000000
   45       -2.290657   1.000000
   46       -2.161841   1.000000
   47       -2.123888   1.000000
   48       -2.047116   1.000000
   49       -1.990444   1.000000
   50       -1.928556   1.000000
   51       -1.717769   1.000000
   52       -1.660110   1.000000
   53       -1.549212   1.000000
   54       -1.520945   1.000000
   55       -1.514039   1.000000
   56       -1.417335   1.000000
   57       -1.305277   1.000000
   58       -1.230651   1.000000
   59       -1.192290   1.000000
   60       -1.178914   1.000000
   61       -1.126503   1.000000
   62       -1.088099   1.000000
   63       -1.045770   1.000000
   64       -0.953742   1.000000
   65       -0.799073   1.000000
   66       -0.790494   1.000000
   67       -0.709921   1.000000
   68       -0.687124   1.000000
   69       -0.560060   1.000000
   70       -0.497004   1.000000
   71       -0.405140   1.000000
   72       -0.367515   1.000000
   73       -0.223720   1.000000
   74       -0.160629   1.000000
   75       -0.038827   1.000000
   76        0.073912   1.000000
   77        0.144214   1.000000
   78        0.221953   1.000000
   79        0.348258   1.000000
   80        0.432340   1.000000
   81        0.550784   1.000000
   82        0.656345   1.000000
   83        0.846264   1.000000
   84        0.997306   1.000000
   85        1.289176   1.000000
   86        1.349063   1.000000
   87        1.510748   1.000000
   88        1.639182   1.000000
   89        1.702362   1.000000
   90        1.844594   1.000000
   91        1.871561   1.000000
   92        1.936993   1.000000
   93        1.963527   1.000000
   94        1.991447   1.000000
   95        2.116306   1.000000
   96        2.176691   1.000000
   97        2.571055   1.000106
   98        2.781158   1.010068
   99        2.929837   1.035173
  100        3.023775   0.964420
  101        3.163639   0.511804
  102        3.220256   0.281128
  103        3.259459   0.149638
  104        3.365262  -0.024511
  105        3.447336  -0.031605
  106        3.687495  -0.000714
  107        3.842079  -0.000010
  108        3.929665  -0.000000
  109        3.949055  -0.000000
  110        3.980958  -0.000000
  111        4.006719  -0.000000
  112        4.083403  -0.000000
  113        4.174283  -0.000000
  114        4.204607  -0.000000
  115        4.259306  -0.000000
  116        4.291159  -0.000000
  117        4.337570  -0.000000
  118        4.382335  -0.000000
  119        4.402540  -0.000000
  120        4.428862  -0.000000
  121        4.554750  -0.000000
  122        4.590179  -0.000000
  123        4.620254  -0.000000
  124        4.676558  -0.000000
  125        4.727885  -0.000000
  126        4.777970  -0.000000
  127        4.847424  -0.000000
  128        5.124226  -0.000000
  129        5.394631  -0.000000
  130        6.083499  -0.000000
  131        6.412602  -0.000000
  132        6.479745  -0.000000

  0.2222222E+00  0.3503827E-15  0.1262379E-14  0.2469136E-01
    1      -10.885901   1.000000
    2      -10.330868   1.000000
    3       -9.585528   1.000000
    4       -8.597227   1.000000
    5       -8.521047   1.000000
    6       -8.425566   1.000000
    7       -8.290901   1.000000
    8       -8.113508   1.000000
    9       -7.934682   1.000000
   10       -7.812890   1.000000
   11       -7.751131   1.000000
   12       -7.726722   1.000000
   13       -7.645064   1.000000
   14       -7.558354   1.000000
   15       -7.299906   1.000000
   16       -6.608777   1.000000
   17       -6.389443   1.000000
   18       -6.338004   1.000000
   19       -6.263138   1.000000
   20       -6.117601   1.000000
   21       -5.855521   1.000000
   22       -5.655338   1.000000
   23       -5.578261   1.000000
   24       -5.509782   1.000000
   25       -5.424371   1.000000
   26       -5.367122   1.000000
   27       -5.292918   1.000000
   28       -5.109079   1.000000
   29       -4.812329   1.000000
   30       -4.705902   1.000000
   31       -4.388862   1.000000
   32       -3.995419   1.000000
   33       -3.969659   1.000000
   34       -3.795262   1.000000
   35       -3.547101   1.000000
   36       -3.444917   1.000000
   37       -3.149973   1.000000
   38       -3.090733   1.000000
   39       -2.978811   1.000000
   40       -2.898140   1.000000
   41       -2.814795   1.000000
   42       -2.721907   1.000000
   43       -2.695150   1.000000
   44       -2.565098   1.000000
   45       -2.455388   1.000000
   46       -2.229053   1.000000
   47       -2.177450   1.000000
   48       -2.126790   1.000000
   49       -1.953189   1.000000
   50       -1.885857   1.000000
   51       -1.789046   1.000000
   52       -1.724856   1.000000
   53       -1.595267   1.000000
   54       -1.573256   1.000000
   55       -1.504405   1.000000
   56       -1.501705   1.000000
   57       -1.407242   1.000000
   58       -1.341545   1.000000
   59       -1.277282   1.000000
   60       -1.183135   1.000000
   61       -1.137929   1.000000
   62       -1.108960   1.000000
   63       -1.090930   1.000000
   64       -1.059779   1.000000
   65       -0.946435   1.000000
   66       -0.921790   1.000000
   67       -0.813295   1.000000
   68       -0.790443   1.000000
   69       -0.735911   1.000000
   70       -0.613201   1.000000
   71       -0.458933   1.000000
   72       -0.402237   1.000000
   73       -0.308460   1.000000
   74       -0.227363   1.000000
   75       -0.163396   1.000000
   76       -0.092669   1.000000
   77       -0.065226   1.000000
   78        0.187181   1.000000
   79        0.312929   1.000000
   80        0.346058   1.000000
   81        0.440520   1.000000
   82        0.554663   1.000000
   83        0.802864   1.000000
   84        0.928394   1.000000
   85        1.022393   1.000000
   86        1.104603   1.000000
   87        1.353149   1.000000
   88        1.415048   1.000000
   89        1.663652   1.000000
   90        1.669802   1.000000
   91        1.791728   1.000000
   92        1.832804   1.000000
   93        1.855950   1.000000
   94        1.967167   1.000000
   95        2.150397   1.000000
   96        2.235548   1.000000
   97        2.550385   1.000059
   98        2.714062   1.003139
   99        2.857476   1.025619
  100        3.074071   0.848393
  101        3.143874   0.594766
  102        3.348106  -0.012823
  103        3.375521  -0.029225
  104        3.482402  -0.023998
  105        3.615096  -0.003372
  106        3.668569  -0.001104
  107        3.781935  -0.000060
  108        3.806560  -0.000029
  109        3.834350  -0.000012
  110        3.853443  -0.000007
  111        3.921840  -0.000001
  112        4.008490  -0.000000
  113        4.096192  -0.000000
  114        4.120793  -0.000000
  115        4.146988  -0.000000
  116        4.190092  -0.000000
  117        4.288646  -0.000000
  118        4.300618  -0.000000
  119        4.355098  -0.000000
  120        4.412605  -0.000000
  121        4.478063  -0.000000
  122        4.527707  -0.000000
  123        4.604226  -0.000000
  124        4.678627  -0.000000
  125        4.731906  -0.000000
  126        4.866498  -0.000000
  127        4.966456  -0.000000
  128        5.059672  -0.000000
  129        5.261977  -0.000000
  130        5.432978  -0.000000
  131        6.206339  -0.000000
  132        6.844277  -0.000000

  0.3333333E+00  0.3767071E-15  0.1262379E-14  0.2469136E-01
    1      -10.609727   1.000000
    2      -10.083275   1.000000
    3       -9.408832   1.000000
    4       -9.178796   1.000000
    5       -8.854747   1.000000
    6       -8.567968   1.000000
    7       -8.373864   1.000000
    8       -8.042077   1.000000
    9       -7.971545   1.000000
   10       -7.928365   1.000000
   11       -7.843708   1.000000
   12       -7.756498   1.000000
   13       -7.748849   1.000000
   14       -7.663999   1.000000
   15       -7.582608   1.000000
   16       -6.961055   1.000000
   17       -6.176733   1.000000
   18       -6.080604   1.000000
   19       -6.018938   1.000000
   20       -5.775263   1.000000
   21       -5.694683   1.000000
   22       -5.575315   1.000000
   23       -5.484155   1.000000
   24       -5.425442   1.000000
   25       -5.354499   1.000000
   26       -5.251860   1.000000
   27       -4.738072   1.000000
   28       -4.581645   1.000000
   29       -4.422669   1.000000
   30       -4.225157   1.000000
   31       -4.092602   1.000000
   32       -3.803757   1.000000
   33       -3.707393   1.000000
   34       -3.695029   1.000000
   35       -3.424981   1.000000
   36       -3.306403   1.000000
   37       -3.276913   1.000000
   38       -3.211314   1.000000
   39       -3.173474   1.000000
   40       -3.090246   1.000000
   41       -2.999944   1.000000
   42       -2.940666   1.000000
   43       -2.658319   1.000000
   44       -2.495277   1.000000
   45       -2.391085   1.000000
   46       -2.313411   1.000000
   47       -2.121666   1.000000
   48       -2.070533   1.000000
   49       -2.001627   1.000000
   50       -1.931550   1.000000
   51       -1.905541   1.000000
   52       -1.843642   1.000000
   53       -1.787002   1.000000
   54       -1.701282   1.000000
   55       -1.691355   1.000000
   56       -1.566129   1.000000
   57       -1.474941   1.000000
   58       -1.456411   1.000000
   59       -1.372975   1.000000
   60       -1.357467   1.000000
   61       -1.284034   1.000000
   62       -1.224249   1.000000
   63       -1.165455   1.000000
   64       -1.136235   1.000000
   65       -1.033833   1.000000
   66       -1.012845   1.000000
   67       -0.890099   1.000000
   68       -0.865471   1.000000
   69       -0.759864   1.000000
   70       -0.726256   1.000000
   71       -0.559349   1.000000
   72       -0.462872   1.000000
   73       -0.407973   1.000000
   74       -0.385433   1.000000
   75       -0.253608   1.000000
   76       -0.187393   1.000000
   77       -0.169314   1.000000
   78       -0.140656   1.000000
   79        0.148165   1.000000
   80        0.285656   1.000000
   81        0.469632   1.000000
   82        0.693626   1.000000
   83        0.743624   1.000000
   84        0.908656   1.000000
   85        1.017111   1.000000
   86        1.058648   1.000000
   87        1.279149   1.000000
   88        1.338450   1.000000
   89        1.408234   1.000000
   90        1.518806   1.000000
   91        1.665560   1.000000
   92        1.749420   1.000000
   93        1.803645   1.000000
   94        1.900070   1.000000
   95        2.027782   1.000000
   96        2.360469   1.000000
   97        2.448955   1.000002
   98        2.511082   1.000018
   99        2.704668   1.002606
  100        3.035599   0.942834
  101        3.047391   0.917842
  102        3.156293   0.542826
  103        3.297046   0.057583
  104        3.363515  -0.023549
  105        3.409692  -0.035447
  106        3.518906  -0.015918
  107        3.591329  -0.005238
  108        3.654559  -0.001503
  109        3.734911  -0.000219
  110        3.831979  -0.000013
  111        3.875192  -0.000003
  112        3.933425  -0.000000
  113        3.951381  -0.000000
  114        4.033680  -0.000000
  115        4.084462  -0.000000
  116        4.198732  -0.000000
  117        4.222895  -0.000000
  118        4.265646  -0.000000
  119        4.307049  -0.000000
  120        4.388521  -0.000000
  121        4.468493  -0.000000
  122        4.564418  -0.000000
  123        4.680517  -0.000000
  124        4.751913  -0.000000
  125        4.793132  -0.000000
  126        4.854148  -0.000000
  127        4.922136  -0.000000
  128        5.046310  -0.000000
  129        5.247081  -0.000000
  130        5.611249  -0.000000
  131        5.658149  -0.000000
  132        6.028778  -0.000000

  0.4444444E+00  0.3698634E-15  0.1262379E-14  0.2469136E-01
    1      -10.251916   1.000000
    2       -9.779597   1.000000
    3       -9.683947   1.000000
    4       -9.339742   1.000000
    5       -9.146840   1.000000
    6       -8.835805   1.000000
    7       -8.156589   1.000000
    8       -8.086981   1.000000
    9       -8.037398   1.000000
   10       -7.930319   1.000000
   11       -7.889117   1.000000
   12       -7.786669   1.000000
   13       -7.768883   1.000000
   14       -7.705173   1.000000
   15       -7.651517   1.000000
   16       -7.331891   1.000000
   17       -6.078459   1.000000
   18       -5.971425   1.000000
   19       -5.965459   1.000000
   20       -5.745123   1.000000
   21       -5.591048   1.000000
   22       -5.375138   1.000000
   23       -5.345936   1.000000
   24       -5.250562   1.000000
   25       -5.201816   1.000000
   26       -5.130173   1.000000
   27       -4.168783   1.000000
   28       -4.034077   1.000000
   29       -3.949036   1.000000
   30       -3.918602   1.000000
   31       -3.871579   1.000000
   32       -3.748504   1.000000
   33       -3.692926   1.000000
   34       -3.638093   1.000000
   35       -3.524810   1.000000
   36       -3.425594   1.000000
   37       -3.390837   1.000000
   38       -3.330898   1.000000
   39       -3.252529   1.000000
   40       -3.205724   1.000000
   41       -3.085647   1.000000
   42       -2.985612   1.000000
   43       -2.911040   1.000000
   44       -2.818021   1.000000
   45       -2.411646   1.000000
   46       -2.367955   1.000000
   47       -2.224108   1.000000
   48       -2.118332   1.000000
   49       -2.019770   1.000000
   50       -1.949111   1.000000
   51       -1.890071   1.000000
   52       -1.873438   1.000000
   53       -1.773922   1.000000
   54       -1.728468   1.000000
   55       -1.644330   1.000000
   56       -1.591529   1.000000
   57       -1.550720   1.000000
   58       -1.506678   1.000000
   59       -1.464924   1.000000
   60       -1.416246   1.000000
   61       -1.343858   1.000000
   62       -1.327315   1.000000
   63       -1.293246   1.000000
   64       -1.226794   1.000000
   65       -1.087007   1.000000
   66       -1.027144   1.000000
   67       -0.992734   1.000000
   68       -0.849019   1.000000
   69       -0.812612   1.000000
   70       -0.703396   1.000000
   71       -0.654595   1.000000
   72       -0.522737   1.000000
   73       -0.477038   1.000000
   74       -0.453240   1.000000
   75       -0.332018   1.000000
   76       -0.300854   1.000000
   77       -0.215419   1.000000
   78       -0.168776   1.000000
   79       -0.120952   1.000000
   80        0.396296   1.000000
   81        0.533174   1.000000
   82        0.581876   1.000000
   83        0.668853   1.000000
   84        0.941765   1.000000
   85        1.048099   1.000000
   86        1.151501   1.000000
   87        1.177717   1.000000
   88        1.300176   1.000000
   89        1.378829   1.000000
   90        1.448468   1.000000
   91        1.564225   1.000000
   92        1.686869   1.000000
   93        1.788762   1.000000
   94        1.969825   1.000000
   95        2.144958   1.000000
   96        2.269453   1.000000
   97        2.480749   1.000007
   98        2.502014   1.000014
   99        2.612423   1.000319
  100        2.667110   1.001176
  101        2.711070   1.002960
  102        3.046231   0.920458
  103        3.126628   0.664770
  104        3.205333   0.338784
  105        3.308016   0.037385
  106        3.363484  -0.023531
  107        3.445243  -0.031987
  108        3.544637  -0.011185
  109        3.626581  -0.002691
  110        3.725209  -0.000282
  111        3.789220  -0.000049
  112        3.802786  -0.000033
  113        3.872311  -0.000004
  114        3.950967  -0.000000
  115        3.976426  -0.000000
  116        4.123354  -0.000000
  117        4.219985  -0.000000
  118        4.234835  -0.000000
  119        4.277842  -0.000000
  120        4.376926  -0.000000
  121        4.550907  -0.000000
  122        4.696926  -0.000000
  123        4.721587  -0.000000
  124        4.794743  -0.000000
  125        4.866433  -0.000000
  126        4.977149  -0.000000
  127        5.114284  -0.000000
  128        5.230385  -0.000000
  129        5.387966  -0.000000
  130        5.558931  -0.000000
  131        5.673149  -0.000000
  132        5.782079  -0.000000

  0.3742002E-15  0.1111111E+00  0.1262379E-14  0.2469136E-01
    1      -11.056403   1.000000
    2      -10.484808   1.000000
    3       -9.700596   1.000000
    4       -8.644306   1.000000
    5       -8.265881   1.000000
    6       -8.227410   1.000000
    7       -7.950146   1.000000
    8       -7.918844   1.000000
    9       -7.813720   1.000000
   10       -7.714757   1.000000
   11       -7.614554   1.000000
   12       -7.555272   1.000000
   13       -7.419430   1.000000
   14       -7.395789   1.000000
   15       -7.071541   1.000000
   16       -6.752697   1.000000
   17       -6.739085   1.000000
   18       -6.552746   1.000000
   19       -6.498860   1.000000
   20       -6.389179   1.000000
   21       -6.187435   1.000000
   22       -5.874630   1.000000
   23       -5.758146   1.000000
   24       -5.606391   1.000000
   25       -5.474943   1.000000
   26       -5.424727   1.000000
   27       -5.314957   1.000000
   28       -5.276560   1.000000
   29       -5.018174   1.000000
   30       -4.878581   1.000000
   31       -4.644158   1.000000
   32       -4.166793   1.000000
   33       -4.106302   1.000000
   34       -3.963749   1.000000
   35       -3.871146   1.000000
   36       -3.680399   1.000000
   37       -3.506303   1.000000
   38       -3.171497   1.000000
   39       -2.969050   1.000000
   40       -2.813048   1.000000
   41       -2.688067   1.000000
   42       -2.600809   1.000000
   43       -2.544489   1.000000
   44       -2.305314   1.000000
   45       -2.290773   1.000000
   46       -2.161787   1.000000
   47       -2.124042   1.000000
   48       -2.047182   1.000000
   49       -1.990553   1.000000
   50       -1.928553   1.000000
   51       -1.717852   1.000000
   52       -1.659631   1.000000
   53       -1.549427   1.000000
   54       -1.520759   1.000000
   55       -1.514070   1.000000
   56       -1.417434   1.000000
   57       -1.305202   1.000000
   58       -1.230748   1.000000
   59       -1.192601   1.000000
   60       -1.178917   1.000000
   61       -1.126246   1.000000
   62       -1.087446   1.000000
   63       -1.046098   1.000000
   64       -0.954034   1.000000
   65       -0.799155   1.000000
   66       -0.790413   1.000000
   67       -0.709893   1.000000
   68       -0.686766   1.000000
   69       -0.560354   1.000000
   70       -0.496822   1.000000
   71       -0.405450   1.000000
   72       -0.367462   1.000000
   73       -0.224004   1.000000
   74       -0.160235   1.000000
   75       -0.038821   1.000000
   76        0.073701   1.000000
   77        0.144622   1.000000
   78        0.221561   1.000000
   79        0.348178   1.000000
   80        0.432439   1.000000
   81        0.550843   1.000000
   82        0.656208   1.000000
   83        0.846340   1.000000
   84        0.997258   1.000000
   85        1.289085   1.000000
   86        1.349140   1.000000
   87        1.510757   1.000000
   88        1.639067   1.000000
   89        1.702299   1.000000
   90        1.844623   1.000000
   91        1.871636   1.000000
   92        1.936801   1.000000
   93        1.963550   1.000000
   94        1.991220   1.000000
   95        2.116920   1.000000
   96        2.176714   1.000000
   97        2.570931   1.000106
   98        2.781538   1.010126
   99        2.929638   1.035187
  100        3.023695   0.964555
  101        3.163654   0.511738
  102        3.220244   0.281172
  103        3.259555   0.149357
  104        3.364908  -0.024320
  105        3.447518  -0.031571
  106        3.687926  -0.000707
  107        3.842351  -0.000010
  108        3.930225  -0.000000
  109        3.947852  -0.000000
  110        3.981593  -0.000000
  111        4.005633  -0.000000
  112        4.084251  -0.000000
  113        4.174219  -0.000000
  114        4.205080  -0.000000
  115        4.263888  -0.000000
  116        4.292670  -0.000000
  117        4.359614  -0.000000
  118        4.399318  -0.000000
  119        4.409786  -0.000000
  120        4.481233  -0.000000
  121        4.592488  -0.000000
  122        4.615579  -0.000000
  123        4.669682  -0.000000
  124        4.714754  -0.000000
  125        4.769968  -0.000000
  126        5.054018  -0.000000
  127        5.253135  -0.000000
  128        5.578278  -0.000000
  129        5.794713  -0.000000
  130        6.092962  -0.000000
  131        6.437235  -0.000000
  132        6.729837  -0.000000

  0.1111111E+00  0.1111111E+00  0.1262379E-14  0.2469136E-01
    1      -10.942093   1.000000
    2      -10.381571   1.000000
    3       -9.622879   1.000000
    4       -8.571145   1.000000
    5       -8.333936   1.000000
    6       -8.312265   1.000000
    7       -8.189558   1.000000
    8       -8.148615   1.000000
    9       -8.019913   1.000000
   10       -7.950853   1.000000
   11       -7.868787   1.000000
   12       -7.714711   1.000000
   13       -7.440757   1.000000
   14       -7.278933   1.000000
   15       -6.983723   1.000000
   16       -6.969423   1.000000
   17       -6.503338   1.000000
   18       -6.491215   1.000000
   19       -6.356629   1.000000
   20       -5.925560   1.000000
   21       -5.919137   1.000000
   22       -5.814312   1.000000
   23       -5.612181   1.000000
   24       -5.586337   1.000000
   25       -5.350320   1.000000
   26       -5.279659   1.000000
   27       -5.252873   1.000000
   28       -5.140633   1.000000
   29       -4.973758   1.000000
   30       -4.900808   1.000000
   31       -4.600022   1.000000
   32       -4.262885   1.000000
   33       -3.742730   1.000000
   34       -3.741882   1.000000
   35       -3.635692   1.000000
   36       -3.585186   1.000000
   37       -3.226454   1.000000
   38       -3.159009   1.000000
   39       -3.000459   1.000000
   40       -2.880638   1.000000
   41       -2.774388   1.000000
   42       -2.710491   1.000000
   43       -2.528897   1.000000
   44       -2.492423   1.000000
   45       -2.337245   1.000000
   46       -2.182525   1.000000
   47       -2.181028   1.000000
   48       -2.017691   1.000000
   49       -1.977695   1.000000
   50       -1.891287   1.000000
   51       -1.890768   1.000000
   52       -1.738749   1.000000
   53       -1.647553   1.000000
   54       -1.635939   1.000000
   55       -1.538286   1.000000
   56       -1.368050   1.000000
   57       -1.356351   1.000000
   58       -1.314839   1.000000
   59       -1.221302   1.000000
   60       -1.219347   1.000000
   61       -1.093764   1.000000
   62       -1.090772   1.000000
   63       -1.043855   1.000000
   64       -0.953029   1.000000
   65       -0.932583   1.000000
   66       -0.928505   1.000000
   67       -0.787518   1.000000
   68       -0.749587   1.000000
   69       -0.624149   1.000000
   70       -0.533695   1.000000
   71       -0.500552   1.000000
   72       -0.334734   1.000000
   73       -0.321208   1.000000
   74       -0.255767   1.000000
   75       -0.152614   1.000000
   76       -0.033626   1.000000
   77       -0.016474   1.000000
   78        0.132748   1.000000
   79        0.371682   1.000000
   80        0.404645   1.000000
   81        0.516424   1.000000
   82        0.589695   1.000000
   83        0.766805   1.000000
   84        0.808931   1.000000
   85        0.970722   1.000000
   86        1.256086   1.000000
   87        1.432668   1.000000
   88        1.591171   1.000000
   89        1.732332   1.000000
   90        1.748381   1.000000
   91        1.789052   1.000000
   92        1.804609   1.000000
   93        1.863030   1.000000
   94        1.931594   1.000000
   95        2.115207   1.000000
   96        2.300279   1.000000
   97        2.642743   1.000671
   98        2.716683   1.003302