 running on   54 total cores
 distrk:  each k-point on   54 cores,    1 groups
 distr:  one band on    9 cores,    6 groups
 using from now: INCAR     
 vasp.5.4.4.18Apr17-6-g9f103f2a35 (build Dec  7 2020 12:43:57) complex           
 POSCAR found type information on POSCAR  Mo V  B  H 
 POSCAR found :  4 types and      56 ions
 scaLAPACK will be used
 LDA part: xc-table for Pade appr. of Perdew
 POSCAR, INCAR and KPOINTS ok, starting setup
 resort distribution
 resort distribution
 resort distribution
 resort distribution
 resort distribution
 resort distribution
 resort distribution
 resort distribution
 resort distribution
 resort distribution
 resort distribution
 resort distribution
 resort distribution
 resort distribution
 resort distribution
 resort distribution
 resort distribution
 resort distribution
 resort distribution
 resort distribution
 resort distribution
 resort distribution
 resort distribution
 resort distribution
 resort distribution
 resort distribution
 resort distribution
 resort distribution
 resort distribution
 resort distribution
 resort distribution
 resort distribution
 resort distribution
 resort distribution
 resort distribution
 resort distribution
 resort distribution
 resort distribution
 resort distribution
 resort distribution
 resort distribution
 resort distribution
 resort distribution
 resort distribution
 resort distribution
 resort distribution
 resort distribution
 resort distribution
 resort distribution
 resort distribution
 resort distribution
 resort distribution
 resort distribution
 resort distribution
 FFT: planning ...
 WAVECAR not read
 augmentation electrons   204.01422427535107     
 soft         electrons   0.0000000000000000     
 augmentation electrons   204.01422427535107     
 soft         electrons   0.0000000000000000     
 augmentation electrons   204.01422427535107     
 soft         electrons   0.0000000000000000     
 augmentation electrons   204.01422427535107     
 soft         electrons   0.0000000000000000     
 augmentation electrons   204.01422427535107     
 soft         electrons   0.0000000000000000     
 augmentation electrons   204.01422427535107     
 soft         electrons   0.0000000000000000     
 augmentation electrons   204.01422427535107     
 soft         electrons   0.0000000000000000     
 augmentation electrons   204.01422427535107     
 soft         electrons   0.0000000000000000     
 augmentation electrons   204.01422427535107     
 soft         electrons   0.0000000000000000     
 augmentation electrons   204.01422427535107     
 soft         electrons   0.0000000000000000     
 augmentation electrons   204.01422427535107     
 soft         electrons   0.0000000000000000     
 augmentation electrons   204.01422427535107     
 soft         electrons   0.0000000000000000     
 augmentation electrons   204.01422427535107     
 soft         electrons   0.0000000000000000     
 augmentation electrons   204.01422427535107     
 soft         electrons   0.0000000000000000     
 augmentation electrons   204.01422427535107     
 soft         electrons   0.0000000000000000     
 augmentation electrons   204.01422427535107     
 soft         electrons   0.0000000000000000     
 augmentation electrons   204.01422427535107     
 soft         electrons   0.0000000000000000     
 augmentation electrons   204.01422427535107     
 soft         electrons   0.0000000000000000     
 augmentation electrons   204.01422427535107     
 soft         electrons   0.0000000000000000     
 augmentation electrons   204.01422427535107     
 soft         electrons   0.0000000000000000     
 augmentation electrons   204.01422427535107     
 soft         electrons   0.0000000000000000     
 augmentation electrons   204.01422427535107     
 soft         electrons   0.0000000000000000     
 augmentation electrons   204.01422427535107     
 soft         electrons   0.0000000000000000     
 augmentation electrons   204.01422427535107     
 soft         electrons   0.0000000000000000     
 augmentation electrons   204.01422427535107     
 soft         electrons   0.0000000000000000     
 augmentation electrons   204.01422427535107     
 soft         electrons   0.0000000000000000     
 augmentation electrons   204.01422427535107     
 soft         electrons   0.0000000000000000     
 augmentation electrons   204.01422427535107     
 soft         electrons   0.0000000000000000     
 augmentation electrons   204.01422427535107     
 soft         electrons   0.0000000000000000     
 augmentation electrons   204.01422427535107     
 soft         electrons   0.0000000000000000     
 augmentation electrons   204.01422427535107     
 soft         electrons   0.0000000000000000     
 augmentation electrons   204.01422427535107     
 soft         electrons   0.0000000000000000     
 augmentation electrons   204.01422427535107     
 soft         electrons   0.0000000000000000     
 augmentation electrons   204.01422427535107     
 soft         electrons   0.0000000000000000     
 augmentation electrons   204.01422427535107     
 soft         electrons   0.0000000000000000     
 augmentation electrons   204.01422427535107     
 soft         electrons   0.0000000000000000     
 augmentation electrons   204.01422427535107     
 soft         electrons   0.0000000000000000     
 augmentation electrons   204.01422427535107     
 soft         electrons   0.0000000000000000     
 augmentation electrons   204.01422427535107     
 soft         electrons   0.0000000000000000     
 augmentation electrons   204.01422427535107     
 soft         electrons   0.0000000000000000     
 augmentation electrons   204.01422427535107     
 soft         electrons   0.0000000000000000     
 augmentation electrons   204.01422427535107     
 soft         electrons   0.0000000000000000     
 augmentation electrons   204.01422427535107     
 soft         electrons   0.0000000000000000     
 augmentation electrons   204.01422427535107     
 soft         electrons   0.0000000000000000     
 augmentation electrons   204.01422427535107     
 soft         electrons   0.0000000000000000     
 augmentation electrons   204.01422427535107     
 soft         electrons   0.0000000000000000     
 augmentation electrons   204.01422427535107     
 soft         electrons   0.0000000000000000     
 augmentation electrons   204.01422427535107     
 soft         electrons   0.0000000000000000     
 augmentation electrons   204.01422427535107     
 soft         electrons   0.0000000000000000     
 augmentation electrons   204.01422427535107     
 soft         electrons   0.0000000000000000     
 augmentation electrons   204.01422427535107     
 soft         electrons   0.0000000000000000     
 augmentation electrons   204.01422427535107     
 soft         electrons   0.0000000000000000     
 augmentation electrons   204.01422427535107     
 soft         electrons   0.0000000000000000     
 total        electrons   204.01422427535107     
 total        electrons   204.01422427535107     
 total        electrons   204.01422427535107     
 total        electrons   204.01422427535107     
 total        electrons   204.01422427535107     
 total        electrons   204.01422427535107     
 total        electrons   204.01422427535107     
 total        electrons   204.01422427535107     
 total        electrons   204.01422427535107     
 total        electrons   204.01422427535107     
 total        electrons   204.01422427535107     
 total        electrons   204.01422427535107     
 total        electrons   204.01422427535107     
 total        electrons   204.01422427535107     
 total        electrons   204.01422427535107     
 total        electrons   204.01422427535107     
 total        electrons   204.01422427535107     
 total        electrons   204.01422427535107     
 total        electrons   204.01422427535107     
 total        electrons   204.01422427535107     
 total        electrons   204.01422427535107     
 total        electrons   204.01422427535107     
 total        electrons   204.01422427535107     
 total        electrons   204.01422427535107     
 total        electrons   204.01422427535107     
 total        electrons   204.01422427535107     
 total        electrons   204.01422427535107     
 total        electrons   204.01422427535107     
 total        electrons   204.01422427535107     
 augmentation electrons   204.01422427535107     
 soft         electrons   0.0000000000000000     
 total        electrons   204.01422427535107     
 total        electrons   204.01422427535107     
 total        electrons   204.01422427535107     
 total        electrons   204.01422427535107     
 total        electrons   204.01422427535107     
 total        electrons   204.01422427535107     
 total        electrons   204.01422427535107     
 total        electrons   204.01422427535107     
 total        electrons   204.01422427535107     
 total        electrons   204.01422427535107     
 total        electrons   204.01422427535107     
 total        electrons   204.01422427535107     
 total        electrons   204.01422427535107     
 total        electrons   204.01422427535107     
 total        electrons   204.01422427535107     
 total        electrons   204.01422427535107     
 total        electrons   204.01422427535107     
 total        electrons   204.01422427535107     
 total        electrons   204.01422427535107     
 total        electrons   204.01422427535107     
 total        electrons   204.01422427535107     
 total        electrons   204.01422427535107     
 total        electrons   204.01422427535107     
 total        electrons   204.01422427535107     
 total        electrons   204.01422427535107     
 augmentation electrons   599.10773456822494     
 soft         electrons   0.0000000000000000     
 augmentation electrons   599.10773456822494     
 soft         electrons   0.0000000000000000     
 augmentation electrons   599.10773456822494     
 soft         electrons   0.0000000000000000     
 augmentation electrons   599.10773456822494     
 soft         electrons   0.0000000000000000     
 augmentation electrons   599.10773456822494     
 soft         electrons   0.0000000000000000     
 augmentation electrons   599.10773456822494     
 soft         electrons   0.0000000000000000     
 augmentation electrons   599.10773456822494     
 soft         electrons   0.0000000000000000     
 augmentation electrons   599.10773456822494     
 soft         electrons   0.0000000000000000     
 augmentation electrons   599.10773456822494     
 soft         electrons   0.0000000000000000     
 augmentation electrons   599.10773456822494     
 soft         electrons   0.0000000000000000     
 augmentation electrons   599.10773456822494     
 soft         electrons   0.0000000000000000     
 augmentation electrons   599.10773456822494     
 soft         electrons   0.0000000000000000     
 augmentation electrons   599.10773456822494     
 soft         electrons   0.0000000000000000     
 augmentation electrons   599.10773456822494     
 soft         electrons   0.0000000000000000     
 augmentation electrons   599.10773456822494     
 soft         electrons   0.0000000000000000     
 augmentation electrons   599.10773456822494     
 soft         electrons   0.0000000000000000     
 augmentation electrons   599.10773456822494     
 soft         electrons   0.0000000000000000     
 augmentation electrons   599.10773456822494     
 soft         electrons   0.0000000000000000     
 augmentation electrons   599.10773456822494     
 soft         electrons   0.0000000000000000     
 augmentation electrons   599.10773456822494     
 soft         electrons   0.0000000000000000     
 augmentation electrons   599.10773456822494     
 soft         electrons   0.0000000000000000     
 augmentation electrons   599.10773456822494     
 soft         electrons   0.0000000000000000     
 augmentation electrons   599.10773456822494     
 soft         electrons   0.0000000000000000     
 augmentation electrons   599.10773456822494     
 soft         electrons   0.0000000000000000     
 augmentation electrons   599.10773456822494     
 soft         electrons   0.0000000000000000     
 augmentation electrons   599.10773456822494     
 soft         electrons   0.0000000000000000     
 augmentation electrons   599.10773456822494     
 soft         electrons   0.0000000000000000     
 augmentation electrons   599.10773456822494     
 soft         electrons   0.0000000000000000     
 augmentation electrons   599.10773456822494     
 soft         electrons   0.0000000000000000     
 augmentation electrons   599.10773456822494     
 soft         electrons   0.0000000000000000     
 augmentation electrons   599.10773456822494     
 soft         electrons   0.0000000000000000     
 augmentation electrons   599.10773456822494     
 soft         electrons   0.0000000000000000     
 augmentation electrons   599.10773456822494     
 soft         electrons   0.0000000000000000     
 augmentation electrons   599.10773456822494     
 soft         electrons   0.0000000000000000     
 augmentation electrons   599.10773456822494     
 soft         electrons   0.0000000000000000     
 augmentation electrons   599.10773456822494     
 soft         electrons   0.0000000000000000     
 augmentation electrons   599.10773456822494     
 soft         electrons   0.0000000000000000     
 augmentation electrons   599.10773456822494     
 soft         electrons   0.0000000000000000     
 augmentation electrons   599.10773456822494     
 soft         electrons   0.0000000000000000     
 augmentation electrons   599.10773456822494     
 soft         electrons   0.0000000000000000     
 augmentation electrons   599.10773456822494     
 soft         electrons   0.0000000000000000     
 augmentation electrons   599.10773456822494     
 soft         electrons   0.0000000000000000     
 augmentation electrons   599.10773456822494     
 soft         electrons   0.0000000000000000     
 augmentation electrons   599.10773456822494     
 soft         electrons   0.0000000000000000     
 augmentation electrons   599.10773456822494     
 soft         electrons   0.0000000000000000     
 augmentation electrons   599.10773456822494     
 soft         electrons   0.0000000000000000     
 augmentation electrons   599.10773456822494     
 soft         electrons   0.0000000000000000     
 augmentation electrons   599.10773456822494     
 soft         electrons   0.0000000000000000     
 augmentation electrons   599.10773456822494     
 soft         electrons   0.0000000000000000     
 augmentation electrons   599.10773456822494     
 soft         electrons   0.0000000000000000     
 augmentation electrons   599.10773456822494     
 soft         electrons   0.0000000000000000     
 augmentation electrons   599.10773456822494     
 soft         electrons   0.0000000000000000     
 augmentation electrons   599.10773456822494     
 augmentation electrons   599.10773456822494     
 soft         electrons   0.0000000000000000     
 soft         electrons   0.0000000000000000     
 total        electrons   599.10773456822494     
 total        electrons   599.10773456822494     
 total        electrons   599.10773456822494     
 total        electrons   599.10773456822494     
 total        electrons   599.10773456822494     
 total        electrons   599.10773456822494     
 total        electrons   599.10773456822494     
 total        electrons   599.10773456822494     
 total        electrons   599.10773456822494     
 total        electrons   599.10773456822494     
 total        electrons   599.10773456822494     
 total        electrons   599.10773456822494     
 total        electrons   599.10773456822494     
 total        electrons   599.10773456822494     
 total        electrons   599.10773456822494     
 total        electrons   599.10773456822494     
 total        electrons   599.10773456822494     
 total        electrons   599.10773456822494     
 total        electrons   599.10773456822494     
 total        electrons   599.10773456822494     
 total        electrons   599.10773456822494     
 total        electrons   599.10773456822494     
 total        electrons   599.10773456822494     
 total        electrons   599.10773456822494     
 total        electrons   599.10773456822494     
 total        electrons   599.10773456822494     
 total        electrons   599.10773456822494     
 total        electrons   599.10773456822494     
 total        electrons   599.10773456822494     
 total        electrons   599.10773456822494     
 total        electrons   599.10773456822494     
 total        electrons   599.10773456822494     
 total        electrons   599.10773456822494     
 total        electrons   599.10773456822494     
 total        electrons   599.10773456822494     
 total        electrons   599.10773456822494     
 total        electrons   599.10773456822494     
 total        electrons   599.10773456822494     
 total        electrons   599.10773456822494     
 total        electrons   599.10773456822494     
 total        electrons   599.10773456822494     
 total        electrons   599.10773456822494     
 total        electrons   599.10773456822494     
 total        electrons   599.10773456822494     
 total        electrons   599.10773456822494     
 total        electrons   599.10773456822494     
 total        electrons   599.10773456822494     
 total        electrons   599.10773456822494     
 total        electrons   599.10773456822494     
 total        electrons   599.10773456822494     
 total        electrons   599.10773456822494     
 total        electrons   599.10773456822494     
 total        electrons   599.10773456822494     
 total        electrons   599.10773456822494     
 entering main loop
       N       E                     dE             d eps       ncg     rms          rms(c)
DAV:   1     0.139209818020E+04    0.13921E+04   -0.81434E+04 10824   0.134E+03
DAV:   2    -0.287182628955E+03   -0.16793E+04   -0.15896E+04 12168   0.332E+02
DAV:   3    -0.493577716659E+03   -0.20640E+03   -0.19722E+03 15168   0.116E+02
DAV:   4    -0.506496056050E+03   -0.12918E+02   -0.12600E+02 17136   0.306E+01
DAV:   5    -0.507001869922E+03   -0.50581E+00   -0.49731E+00 15948   0.483E+00    0.118E+02
RMM:   6    -0.486356332738E+03    0.20646E+02   -0.66951E+02 17560   0.739E+01    0.642E+01
RMM:   7    -0.580306389960E+03   -0.93950E+02   -0.42673E+02 16742   0.459E+01    0.466E+01
RMM:   8    -0.472562165384E+03    0.10774E+03   -0.95961E+01 16642   0.200E+01    0.325E+01
RMM:   9    -0.461452490542E+03    0.11110E+02   -0.36130E+01 15643   0.170E+01    0.290E+01
RMM:  10    -0.440023475049E+03    0.21429E+02   -0.20997E+01 16425   0.110E+01    0.184E+01
RMM:  11    -0.436634709191E+03    0.33888E+01   -0.55250E+00 15438   0.519E+00    0.146E+01
RMM:  12    -0.436112939706E+03    0.52177E+00   -0.90758E-01 13161   0.373E+00    0.135E+01
RMM:  13    -0.435839200242E+03    0.27374E+00   -0.65563E-01 15372   0.194E+00    0.120E+01
RMM:  14    -0.435557654474E+03    0.28155E+00   -0.50520E-01 15693   0.183E+00    0.894E+00
RMM:  15    -0.434927403750E+03    0.63025E+00   -0.35658E+00 12364   0.724E+00    0.548E+00
RMM:  16    -0.434735817985E+03    0.19159E+00   -0.11972E+00 16104   0.204E+00    0.293E+00
RMM:  17    -0.434674164322E+03    0.61654E-01   -0.15301E-01 12279   0.150E+00    0.177E+00
RMM:  18    -0.434675613358E+03   -0.14490E-02   -0.10632E-01 15267   0.729E-01    0.115E+00
RMM:  19    -0.434666188443E+03    0.94249E-02   -0.25218E-02 16141   0.291E-01    0.578E-01
RMM:  20    -0.434664809906E+03    0.13785E-02   -0.11154E-02 16370   0.177E-01    0.310E-01
RMM:  21    -0.434664581057E+03    0.22885E-03   -0.33914E-03 15945   0.132E-01    0.129E-01
RMM:  22    -0.434666013469E+03   -0.14324E-02   -0.31469E-03 15843   0.125E-01    0.129E-01
RMM:  23    -0.434667445078E+03   -0.14316E-02   -0.77897E-04 15897   0.547E-02    0.107E-01
RMM:  24    -0.434668942777E+03   -0.14977E-02   -0.52203E-04 14770   0.481E-02    0.113E-01
RMM:  25    -0.434670152086E+03   -0.12093E-02   -0.50415E-04 13396   0.648E-02    0.311E-02
RMM:  26    -0.434670334498E+03   -0.18241E-03   -0.13785E-04 15166   0.231E-02    0.364E-02
RMM:  27    -0.434670402519E+03   -0.68021E-04   -0.61026E-05 13616   0.230E-02    0.272E-02
RMM:  28    -0.434670424298E+03   -0.21779E-04   -0.43492E-05 12134   0.277E-02    0.294E-02
RMM:  29    -0.434670426862E+03   -0.25633E-05   -0.97380E-06 10548   0.883E-03    0.612E-03
RMM:  30    -0.434670430096E+03   -0.32346E-05   -0.48532E-06 10078   0.442E-03    0.207E-03
RMM:  31    -0.434670432354E+03   -0.22583E-05   -0.16600E-06  8867   0.351E-03    0.443E-03
RMM:  32    -0.434670432789E+03   -0.43477E-06   -0.57093E-07  7729   0.331E-03
   1 F= -.43467043E+03 E0= -.43467099E+03  d E =0.166083E-02
 augmentation electrons   16.956661990723184     
 soft         electrons   187.09987881135481     
 augmentation electrons   16.956661990723184     
 soft         electrons   187.09987881135481     
 augmentation electrons   16.956661990723184     
 soft         electrons   187.09987881135481     
 augmentation electrons   16.956661990723184     
 soft         electrons   187.09987881135481     
 augmentation electrons   16.956661990723184     
 soft         electrons   187.09987881135481     
 augmentation electrons   16.956661990723184     
 soft         electrons   187.09987881135481     
 augmentation electrons   16.956661990723184     
 soft         electrons   187.09987881135481     
 augmentation electrons   16.956661990723184     
 soft         electrons   187.09987881135481     
 augmentation electrons   16.956661990723184     
 soft         electrons   187.09987881135481     
 augmentation electrons   16.956661990723184     
 soft         electrons   187.09987881135481     
 augmentation electrons   16.956661990723184     
 soft         electrons   187.09987881135481     
 augmentation electrons   16.956661990723184     
 soft         electrons   187.09987881135481     
 augmentation electrons   16.956661990723184     
 soft         electrons   187.09987881135481     
 augmentation electrons   16.956661990723184     
 soft         electrons   187.09987881135481     
 augmentation electrons   16.956661990723184     
 soft         electrons   187.09987881135481     
 augmentation electrons   16.956661990723184     
 soft         electrons   187.09987881135481     
 augmentation electrons   16.956661990723184     
 soft         electrons   187.09987881135481     
 augmentation electrons   16.956661990723184     
 soft         electrons   187.09987881135481     
 augmentation electrons   16.956661990723184     
 soft         electrons   187.09987881135481     
 augmentation electrons   16.956661990723184     
 soft         electrons   187.09987881135481     
 augmentation electrons   16.956661990723184     
 soft         electrons   187.09987881135481     
 augmentation electrons   16.956661990723184     
 soft         electrons   187.09987881135481     
 augmentation electrons   16.956661990723184     
 soft         electrons   187.09987881135481     
 augmentation electrons   16.956661990723184     
 soft         electrons   187.09987881135481     
 augmentation electrons   16.956661990723184     
 soft         electrons   187.09987881135481     
 augmentation electrons   16.956661990723184     
 soft         electrons   187.09987881135481     
 augmentation electrons   16.956661990723184     
 soft         electrons   187.09987881135481     
 augmentation electrons   16.956661990723184     
 soft         electrons   187.09987881135481     
 augmentation electrons   16.956661990723184     
 soft         electrons   187.09987881135481     
 augmentation electrons   16.956661990723184     
 soft         electrons   187.09987881135481     
 augmentation electrons   16.956661990723184     
 soft         electrons   187.09987881135481     
 augmentation electrons   16.956661990723184     
 soft         electrons   187.09987881135481     
 augmentation electrons   16.956661990723184     
 soft         electrons   187.09987881135481     
 augmentation electrons   16.956661990723184     
 soft         electrons   187.09987881135481     
 augmentation electrons   16.956661990723184     
 soft         electrons   187.09987881135481     
 augmentation electrons   16.956661990723184     
 soft         electrons   187.09987881135481     
 augmentation electrons   16.956661990723184     
 soft         electrons   187.09987881135481     
 augmentation electrons   16.956661990723184     
 soft         electrons   187.09987881135481     
 augmentation electrons   16.956661990723184     
 soft         electrons   187.09987881135481     
 augmentation electrons   16.956661990723184     
 augmentation electrons   16.956661990723184     
 soft         electrons   187.09987881135481     
 augmentation electrons   16.956661990723184     
 soft         electrons   187.09987881135481     
 augmentation electrons   16.956661990723184     
 soft         electrons   187.09987881135481     
 augmentation electrons   16.956661990723184     
 soft         electrons   187.09987881135481     
 augmentation electrons   16.956661990723184     
 soft         electrons   187.09987881135481     
 augmentation electrons   16.956661990723184     
 soft         electrons   187.09987881135481     
 augmentation electrons   16.956661990723184     
 soft         electrons   187.09987881135481     
 augmentation electrons   16.956661990723184     
 soft         electrons   187.09987881135481     
 augmentation electrons   16.956661990723184     
 soft         electrons   187.09987881135481     
 augmentation electrons   16.956661990723184     
 soft         electrons   187.09987881135481     
 augmentation electrons   16.956661990723184     
 soft         electrons   187.09987881135481     
 augmentation electrons   16.956661990723184     
 soft         electrons   187.09987881135481     
 augmentation electrons   16.956661990723184     
 soft         electrons   187.09987881135481     
 augmentation electrons   16.956661990723184     
 soft         electrons   187.09987881135481     
 soft         electrons   187.09987881135481     
 total        electrons   204.05654080207799     
 total        electrons   204.05654080207799     
 total        electrons   204.05654080207799     
 total        electrons   204.05654080207799     
 total        electrons   204.05654080207799     
 total        electrons   204.05654080207799     
 total        electrons   204.05654080207799     
 total        electrons   204.05654080207799     
 total        electrons   204.05654080207799     
 total        electrons   204.05654080207799     
 total        electrons   204.05654080207799     
 total        electrons   204.05654080207799     
 total        electrons   204.05654080207799     
 total        electrons   204.05654080207799     
 total        electrons   204.05654080207799     
 total        electrons   204.05654080207799     
 total        electrons   204.05654080207799     
 total        electrons   204.05654080207799     
 total        electrons   204.05654080207799     
 total        electrons   204.05654080207799     
 total        electrons   204.05654080207799     
 total        electrons   204.05654080207799     
 total        electrons   204.05654080207799     
 total        electrons   204.05654080207799     
 total        electrons   204.05654080207799     
 total        electrons   204.05654080207799     
 total        electrons   204.05654080207799     
 total        electrons   204.05654080207799     
 total        electrons   204.05654080207799     
 total        electrons   204.05654080207799     
 total        electrons   204.05654080207799     
 total        electrons   204.05654080207799     
 total        electrons   204.05654080207799     
 total        electrons   204.05654080207799     
 total        electrons   204.05654080207799     
 total        electrons   204.05654080207799     
 total        electrons   204.05654080207799     
 total        electrons   204.05654080207799     
 total        electrons   204.05654080207799     
 total        electrons   204.05654080207799     
 total        electrons   204.05654080207799     
 total        electrons   204.05654080207799     
 total        electrons   204.05654080207799     
 total        electrons   204.05654080207799     
 total        electrons   204.05654080207799     
 total        electrons   204.05654080207799     
 total        electrons   204.05654080207799     
 total        electrons   204.05654080207799     
 total        electrons   204.05654080207799     
 total        electrons   204.05654080207799     
 total        electrons   204.05654080207799     
 total        electrons   204.05654080207799     
 total        electrons   204.05654080207799     
 total        electrons   204.05654080207799     
Note: The following floating-point exceptions are signalling: IEEE_OVERFLOW_FLAG
Note: The following floating-point exceptions are signalling: IEEE_OVERFLOW_FLAG
Note: The following floating-point exceptions are signalling: IEEE_OVERFLOW_FLAG
Note: The following floating-point exceptions are signalling: IEEE_OVERFLOW_FLAG
Note: The following floating-point exceptions are signalling: IEEE_OVERFLOW_FLAG
Note: The following floating-point exceptions are signalling: IEEE_OVERFLOW_FLAG
Note: The following floating-point exceptions are signalling: IEEE_OVERFLOW_FLAG
Note: The following floating-point exceptions are signalling: IEEE_OVERFLOW_FLAG
Note: The following floating-point exceptions are signalling: IEEE_OVERFLOW_FLAG
Note: The following floating-point exceptions are signalling: IEEE_OVERFLOW_FLAG
Note: The following floating-point exceptions are signalling: IEEE_OVERFLOW_FLAG
Note: The following floating-point exceptions are signalling: IEEE_OVERFLOW_FLAG
Note: The following floating-point exceptions are signalling: IEEE_OVERFLOW_FLAG
Note: The following floating-point exceptions are signalling: IEEE_OVERFLOW_FLAG
Note: The following floating-point exceptions are signalling: IEEE_OVERFLOW_FLAG
Note: The following floating-point exceptions are signalling: IEEE_OVERFLOW_FLAG
Note: The following floating-point exceptions are signalling: IEEE_OVERFLOW_FLAG
Note: The following floating-point exceptions are signalling: IEEE_OVERFLOW_FLAG
Note: The following floating-point exceptions are signalling: IEEE_OVERFLOW_FLAG
Note: The following floating-point exceptions are signalling: IEEE_OVERFLOW_FLAG
Note: The following floating-point exceptions are signalling: IEEE_OVERFLOW_FLAG
Note: The following floating-point exceptions are signalling: IEEE_OVERFLOW_FLAG
Note: The following floating-point exceptions are signalling: IEEE_OVERFLOW_FLAG
Note: The following floating-point exceptions are signalling: IEEE_OVERFLOW_FLAG
Note: The following floating-point exceptions are signalling: IEEE_OVERFLOW_FLAG
Note: The following floating-point exceptions are signalling: IEEE_OVERFLOW_FLAG
Note: The following floating-point exceptions are signalling: IEEE_OVERFLOW_FLAG
Note: The following floating-point exceptions are signalling: IEEE_OVERFLOW_FLAG
Note: The following floating-point exceptions are signalling: IEEE_OVERFLOW_FLAG
Note: The following floating-point exceptions are signalling: IEEE_OVERFLOW_FLAG
Note: The following floating-point exceptions are signalling: IEEE_OVERFLOW_FLAG
Note: The following floating-point exceptions are signalling: IEEE_OVERFLOW_FLAG
Note: The following floating-point exceptions are signalling: IEEE_OVERFLOW_FLAG
Note: The following floating-point exceptions are signalling: IEEE_OVERFLOW_FLAG
Note: The following floating-point exceptions are signalling: IEEE_OVERFLOW_FLAG
Note: The following floating-point exceptions are signalling: IEEE_OVERFLOW_FLAG
Note: The following floating-point exceptions are signalling: IEEE_OVERFLOW_FLAG
Note: The following floating-point exceptions are signalling: IEEE_OVERFLOW_FLAG
Note: The following floating-point exceptions are signalling: IEEE_OVERFLOW_FLAG
Note: The following floating-point exceptions are signalling: IEEE_OVERFLOW_FLAG
Note: The following floating-point exceptions are signalling: IEEE_OVERFLOW_FLAG
Note: The following floating-point exceptions are signalling: IEEE_OVERFLOW_FLAG
Note: The following floating-point exceptions are signalling: IEEE_OVERFLOW_FLAG
Note: The following floating-point exceptions are signalling: IEEE_OVERFLOW_FLAG
Note: The following floating-point exceptions are signalling: IEEE_OVERFLOW_FLAG
Note: The following floating-point exceptions are signalling: IEEE_OVERFLOW_FLAG
Note: The following floating-point exceptions are signalling: IEEE_OVERFLOW_FLAG
Note: The following floating-point exceptions are signalling: IEEE_OVERFLOW_FLAG
Note: The following floating-point exceptions are signalling: IEEE_OVERFLOW_FLAG
Note: The following floating-point exceptions are signalling: IEEE_OVERFLOW_FLAG
Note: The following floating-point exceptions are signalling: IEEE_OVERFLOW_FLAG
Note: The following floating-point exceptions are signalling: IEEE_OVERFLOW_FLAG
Note: The following floating-point exceptions are signalling: IEEE_OVERFLOW_FLAG
Note: The following floating-point exceptions are signalling: IEEE_OVERFLOW_FLAG
