   51   51    1    1
  0.2316787E+02  0.8645320E-09  0.6085000E-09  0.2593596E-08  0.5000000E-15
   1.0000000000000000E-004
  CAR 
 Name                                    
    191    149    128

  0.3742002E-15  0.3742002E-15  0.3742002E-15  0.3367003E-02
    1      -13.871437   1.000000
    2      -12.553977   1.000000
    3      -12.381525   1.000000
    4      -11.832657   1.000000
    5      -11.541331   1.000000
    6      -11.079900   1.000000
    7      -11.051308   1.000000
    8      -11.026133   1.000000
    9      -10.985244   1.000000
   10      -10.583305   1.000000
   11      -10.575818   1.000000
   12      -10.377347   1.000000
   13      -10.147614   1.000000
   14      -10.081822   1.000000
   15       -9.682399   1.000000
   16       -9.651806   1.000000
   17       -9.175735   1.000000
   18       -9.060711   1.000000
   19       -8.824904   1.000000
   20       -8.408563   1.000000
   21       -8.391137   1.000000
   22       -8.381132   1.000000
   23       -8.284943   1.000000
   24       -7.985716   1.000000
   25       -7.920831   1.000000
   26       -7.919431   1.000000
   27       -7.466522   1.000000
   28       -7.223678   1.000000
   29       -6.869671   1.000000
   30       -6.463621   1.000000
   31       -6.453071   1.000000
   32       -6.379282   1.000000
   33       -6.089856   1.000000
   34       -5.894897   1.000000
   35       -5.871504   1.000000
   36       -5.710947   1.000000
   37       -5.429976   1.000000
   38       -5.395613   1.000000
   39       -5.341665   1.000000
   40       -5.278559   1.000000
   41       -5.178106   1.000000
   42       -4.989740   1.000000
   43       -4.955153   1.000000
   44       -4.888061   1.000000
   45       -4.787739   1.000000
   46       -4.665490   1.000000
   47       -4.660068   1.000000
   48       -4.556310   1.000000
   49       -4.509201   1.000000
   50       -4.476959   1.000000
   51       -4.418897   1.000000
   52       -4.380008   1.000000
   53       -4.288714   1.000000
   54       -4.215879   1.000000
   55       -4.147765   1.000000
   56       -4.061373   1.000000
   57       -3.989297   1.000000
   58       -3.955362   1.000000
   59       -3.902111   1.000000
   60       -3.878748   1.000000
   61       -3.760595   1.000000
   62       -3.707300   1.000000
   63       -3.455408   1.000000
   64       -3.372592   1.000000
   65       -3.354122   1.000000
   66       -3.291655   1.000000
   67       -3.266497   1.000000
   68       -3.261643   1.000000
   69       -3.195279   1.000000
   70       -3.133475   1.000000
   71       -3.085360   1.000000
   72       -3.011107   1.000000
   73       -2.963338   1.000000
   74       -2.606918   1.000000
   75       -2.363335   1.000000
   76       -2.293157   1.000000
   77       -2.161391   1.000000
   78       -2.062912   1.000000
   79       -1.981008   1.000000
   80       -1.854648   1.000000
   81       -1.759456   1.000000
   82       -1.648052   1.000000
   83       -1.480062   1.000000
   84       -1.360478   1.000000
   85       -1.188590   1.000000
   86       -1.014957   1.000000
   87       -0.912103   1.000000
   88       -0.845981   1.000000
   89       -0.787785   1.000000
   90       -0.263147   1.000000
   91       -0.085880   1.000296
   92        0.045878   1.029086
   93        0.132712   0.919503
   94        0.184271   0.570204
   95        0.222637   0.258064
   96        0.270113   0.016588
   97        0.296310  -0.028563
   98        0.570421  -0.000001
   99        0.656848  -0.000000
  100        0.702128  -0.000000
  101        0.722902  -0.000000
  102        0.798231  -0.000000
  103        0.817743  -0.000000
  104        0.927147  -0.000000
  105        1.024635  -0.000000
  106        1.068375  -0.000000
  107        1.172208  -0.000000
  108        1.343309  -0.000000
  109        1.440164  -0.000000
  110        1.458929  -0.000000
  111        1.558247  -0.000000
  112        1.572044  -0.000000
  113        1.598074  -0.000000
  114        1.650923  -0.000000
  115        1.791475  -0.000000
  116        1.805227  -0.000000
  117        1.840213  -0.000000
  118        2.004392  -0.000000
  119        2.031204  -0.000000
  120        2.063932  -0.000000
  121        2.090739  -0.000000
  122        2.150099  -0.000000
  123        2.196853  -0.000000
  124        2.316050  -0.000000
  125        2.424433  -0.000000
  126        2.525763  -0.000000
  127        2.739111  -0.000000
  128        3.963155   0.000000

  0.1111111E+00  0.3729374E-15  0.3860503E-15  0.6734007E-02
    1      -13.844432   1.000000
    2      -12.530739   1.000000
    3      -12.494146   1.000000
    4      -11.775723   1.000000
    5      -11.526415   1.000000
    6      -11.104627   1.000000
    7      -11.042227   1.000000
    8      -11.017773   1.000000
    9      -11.003266   1.000000
   10      -10.579636   1.000000
   11      -10.571958   1.000000
   12      -10.381015   1.000000
   13      -10.134732   1.000000
   14      -10.075299   1.000000
   15       -9.677664   1.000000
   16       -9.641660   1.000000
   17       -9.151601   1.000000
   18       -9.076010   1.000000
   19       -8.825741   1.000000
   20       -8.425414   1.000000
   21       -8.420609   1.000000
   22       -8.393621   1.000000
   23       -8.315320   1.000000
   24       -7.966572   1.000000
   25       -7.955761   1.000000
   26       -7.910190   1.000000
   27       -7.507697   1.000000
   28       -7.299912   1.000000
   29       -6.812211   1.000000
   30       -6.438864   1.000000
   31       -6.399581   1.000000
   32       -6.332642   1.000000
   33       -6.062937   1.000000
   34       -5.917841   1.000000
   35       -5.865981   1.000000
   36       -5.690341   1.000000
   37       -5.462504   1.000000
   38       -5.416586   1.000000
   39       -5.270425   1.000000
   40       -5.240454   1.000000
   41       -5.149254   1.000000
   42       -5.096463   1.000000
   43       -4.943295   1.000000
   44       -4.883178   1.000000
   45       -4.746467   1.000000
   46       -4.676003   1.000000
   47       -4.632431   1.000000
   48       -4.552265   1.000000
   49       -4.515195   1.000000
   50       -4.461108   1.000000
   51       -4.392157   1.000000
   52       -4.369130   1.000000
   53       -4.290662   1.000000
   54       -4.185129   1.000000
   55       -4.176050   1.000000
   56       -4.069764   1.000000
   57       -4.005049   1.000000
   58       -3.970471   1.000000
   59       -3.916537   1.000000
   60       -3.857816   1.000000
   61       -3.768965   1.000000
   62       -3.677923   1.000000
   63       -3.519587   1.000000
   64       -3.372512   1.000000
   65       -3.322444   1.000000
   66       -3.284505   1.000000
   67       -3.256643   1.000000
   68       -3.241280   1.000000
   69       -3.179237   1.000000
   70       -3.146760   1.000000
   71       -3.064429   1.000000
   72       -3.055922   1.000000
   73       -2.945201   1.000000
   74       -2.661824   1.000000
   75       -2.374614   1.000000
   76       -2.294891   1.000000
   77       -2.130158   1.000000
   78       -2.120949   1.000000
   79       -2.009443   1.000000
   80       -1.878798   1.000000
   81       -1.783505   1.000000
   82       -1.548873   1.000000
   83       -1.480511   1.000000
   84       -1.382900   1.000000
   85       -1.195303   1.000000
   86       -0.993689   1.000000
   87       -0.900361   1.000000
   88       -0.828097   1.000000
   89       -0.711002   1.000000
   90       -0.328799   1.000000
   91       -0.148698   1.000008
   92        0.060257   1.034151
   93        0.072815   1.035342
   94        0.177423   0.626803
   95        0.219934   0.277974
   96        0.267931   0.022876
   97        0.364510  -0.017722
   98        0.556396  -0.000002
   99        0.643495  -0.000000
  100        0.671402  -0.000000
  101        0.717128  -0.000000
  102        0.810708  -0.000000
  103        0.858882  -0.000000
  104        0.938936  -0.000000
  105        1.016291  -0.000000
  106        1.096627  -0.000000
  107        1.216755  -0.000000
  108        1.399704  -0.000000
  109        1.420163  -0.000000
  110        1.494882  -0.000000
  111        1.552251  -0.000000
  112        1.589164  -0.000000
  113        1.610933  -0.000000
  114        1.677279  -0.000000
  115        1.779919  -0.000000
  116        1.783820  -0.000000
  117        1.826501  -0.000000
  118        1.991432  -0.000000
  119        2.022064  -0.000000
  120        2.042354  -0.000000
  121        2.075609  -0.000000
  122        2.111150  -0.000000
  123        2.149855  -0.000000
  124        2.263010  -0.000000
  125        2.330526  -0.000000
  126        2.429285  -0.000000
  127        2.497635  -0.000000
  128        3.906508   0.000000

  0.2222222E+00  0.3922785E-15  0.3630220E-15  0.6734007E-02
    1      -13.764189   1.000000
    2      -12.732050   1.000000
    3      -12.453937   1.000000
    4      -11.735609   1.000000
    5      -11.483494   1.000000
    6      -11.179486   1.000000
    7      -11.026286   1.000000
    8      -11.018001   1.000000
    9      -10.960244   1.000000
   10      -10.568509   1.000000
   11      -10.560236   1.000000
   12      -10.421772   1.000000
   13      -10.104706   1.000000
   14      -10.062868   1.000000
   15       -9.662976   1.000000
   16       -9.607391   1.000000
   17       -9.115856   1.000000
   18       -9.077177   1.000000
   19       -8.810759   1.000000
   20       -8.538168   1.000000
   21       -8.518338   1.000000
   22       -8.387377   1.000000
   23       -8.348356   1.000000
   24       -8.043100   1.000000
   25       -8.039254   1.000000
   26       -7.747980   1.000000
   27       -7.673496   1.000000
   28       -7.329250   1.000000
   29       -6.761968   1.000000
   30       -6.396209   1.000000
   31       -6.327011   1.000000
   32       -6.170140   1.000000
   33       -6.080938   1.000000
   34       -5.992409   1.000000
   35       -5.786808   1.000000
   36       -5.620823   1.000000
   37       -5.448674   1.000000
   38       -5.432893   1.000000
   39       -5.370155   1.000000
   40       -5.147526   1.000000
   41       -5.052056   1.000000
   42       -5.004064   1.000000
   43       -4.922259   1.000000
   44       -4.854746   1.000000
   45       -4.833317   1.000000
   46       -4.789519   1.000000
   47       -4.537618   1.000000
   48       -4.524379   1.000000
   49       -4.481178   1.000000
   50       -4.455769   1.000000
   51       -4.398389   1.000000
   52       -4.330517   1.000000
   53       -4.265134   1.000000
   54       -4.223521   1.000000
   55       -4.123415   1.000000
   56       -4.062551   1.000000
   57       -4.017640   1.000000
   58       -3.992987   1.000000
   59       -3.922641   1.000000
   60       -3.820333   1.000000
   61       -3.776698   1.000000
   62       -3.636366   1.000000
   63       -3.608180   1.000000
   64       -3.403923   1.000000
   65       -3.337776   1.000000
   66       -3.304447   1.000000
   67       -3.250971   1.000000
   68       -3.220592   1.000000
   69       -3.212010   1.000000
   70       -3.124046   1.000000
   71       -3.068260   1.000000
   72       -2.995688   1.000000
   73       -2.861017   1.000000
   74       -2.768858   1.000000
   75       -2.419758   1.000000
   76       -2.312309   1.000000
   77       -2.243200   1.000000
   78       -2.108998   1.000000
   79       -2.098347   1.000000
   80       -1.890348   1.000000
   81       -1.824237   1.000000
   82       -1.519862   1.000000
   83       -1.421733   1.000000
   84       -1.307949   1.000000
   85       -1.233362   1.000000
   86       -0.944041   1.000000
   87       -0.858780   1.000000
   88       -0.787405   1.000000
   89       -0.478151   1.000000
   90       -0.459802   1.000000
   91       -0.294796   1.000000
   92       -0.110264   1.000080
   93        0.052636   1.031786
   94        0.154476   0.798095
   95        0.246646   0.108484
   96        0.336974  -0.030069
   97        0.436851  -0.001491
   98        0.522383  -0.000016
   99        0.537584  -0.000006
  100        0.664298  -0.000000
  101        0.739507  -0.000000
  102        0.828304  -0.000000
  103        0.871242  -0.000000
  104        0.991078  -0.000000
  105        1.058848  -0.000000
  106        1.245095  -0.000000
  107        1.317148  -0.000000
  108        1.347777  -0.000000
  109        1.504858  -0.000000
  110        1.538379  -0.000000
  111        1.558478  -0.000000
  112        1.631617  -0.000000
  113        1.639821  -0.000000
  114        1.711483  -0.000000
  115        1.735332  -0.000000
  116        1.764924  -0.000000
  117        1.830618  -0.000000
  118        1.969369  -0.000000
  119        2.014623  -0.000000
  120        2.028642  -0.000000
  121        2.065472  -0.000000
  122        2.095152  -0.000000
  123        2.197934  -0.000000
  124        2.286633  -0.000000
  125        2.375163  -0.000000
  126        2.583386  -0.000000
  127        2.912590  -0.000000
  128        3.933192   0.000000

  0.3333333E+00  0.3713828E-15  0.3468587E-15  0.6734007E-02
    1      -13.633105   1.000000
    2      -12.990942   1.000000
    3      -12.334945   1.000000
    4      -11.823795   1.000000
    5      -11.420881   1.000000
    6      -11.225682   1.000000
    7      -11.011794   1.000000
    8      -11.008735   1.000000
    9      -10.877159   1.000000
   10      -10.555921   1.000000
   11      -10.544968   1.000000
   12      -10.509777   1.000000
   13      -10.077306   1.000000
   14      -10.057244   1.000000
   15       -9.638312   1.000000
   16       -9.546072   1.000000
   17       -9.137945   1.000000
   18       -9.013351   1.000000
   19       -8.759298   1.000000
   20       -8.676669   1.000000
   21       -8.644193   1.000000
   22       -8.379299   1.000000
   23       -8.358311   1.000000
   24       -8.133104   1.000000
   25       -8.123146   1.000000
   26       -7.937227   1.000000
   27       -7.485526   1.000000
   28       -7.239839   1.000000
   29       -6.803502   1.000000
   30       -6.416535   1.000000
   31       -6.338424   1.000000
   32       -6.258342   1.000000
   33       -5.983237   1.000000
   34       -5.872828   1.000000
   35       -5.663383   1.000000
   36       -5.588307   1.000000
   37       -5.462091   1.000000
   38       -5.354728   1.000000
   39       -5.322403   1.000000
   40       -5.087173   1.000000
   41       -5.049730   1.000000
   42       -5.024604   1.000000
   43       -4.966732   1.000000
   44       -4.868976   1.000000
   45       -4.812408   1.000000
   46       -4.722877   1.000000
   47       -4.544017   1.000000
   48       -4.503941   1.000000
   49       -4.478161   1.000000
   50       -4.417955   1.000000
   51       -4.371955   1.000000
   52       -4.347890   1.000000
   53       -4.214562   1.000000
   54       -4.183154   1.000000
   55       -4.100647   1.000000
   56       -4.079916   1.000000
   57       -4.015146   1.000000
   58       -3.945851   1.000000
   59       -3.910798   1.000000
   60       -3.820590   1.000000
   61       -3.755067   1.000000
   62       -3.696581   1.000000
   63       -3.573178   1.000000
   64       -3.564851   1.000000
   65       -3.366429   1.000000
   66       -3.345533   1.000000
   67       -3.265771   1.000000
   68       -3.237631   1.000000
   69       -3.186173   1.000000
   70       -3.096229   1.000000
   71       -3.065524   1.000000
   72       -2.883003   1.000000
   73       -2.806807   1.000000
   74       -2.731084   1.000000
   75       -2.511305   1.000000
   76       -2.387722   1.000000
   77       -2.365765   1.000000
   78       -2.225350   1.000000
   79       -2.127688   1.000000
   80       -1.934832   1.000000
   81       -1.768828   1.000000
   82       -1.557466   1.000000
   83       -1.441931   1.000000
   84       -1.324693   1.000000
   85       -1.052141   1.000000
   86       -0.880790   1.000000
   87       -0.764168   1.000000
   88       -0.663222   1.000000
   89       -0.606840   1.000000
   90       -0.448437   1.000000
   91       -0.305793   1.000000
   92       -0.159822   1.000004
   93       -0.077421   1.000452
   94        0.080954   1.033373
   95        0.262069   0.041988
   96        0.350855  -0.023873
   97        0.431885  -0.001844
   98        0.459371  -0.000530
   99        0.513298  -0.000028
  100        0.730347  -0.000000
  101        0.780262  -0.000000
  102        0.804576  -0.000000
  103        1.017827  -0.000000
  104        1.033073  -0.000000
  105        1.167511  -0.000000
  106        1.183484  -0.000000
  107        1.437173  -0.000000
  108        1.460027  -0.000000
  109        1.536592  -0.000000
  110        1.564571  -0.000000
  111        1.599546  -0.000000
  112        1.649058  -0.000000
  113        1.667192  -0.000000
  114        1.684587  -0.000000
  115        1.710099  -0.000000
  116        1.798425  -0.000000
  117        1.862228  -0.000000
  118        1.935909  -0.000000
  119        1.969434  -0.000000
  120        2.024007  -0.000000
  121        2.048291  -0.000000
  122        2.127280  -0.000000
  123        2.137391  -0.000000
  124        2.161294  -0.000000
  125        2.251866  -0.000000
  126        2.457280  -0.000000
  127        2.548830  -0.000000
  128        3.760957   0.000000

  0.4444444E+00  0.3870091E-15  0.3932070E-15  0.6734007E-02
    1      -13.455479   1.000000
    2      -13.237836   1.000000
    3      -12.180730   1.000000
    4      -11.990151   1.000000
    5      -11.362288   1.000000
    6      -11.250826   1.000000
    7      -11.002924   1.000000
    8      -11.001650   1.000000
    9      -10.769603   1.000000
   10      -10.643023   1.000000
   11      -10.535843   1.000000
   12      -10.525547   1.000000
   13      -10.065182   1.000000
   14      -10.059682   1.000000
   15       -9.614559   1.000000
   16       -9.483913   1.000000
   17       -9.142175   1.000000
   18       -8.989645   1.000000
   19       -8.818122   1.000000
   20       -8.779296   1.000000
   21       -8.557728   1.000000
   22       -8.378793   1.000000
   23       -8.355711   1.000000
   24       -8.202917   1.000000
   25       -8.175799   1.000000
   26       -8.152544   1.000000
   27       -7.232590   1.000000
   28       -7.072287   1.000000
   29       -6.907880   1.000000
   30       -6.714796   1.000000
   31       -6.346017   1.000000
   32       -6.250944   1.000000
   33       -5.916164   1.000000
   34       -5.682509   1.000000
   35       -5.580043   1.000000
   36       -5.500218   1.000000
   37       -5.400170   1.000000
   38       -5.336237   1.000000
   39       -5.279682   1.000000
   40       -5.207729   1.000000
   41       -5.191412   1.000000
   42       -5.058155   1.000000
   43       -5.009552   1.000000
   44       -4.746629   1.000000
   45       -4.714212   1.000000
   46       -4.622730   1.000000
   47       -4.582094   1.000000
   48       -4.526212   1.000000
   49       -4.487029   1.000000
   50       -4.427701   1.000000
   51       -4.353380   1.000000
   52       -4.288754   1.000000
   53       -4.212596   1.000000
   54       -4.143628   1.000000
   55       -4.131657   1.000000
   56       -4.028231   1.000000
   57       -3.991346   1.000000
   58       -3.942174   1.000000
   59       -3.895042   1.000000
   60       -3.793075   1.000000
   61       -3.770099   1.000000
   62       -3.732229   1.000000
   63       -3.687266   1.000000
   64       -3.538105   1.000000
   65       -3.449023   1.000000
   66       -3.342046   1.000000
   67       -3.313330   1.000000
   68       -3.221804   1.000000
   69       -3.155805   1.000000
   70       -3.086347   1.000000
   71       -3.073697   1.000000
   72       -2.788720   1.000000
   73       -2.734487   1.000000
   74       -2.638421   1.000000
   75       -2.564938   1.000000
   76       -2.520624   1.000000
   77       -2.447015   1.000000
   78       -2.352718   1.000000
   79       -2.097118   1.000000
   80       -2.020656   1.000000
   81       -1.738888   1.000000
   82       -1.535346   1.000000
   83       -1.441681   1.000000
   84       -1.376724   1.000000
   85       -0.892614   1.000000
   86       -0.813083   1.000000
   87       -0.749541   1.000000
   88       -0.699903   1.000000
   89       -0.523135   1.000000
   90       -0.458410   1.000000
   91       -0.384697   1.000000
   92       -0.224173   1.000000
   93       -0.042042   1.002237
   94        0.029837   1.021794
   95        0.184565   0.567743
   96        0.344768  -0.026674
   97        0.400350  -0.006174
   98        0.424341  -0.002517
   99        0.703461  -0.000000
  100        0.716239  -0.000000
  101        0.762686  -0.000000
  102        0.778577  -0.000000
  103        0.958558  -0.000000
  104        1.056916  -0.000000
  105        1.328151  -0.000000
  106        1.362793  -0.000000
  107        1.446519  -0.000000
  108        1.541095  -0.000000
  109        1.563404  -0.000000
  110        1.603124  -0.000000
  111        1.635604  -0.000000
  112        1.654323  -0.000000
  113        1.669349  -0.000000
  114        1.692436  -0.000000
  115        1.724390  -0.000000
  116        1.745506  -0.000000
  117        1.855199  -0.000000
  118        1.876855  -0.000000
  119        1.887097  -0.000000
  120        1.928465  -0.000000
  121        1.960059  -0.000000
  122        1.985227  -0.000000
  123        2.154017  -0.000000
  124        2.200133  -0.000000
  125        2.295145  -0.000000
  126        2.384191  -0.000000
  127        2.437364  -0.000000
  128        3.769618   0.000000

  0.3742002E-15  0.9090909E-01  0.3596334E-15  0.6734007E-02
    1      -13.838213   1.000000
    2      -12.523965   1.000000
    3      -12.386230   1.000000
    4      -11.800871   1.000000
    5      -11.519806   1.000000
    6      -11.239183   1.000000
    7      -11.188134   1.000000
    8      -11.024522   1.000000
    9      -11.001566   1.000000
   10      -10.587291   1.000000
   11      -10.558964   1.000000
   12      -10.358980   1.000000
   13      -10.097231   1.000000
   14      -10.030696   1.000000
   15       -9.707487   1.000000
   16       -9.648074   1.000000
   17       -9.151445   1.000000
   18       -9.071360   1.000000
   19       -8.881897   1.000000
   20       -8.527346   1.000000
   21       -8.474173   1.000000
   22       -8.215630   1.000000
   23       -8.111589   1.000000
   24       -7.929750   1.000000
   25       -7.778344   1.000000
   26       -7.744370   1.000000
   27       -7.462297   1.000000
   28       -7.263119   1.000000
   29       -6.845732   1.000000
   30       -6.502682   1.000000
   31       -6.421767   1.000000
   32       -6.366971   1.000000
   33       -6.071397   1.000000
   34       -5.951059   1.000000
   35       -5.810924   1.000000
   36       -5.691561   1.000000
   37       -5.512867   1.000000
   38       -5.437151   1.000000
   39       -5.266948   1.000000
   40       -5.227036   1.000000
   41       -5.170455   1.000000
   42       -5.127764   1.000000
   43       -4.973772   1.000000
   44       -4.898236   1.000000
   45       -4.808739   1.000000
   46       -4.721800   1.000000
   47       -4.667824   1.000000
   48       -4.645744   1.000000
   49       -4.556330   1.000000
   50       -4.491585   1.000000
   51       -4.464925   1.000000
   52       -4.386882   1.000000
   53       -4.319888   1.000000
   54       -4.232204   1.000000
   55       -4.143116   1.000000
   56       -4.084464   1.000000
   57       -3.998089   1.000000
   58       -3.956448   1.000000
   59       -3.901198   1.000000
   60       -3.840471   1.000000
   61       -3.823277   1.000000
   62       -3.705733   1.000000
   63       -3.462496   1.000000
   64       -3.416474   1.000000
   65       -3.327387   1.000000
   66       -3.315220   1.000000
   67       -3.227231   1.000000
   68       -3.211461   1.000000
   69       -3.186612   1.000000
   70       -3.130356   1.000000
   71       -3.094842   1.000000
   72       -2.956601   1.000000
   73       -2.932808   1.000000
   74       -2.786011   1.000000
   75       -2.326112   1.000000
   76       -2.274061   1.000000
   77       -2.143388   1.000000
   78       -2.063576   1.000000
   79       -1.974568   1.000000
   80       -1.868743   1.000000
   81       -1.739860   1.000000
   82       -1.585394   1.000000
   83       -1.492301   1.000000
   84       -1.324768   1.000000
   85       -1.216818   1.000000
   86       -1.020005   1.000000
   87       -0.915513   1.000000
   88       -0.891774   1.000000
   89       -0.828213   1.000000
   90       -0.394978   1.000000
   91       -0.172417   1.000002
   92       -0.046807   1.001835
   93        0.042688   1.027691
   94        0.121100   0.964994
   95        0.194577   0.483255
   96        0.232933   0.187498
   97        0.321651  -0.034849
   98        0.489525  -0.000111
   99        0.560597  -0.000001
  100        0.658062  -0.000000
  101        0.774929  -0.000000
  102        0.847138  -0.000000
  103        0.914889  -0.000000
  104        1.073460  -0.000000
  105        1.091425  -0.000000
  106        1.105104  -0.000000
  107        1.211954  -0.000000
  108        1.354506  -0.000000
  109        1.457279  -0.000000
  110        1.476405  -0.000000
  111        1.550847  -0.000000
  112        1.563076  -0.000000
  113        1.604967  -0.000000
  114        1.667181  -0.000000
  115        1.777813  -0.000000
  116        1.806031  -0.000000
  117        1.838751  -0.000000
  118        1.919362  -0.000000
  119        1.957042  -0.000000
  120        2.062217  -0.000000
  121        2.095135  -0.000000
  122        2.132756  -0.000000
  123        2.206178  -0.000000
  124        2.213701  -0.000000
  125        2.367850  -0.000000
  126        2.391314  -0.000000
  127        2.560524  -0.000000
  128        4.061339   0.000000

  0.1111111E+00  0.9090909E-01  0.4822234E-15  0.6734007E-02
    1      -13.789394   1.000000
    2      -12.566960   1.000000
    3      -12.477221   1.000000
    4      -11.730184   1.000000
    5      -11.492745   1.000000
    6      -11.284507   1.000000
    7      -11.134313   1.000000
    8      -11.096951   1.000000
    9      -10.976697   1.000000
   10      -10.590256   1.000000
   11      -10.497609   1.000000
   12      -10.371368   1.000000
   13      -10.110647   1.000000
   14      -10.052821   1.000000
   15       -9.694087   1.000000
   16       -9.614477   1.000000
   17       -9.127131   1.000000
   18       -9.065679   1.000000
   19       -8.873759   1.000000
   20       -8.580724   1.000000
   21       -8.514793   1.000000
   22       -8.282988   1.000000
   23       -8.156224   1.000000
   24       -7.828784   1.000000
   25       -7.818484   1.000000
   26       -7.766078   1.000000
   27       -7.563836   1.000000
   28       -7.312790   1.000000
   29       -6.794940   1.000000
   30       -6.523241   1.000000
   31       -6.313776   1.000000
   32       -6.256088   1.000000
   33       -6.038585   1.000000
   34       -5.959964   1.000000
   35       -5.852700   1.000000
   36       -5.654334   1.000000
   37       -5.565329   1.000000
   38       -5.342654   1.000000
   39       -5.300750   1.000000
   40       -5.223080   1.000000
   41       -5.140776   1.000000
   42       -5.072598   1.000000
   43       -4.984838   1.000000
   44       -4.901027   1.000000
   45       -4.870328   1.000000
   46       -4.738548   1.000000
   47       -4.609988   1.000000
   48       -4.562752   1.000000
   49       -4.525823   1.000000
   50       -4.481903   1.000000
   51       -4.396914   1.000000
   52       -4.371960   1.000000
   53       -4.312883   1.000000
   54       -4.258926   1.000000
   55       -4.154701   1.000000
   56       -4.114693   1.000000
   57       -4.033486   1.000000
   58       -3.987100   1.000000
   59       -3.887730   1.000000
   60       -3.829485   1.000000
   61       -3.796027   1.000000
   62       -3.665724   1.000000
   63       -3.499865   1.000000
   64       -3.413812   1.000000
   65       -3.372587   1.000000
   66       -3.368893   1.000000
   67       -3.242938   1.000000
   68       -3.201566   1.000000
   69       -3.118016   1.000000
   70       -3.106735   1.000000
   71       -3.067189   1.000000
   72       -2.992716   1.000000
   73       -2.927044   1.000000
   74       -2.818597   1.000000
   75       -2.378125   1.000000
   76       -2.296779   1.000000
   77       -2.151747   1.000000
   78       -2.123131   1.000000
   79       -1.984570   1.000000
   80       -1.900949   1.000000
   81       -1.806509   1.000000
   82       -1.544357   1.000000
   83       -1.440783   1.000000
   84       -1.335910   1.000000
   85       -1.241987   1.000000
   86       -1.011940   1.000000
   87       -0.863508   1.000000
   88       -0.817482   1.000000
   89       -0.699921   1.000000
   90       -0.484353   1.000000
   91       -0.181465   1.000001
   92       -0.093562   1.000198
   93        0.022915   1.018686
   94        0.112745   0.989672
   95        0.200507   0.433302
   96        0.303930  -0.033242
   97        0.332345  -0.031864
   98        0.428835  -0.002095
   99        0.518993  -0.000020
  100        0.684172  -0.000000
  101        0.767543  -0.000000
  102        0.891843  -0.000000
  103        0.912381  -0.000000
  104        1.023217  -0.000000
  105        1.098935  -0.000000
  106        1.139989  -0.000000
  107        1.315777  -0.000000
  108        1.400453  -0.000000
  109        1.437393  -0.000000
  110        1.456229  -0.000000
  111        1.578205  -0.000000
  112        1.605969  -0.000000
  113        1.649269  -0.000000
  114        1.707657  -0.000000
  115        1.757300  -0.000000
  116        1.786309  -0.000000
  117        1.802368  -0.000000
  118        1.919943  -0.000000
  119        1.968617  -0.000000
  120        2.032628  -0.000000
  121        2.095444  -0.000000
  122        2.119226  -0.000000