   58   58    1    1
  0.1225654E+02  0.6078000E-09  0.6078000E-09  0.2222000E-08  0.5000000E-15
   1.0000000000000000E-004
  CAR 
 Name                                    
    202     41    132

  0.3742002E-15  0.3742002E-15  0.1262379E-14  0.1234568E-01
    1      -11.012855   1.000000
    2      -10.434744   1.000000
    3       -9.731378   1.000000
    4       -9.085215   1.000000
    5       -8.141779   1.000000
    6       -8.035738   1.000000
    7       -7.669176   1.000000
    8       -7.527522   1.000000
    9       -7.289531   1.000000
   10       -7.238466   1.000000
   11       -7.231679   1.000000
   12       -7.149787   1.000000
   13       -7.126504   1.000000
   14       -7.075165   1.000000
   15       -7.003560   1.000000
   16       -6.866242   1.000000
   17       -6.818638   1.000000
   18       -6.817031   1.000000
   19       -6.705383   1.000000
   20       -6.612136   1.000000
   21       -6.441125   1.000000
   22       -6.385889   1.000000
   23       -6.189478   1.000000
   24       -5.623955   1.000000
   25       -5.548984   1.000000
   26       -5.386807   1.000000
   27       -5.347920   1.000000
   28       -5.295575   1.000000
   29       -5.221189   1.000000
   30       -5.128911   1.000000
   31       -4.953529   1.000000
   32       -4.166339   1.000000
   33       -4.029586   1.000000
   34       -4.013231   1.000000
   35       -4.004253   1.000000
   36       -3.876359   1.000000
   37       -3.748972   1.000000
   38       -2.994126   1.000000
   39       -2.763838   1.000000
   40       -2.697444   1.000000
   41       -2.574593   1.000000
   42       -2.236579   1.000000
   43       -2.232527   1.000000
   44       -2.051189   1.000000
   45       -1.965705   1.000000
   46       -1.936702   1.000000
   47       -1.907013   1.000000
   48       -1.867664   1.000000
   49       -1.720935   1.000000
   50       -1.502027   1.000000
   51       -1.467769   1.000000
   52       -1.462361   1.000000
   53       -1.387359   1.000000
   54       -1.284676   1.000000
   55       -1.156866   1.000000
   56       -1.155751   1.000000
   57       -1.147346   1.000000
   58       -1.119049   1.000000
   59       -1.006213   1.000000
   60       -0.963798   1.000000
   61       -0.899230   1.000000
   62       -0.852274   1.000000
   63       -0.797385   1.000000
   64       -0.680254   1.000000
   65       -0.568982   1.000000
   66       -0.551023   1.000000
   67       -0.525658   1.000000
   68       -0.505073   1.000000
   69       -0.320753   1.000000
   70       -0.292592   1.000000
   71       -0.258420   1.000000
   72       -0.175993   1.000000
   73       -0.120244   1.000000
   74       -0.036269   1.000000
   75        0.200226   1.000000
   76        0.258873   1.000000
   77        0.365028   1.000000
   78        0.432123   1.000000
   79        0.530556   1.000000
   80        0.551546   1.000000
   81        0.815959   1.000000
   82        0.864170   1.000000
   83        0.873788   1.000000
   84        1.139618   1.000000
   85        1.354560   1.000000
   86        1.481860   1.000000
   87        1.753070   1.000000
   88        1.765251   1.000000
   89        1.823700   1.000000
   90        1.833519   1.000000
   91        1.962236   1.000000
   92        2.035231   1.000000
   93        2.090089   1.000000
   94        2.122882   1.000000
   95        2.126786   1.000000
   96        2.249490   1.000000
   97        2.381492   1.000006
   98        2.494415   1.000180
   99        2.688118   1.010533
  100        3.157160   0.168355
  101        3.281529  -0.029985
  102        3.315659  -0.035458
  103        3.431260  -0.014264
  104        3.497011  -0.005080
  105        3.581159  -0.000907
  106        3.653210  -0.000150
  107        3.755693  -0.000007
  108        3.819676  -0.000001
  109        4.075352  -0.000000
  110        4.093709  -0.000000
  111        4.125753  -0.000000
  112        4.148481  -0.000000
  113        4.182186  -0.000000
  114        4.205408  -0.000000
  115        4.245144  -0.000000
  116        4.297275  -0.000000
  117        4.314447  -0.000000
  118        4.425896  -0.000000
  119        4.489961  -0.000000
  120        4.526890  -0.000000
  121        4.566159  -0.000000
  122        4.606159  -0.000000
  123        4.701169  -0.000000
  124        4.817499  -0.000000
  125        4.864560  -0.000000
  126        5.043570  -0.000000
  127        5.412032  -0.000000
  128        6.040397  -0.000000
  129        6.476844  -0.000000
  130        6.597188  -0.000000
  131        6.685984  -0.000000
  132        6.941075  -0.000000

  0.1111111E+00  0.3756941E-15  0.1262379E-14  0.2469136E-01
    1      -10.955570   1.000000
    2      -10.382088   1.000000
    3       -9.686704   1.000000
    4       -9.050787   1.000000
    5       -8.109815   1.000000
    6       -8.056732   1.000000
    7       -7.806308   1.000000
    8       -7.779716   1.000000
    9       -7.538781   1.000000
   10       -7.387032   1.000000
   11       -7.355472   1.000000
   12       -7.339295   1.000000
   13       -7.314226   1.000000
   14       -7.280228   1.000000
   15       -7.168435   1.000000
   16       -6.801467   1.000000
   17       -6.672230   1.000000
   18       -6.582518   1.000000
   19       -6.556139   1.000000
   20       -6.321157   1.000000
   21       -6.231939   1.000000
   22       -6.163477   1.000000
   23       -6.016219   1.000000
   24       -5.586479   1.000000
   25       -5.551422   1.000000
   26       -5.401588   1.000000
   27       -5.290051   1.000000
   28       -5.267076   1.000000
   29       -5.144076   1.000000
   30       -5.021232   1.000000
   31       -4.872874   1.000000
   32       -4.002310   1.000000
   33       -3.969381   1.000000
   34       -3.955300   1.000000
   35       -3.870169   1.000000
   36       -3.767874   1.000000
   37       -3.616650   1.000000
   38       -2.982127   1.000000
   39       -2.724995   1.000000
   40       -2.715241   1.000000
   41       -2.611616   1.000000
   42       -2.367818   1.000000
   43       -2.227983   1.000000
   44       -2.141542   1.000000
   45       -2.019338   1.000000
   46       -2.015370   1.000000
   47       -1.958376   1.000000
   48       -1.893246   1.000000
   49       -1.737193   1.000000
   50       -1.612568   1.000000
   51       -1.579545   1.000000
   52       -1.446947   1.000000
   53       -1.386408   1.000000
   54       -1.332161   1.000000
   55       -1.255481   1.000000
   56       -1.157170   1.000000
   57       -1.137576   1.000000
   58       -1.092092   1.000000
   59       -1.045520   1.000000
   60       -0.935074   1.000000
   61       -0.897151   1.000000
   62       -0.846475   1.000000
   63       -0.822654   1.000000
   64       -0.761211   1.000000
   65       -0.644126   1.000000
   66       -0.577030   1.000000
   67       -0.549916   1.000000
   68       -0.507260   1.000000
   69       -0.386520   1.000000
   70       -0.289455   1.000000
   71       -0.252574   1.000000
   72       -0.163161   1.000000
   73       -0.084891   1.000000
   74       -0.025234   1.000000
   75        0.045325   1.000000
   76        0.227015   1.000000
   77        0.341185   1.000000
   78        0.361090   1.000000
   79        0.453222   1.000000
   80        0.598040   1.000000
   81        0.669977   1.000000
   82        0.736646   1.000000
   83        0.924898   1.000000
   84        1.060238   1.000000
   85        1.247708   1.000000
   86        1.484390   1.000000
   87        1.585776   1.000000
   88        1.618482   1.000000
   89        1.709640   1.000000
   90        1.762358   1.000000
   91        1.865707   1.000000
   92        2.020071   1.000000
   93        2.031268   1.000000
   94        2.077237   1.000000
   95        2.259214   1.000000
   96        2.267236   1.000000
   97        2.412737   1.000017
   98        2.642496   1.004966
   99        2.905852   0.995623
  100        3.151676   0.185515
  101        3.204407   0.051000
  102        3.319825  -0.035383
  103        3.355459  -0.030809
  104        3.427606  -0.014972
  105        3.535459  -0.002438
  106        3.807255  -0.000001
  107        3.845275  -0.000000
  108        3.968794  -0.000000
  109        4.036702  -0.000000
  110        4.072229  -0.000000
  111        4.097930  -0.000000
  112        4.154738  -0.000000
  113        4.175960  -0.000000
  114        4.190207  -0.000000
  115        4.239176  -0.000000
  116        4.288120  -0.000000
  117        4.295852  -0.000000
  118        4.369066  -0.000000
  119        4.410438  -0.000000
  120        4.492827  -0.000000
  121        4.533469  -0.000000
  122        4.564256  -0.000000
  123        4.595962  -0.000000
  124        4.632829  -0.000000
  125        4.796106  -0.000000
  126        4.879625  -0.000000
  127        5.032648  -0.000000
  128        5.384035  -0.000000
  129        6.221430  -0.000000
  130        6.605990  -0.000000
  131        6.938204  -0.000000
  132        6.978171  -0.000000

  0.2222222E+00  0.3503827E-15  0.1262379E-14  0.2469136E-01
    1      -10.785656   1.000000
    2      -10.226342   1.000000
    3       -9.555512   1.000000
    4       -8.949113   1.000000
    5       -8.458180   1.000000
    6       -8.219639   1.000000
    7       -8.145340   1.000000
    8       -7.987436   1.000000
    9       -7.632461   1.000000
   10       -7.619493   1.000000
   11       -7.595286   1.000000
   12       -7.555120   1.000000
   13       -7.509915   1.000000
   14       -7.444530   1.000000
   15       -7.412936   1.000000
   16       -6.905102   1.000000
   17       -6.689497   1.000000
   18       -6.444841   1.000000
   19       -6.173653   1.000000
   20       -6.123443   1.000000
   21       -5.961967   1.000000
   22       -5.906763   1.000000
   23       -5.503314   1.000000
   24       -5.428627   1.000000
   25       -5.368709   1.000000
   26       -5.241934   1.000000
   27       -5.147185   1.000000
   28       -5.109141   1.000000
   29       -4.761599   1.000000
   30       -4.707408   1.000000
   31       -4.640208   1.000000
   32       -3.867425   1.000000
   33       -3.794354   1.000000
   34       -3.767914   1.000000
   35       -3.675077   1.000000
   36       -3.377587   1.000000
   37       -3.177544   1.000000
   38       -2.967455   1.000000
   39       -2.785622   1.000000
   40       -2.762706   1.000000
   41       -2.675998   1.000000
   42       -2.617655   1.000000
   43       -2.575223   1.000000
   44       -2.489627   1.000000
   45       -2.177657   1.000000
   46       -2.068054   1.000000
   47       -1.990119   1.000000
   48       -1.877238   1.000000
   49       -1.755235   1.000000
   50       -1.715936   1.000000
   51       -1.607727   1.000000
   52       -1.544842   1.000000
   53       -1.489557   1.000000
   54       -1.403337   1.000000
   55       -1.376398   1.000000
   56       -1.283335   1.000000
   57       -1.257573   1.000000
   58       -1.232539   1.000000
   59       -1.053117   1.000000
   60       -0.975145   1.000000
   61       -0.946214   1.000000
   62       -0.878736   1.000000
   63       -0.863195   1.000000
   64       -0.834164   1.000000
   65       -0.752470   1.000000
   66       -0.711998   1.000000
   67       -0.647908   1.000000
   68       -0.528119   1.000000
   69       -0.498041   1.000000
   70       -0.394925   1.000000
   71       -0.328537   1.000000
   72       -0.240170   1.000000
   73       -0.197783   1.000000
   74       -0.102886   1.000000
   75        0.040570   1.000000
   76        0.134067   1.000000
   77        0.161474   1.000000
   78        0.245278   1.000000
   79        0.374317   1.000000
   80        0.522069   1.000000
   81        0.578897   1.000000
   82        0.793122   1.000000
   83        0.885999   1.000000
   84        0.993347   1.000000
   85        1.073832   1.000000
   86        1.217409   1.000000
   87        1.373823   1.000000
   88        1.461705   1.000000
   89        1.578388   1.000000
   90        1.615970   1.000000
   91        1.832100   1.000000
   92        1.838157   1.000000
   93        1.996887   1.000000
   94        2.012981   1.000000
   95        2.251175   1.000000
   96        2.387128   1.000008
   97        2.474031   1.000103
   98        2.550415   1.000733
   99        2.860719   1.029443
  100        3.013769   0.729257
  101        3.233276   0.006347
  102        3.337736  -0.033806
  103        3.530382  -0.002700
  104        3.594625  -0.000662
  105        3.716421  -0.000024
  106        3.794000  -0.000002
  107        3.839830  -0.000000
  108        3.885121  -0.000000
  109        3.924034  -0.000000
  110        3.972599  -0.000000
  111        3.990230  -0.000000
  112        4.060145  -0.000000
  113        4.147286  -0.000000
  114        4.210066  -0.000000
  115        4.232193  -0.000000
  116        4.238810  -0.000000
  117        4.272206  -0.000000
  118        4.317185  -0.000000
  119        4.379144  -0.000000
  120        4.398618  -0.000000
  121        4.470753  -0.000000
  122        4.487908  -0.000000
  123        4.566594  -0.000000
  124        4.614410  -0.000000
  125        4.644283  -0.000000
  126        4.750980  -0.000000
  127        4.846366  -0.000000
  128        4.899531  -0.000000
  129        5.100962  -0.000000
  130        6.345077  -0.000000
  131        6.702537  -0.000000
  132        7.090253  -0.000000

  0.3333333E+00  0.3779629E-15  0.1262379E-14  0.2469136E-01
    1      -10.509598   1.000000
    2       -9.974713   1.000000
    3       -9.347344   1.000000
    4       -9.075359   1.000000
    5       -8.778913   1.000000
    6       -8.706516   1.000000
    7       -8.399864   1.000000
    8       -7.913958   1.000000
    9       -7.821446   1.000000
   10       -7.777414   1.000000
   11       -7.739587   1.000000
   12       -7.713096   1.000000
   13       -7.619903   1.000000
   14       -7.554160   1.000000
   15       -7.483043   1.000000
   16       -6.974661   1.000000
   17       -6.813616   1.000000
   18       -6.768254   1.000000
   19       -5.927634   1.000000
   20       -5.910389   1.000000
   21       -5.544215   1.000000
   22       -5.514453   1.000000
   23       -5.335542   1.000000
   24       -5.270114   1.000000
   25       -5.224052   1.000000
   26       -5.064004   1.000000
   27       -4.588368   1.000000
   28       -4.461678   1.000000
   29       -4.413299   1.000000
   30       -4.299464   1.000000
   31       -4.104252   1.000000
   32       -3.734416   1.000000
   33       -3.551175   1.000000
   34       -3.492164   1.000000
   35       -3.444596   1.000000
   36       -3.243968   1.000000
   37       -3.146826   1.000000
   38       -3.091396   1.000000
   39       -3.068131   1.000000
   40       -3.009858   1.000000
   41       -2.976308   1.000000
   42       -2.826554   1.000000
   43       -2.554812   1.000000
   44       -2.447986   1.000000
   45       -2.214418   1.000000
   46       -2.150761   1.000000
   47       -2.023203   1.000000
   48       -2.002845   1.000000
   49       -1.924551   1.000000
   50       -1.835464   1.000000
   51       -1.728988   1.000000
   52       -1.644881   1.000000
   53       -1.593539   1.000000
   54       -1.556562   1.000000
   55       -1.469220   1.000000
   56       -1.450496   1.000000
   57       -1.357569   1.000000
   58       -1.313260   1.000000
   59       -1.214221   1.000000
   60       -1.118807   1.000000
   61       -1.091329   1.000000
   62       -1.026670   1.000000
   63       -0.974375   1.000000
   64       -0.937443   1.000000
   65       -0.910503   1.000000
   66       -0.843573   1.000000
   67       -0.734775   1.000000
   68       -0.645078   1.000000
   69       -0.539977   1.000000
   70       -0.475741   1.000000
   71       -0.375021   1.000000
   72       -0.299313   1.000000
   73       -0.210003   1.000000
   74       -0.084150   1.000000
   75       -0.042744   1.000000
   76        0.034319   1.000000
   77        0.075001   1.000000
   78        0.160540   1.000000
   79        0.213160   1.000000
   80        0.396567   1.000000
   81        0.531596   1.000000
   82        0.617761   1.000000
   83        0.845837   1.000000
   84        0.948193   1.000000
   85        1.020237   1.000000
   86        1.120917   1.000000
   87        1.393465   1.000000
   88        1.442902   1.000000
   89        1.463610   1.000000
   90        1.618670   1.000000
   91        1.710817   1.000000
   92        1.728111   1.000000
   93        1.918232   1.000000
   94        2.016137   1.000000
   95        2.091456   1.000000
   96        2.305997   1.000000
   97        2.388268   1.000008
   98        2.700251   1.012561
   99        2.766881   1.026864
  100        2.846465   1.033501
  101        3.181625   0.100613
  102        3.323913  -0.035191
  103        3.342416  -0.033124
  104        3.438576  -0.012908
  105        3.540985  -0.002177
  106        3.657582  -0.000133
  107        3.691930  -0.000050
  108        3.801762  -0.000001
  109        3.861693  -0.000000
  110        3.901924  -0.000000
  111        3.936473  -0.000000
  112        4.020630  -0.000000
  113        4.076316  -0.000000
  114        4.101266  -0.000000
  115        4.197911  -0.000000
  116        4.239445  -0.000000
  117        4.327645  -0.000000
  118        4.360547  -0.000000
  119        4.370683  -0.000000
  120        4.442888  -0.000000
  121        4.476196  -0.000000
  122        4.509135  -0.000000
  123        4.630337  -0.000000
  124        4.656862  -0.000000
  125        4.683832  -0.000000
  126        4.780047  -0.000000
  127        4.828550  -0.000000
  128        5.016686  -0.000000
  129        5.093436  -0.000000
  130        5.174784  -0.000000
  131        5.391549  -0.000000
  132        6.157023  -0.000000

  0.4444444E+00  0.3698634E-15  0.1262379E-14  0.2469136E-01
    1      -10.149446   1.000000
    2       -9.656189   1.000000
    3       -9.597359   1.000000
    4       -9.181548   1.000000
    5       -9.073739   1.000000
    6       -8.707218   1.000000
    7       -8.558956   1.000000
    8       -8.236364   1.000000
    9       -7.871016   1.000000
   10       -7.818880   1.000000
   11       -7.776575   1.000000
   12       -7.668437   1.000000
   13       -7.628411   1.000000
   14       -7.541649   1.000000
   15       -7.478639   1.000000
   16       -7.198853   1.000000
   17       -6.999715   1.000000
   18       -6.824724   1.000000
   19       -5.859466   1.000000
   20       -5.846229   1.000000
   21       -5.256333   1.000000
   22       -5.146212   1.000000
   23       -5.107340   1.000000
   24       -5.099160   1.000000
   25       -5.060553   1.000000
   26       -5.006702   1.000000
   27       -4.233027   1.000000
   28       -3.996931   1.000000
   29       -3.930445   1.000000
   30       -3.733999   1.000000
   31       -3.699032   1.000000
   32       -3.644829   1.000000
   33       -3.590014   1.000000
   34       -3.486233   1.000000
   35       -3.400926   1.000000
   36       -3.316156   1.000000
   37       -3.249341   1.000000
   38       -3.202047   1.000000
   39       -3.176552   1.000000
   40       -3.134202   1.000000
   41       -3.061898   1.000000
   42       -2.965906   1.000000
   43       -2.861883   1.000000
   44       -2.650137   1.000000
   45       -2.427213   1.000000
   46       -2.176614   1.000000
   47       -2.123320   1.000000
   48       -2.040939   1.000000
   49       -1.957209   1.000000
   50       -1.828144   1.000000
   51       -1.766015   1.000000
   52       -1.724934   1.000000
   53       -1.703444   1.000000
   54       -1.620782   1.000000
   55       -1.506488   1.000000
   56       -1.502124   1.000000
   57       -1.383878   1.000000
   58       -1.351151   1.000000
   59       -1.271610   1.000000
   60       -1.189282   1.000000
   61       -1.174480   1.000000
   62       -1.113735   1.000000
   63       -1.058749   1.000000
   64       -1.040739   1.000000
   65       -0.942447   1.000000
   66       -0.924274   1.000000
   67       -0.771847   1.000000
   68       -0.711389   1.000000
   69       -0.642472   1.000000
   70       -0.532201   1.000000
   71       -0.440423   1.000000
   72       -0.339882   1.000000
   73       -0.235894   1.000000
   74       -0.208171   1.000000
   75       -0.093230   1.000000
   76       -0.037461   1.000000
   77       -0.010217   1.000000
   78        0.074687   1.000000
   79        0.243360   1.000000
   80        0.290701   1.000000
   81        0.451400   1.000000
   82        0.673209   1.000000
   83        0.757786   1.000000
   84        0.839798   1.000000
   85        1.062758   1.000000
   86        1.139423   1.000000
   87        1.283003   1.000000
   88        1.471159   1.000000
   89        1.538827   1.000000
   90        1.611990   1.000000
   91        1.701084   1.000000
   92        1.792274   1.000000
   93        1.905899   1.000000
   94        1.989208   1.000000
   95        2.034832   1.000000
   96        2.230275   1.000000
   97        2.396945   1.000010
   98        2.744170   1.021635
   99        2.785416   1.030829
  100        2.843020   1.034119
  101        2.877301   1.021157
  102        3.055919   0.561038
  103        3.165153   0.144611
  104        3.270251  -0.025057
  105        3.386780  -0.023900
  106        3.507641  -0.004185
  107        3.610814  -0.000448
  108        3.741133  -0.000011
  109        3.779555  -0.000003
  110        3.821131  -0.000001
  111        3.848853  -0.000000
  112        3.914964  -0.000000
  113        4.013338  -0.000000
  114        4.062592  -0.000000
  115        4.143869  -0.000000
  116        4.234983  -0.000000
  117        4.257536  -0.000000
  118        4.314025  -0.000000
  119        4.348655  -0.000000
  120        4.427360  -0.000000
  121        4.507023  -0.000000
  122        4.546904  -0.000000
  123        4.597036  -0.000000
  124        4.734686  -0.000000
  125        4.824414  -0.000000
  126        4.870527  -0.000000
  127        4.931188  -0.000000
  128        4.976187  -0.000000
  129        5.233941  -0.000000
  130        5.426339  -0.000000
  131        5.503913  -0.000000
  132        5.516136  -0.000000

  0.3742002E-15  0.1111111E+00  0.1262379E-14  0.2469136E-01
    1      -10.955572   1.000000
    2      -10.382088   1.000000
    3       -9.686699   1.000000
    4       -9.050775   1.000000
    5       -8.109806   1.000000
    6       -8.056696   1.000000
    7       -7.806393   1.000000
    8       -7.779620   1.000000
    9       -7.538806   1.000000
   10       -7.386914   1.000000
   11       -7.355440   1.000000
   12       -7.339376   1.000000
   13       -7.314691   1.000000
   14       -7.280307   1.000000
   15       -7.168363   1.000000
   16       -6.801259   1.000000
   17       -6.672271   1.000000
   18       -6.582659   1.000000
   19       -6.556108   1.000000
   20       -6.320596   1.000000
   21       -6.231926   1.000000
   22       -6.163373   1.000000
   23       -6.016553   1.000000
   24       -5.586503   1.000000
   25       -5.551396   1.000000
   26       -5.401444   1.000000
   27       -5.290035   1.000000
   28       -5.266969   1.000000
   29       -5.144369   1.000000
   30       -5.020987   1.000000
   31       -4.872872   1.000000
   32       -4.002543   1.000000
   33       -3.969378   1.000000
   34       -3.955130   1.000000
   35       -3.870436   1.000000
   36       -3.768131   1.000000
   37       -3.616223   1.000000
   38       -2.982142   1.000000
   39       -2.724959   1.000000
   40       -2.715338   1.000000
   41       -2.611684   1.000000
   42       -2.367836   1.000000
   43       -2.228001   1.000000
   44       -2.141531   1.000000
   45       -2.019117   1.000000
   46       -2.015553   1.000000
   47       -1.958276   1.000000
   48       -1.893540   1.000000
   49       -1.737529   1.000000
   50       -1.611852   1.000000
   51       -1.579880   1.000000
   52       -1.447021   1.000000
   53       -1.386806   1.000000
   54       -1.332749   1.000000
   55       -1.255713   1.000000
   56       -1.156344   1.000000
   57       -1.137539   1.000000
   58       -1.092373   1.000000
   59       -1.044750   1.000000
   60       -0.935096   1.000000
   61       -0.896793   1.000000
   62       -0.846700   1.000000
   63       -0.822601   1.000000
   64       -0.761099   1.000000
   65       -0.644240   1.000000
   66       -0.577150   1.000000
   67       -0.550248   1.000000
   68       -0.507235   1.000000
   69       -0.386165   1.000000
   70       -0.289112   1.000000
   71       -0.252873   1.000000
   72       -0.162846   1.000000
   73       -0.084840   1.000000
   74       -0.025082   1.000000
   75        0.045242   1.000000
   76        0.227075   1.000000
   77        0.340801   1.000000
   78        0.360707   1.000000
   79        0.453684   1.000000
   80        0.597370   1.000000
   81        0.670098   1.000000
   82        0.736788   1.000000
   83        0.925379   1.000000
   84        1.059858   1.000000
   85        1.247876   1.000000
   86        1.484235   1.000000
   87        1.585735   1.000000
   88        1.618687   1.000000
   89        1.710414   1.000000
   90        1.762438   1.000000
   91        1.865165   1.000000
   92        2.020304   1.000000
   93        2.031228   1.000000
   94        2.077006   1.000000
   95        2.259027   1.000000
   96        2.267413   1.000000
   97        2.412621   1.000017
   98        2.642277   1.004946
   99        2.905964   0.995490
  100        3.151579   0.185824
  101        3.204745   0.050362
  102        3.319985  -0.035377
  103        3.355571  -0.030787
  104        3.427251  -0.015041
  105        3.535127  -0.002454
  106        3.807022  -0.000001
  107        3.845071  -0.000000
  108        3.968930  -0.000000
  109        4.036680  -0.000000
  110        4.072598  -0.000000
  111        4.097920  -0.000000
  112        4.153451  -0.000000
  113        4.175741  -0.000000
  114        4.192036  -0.000000
  115        4.246317  -0.000000
  116        4.284600  -0.000000
  117        4.295220  -0.000000
  118        4.357127  -0.000000
  119        4.415053  -0.000000
  120        4.490652  -0.000000
  121        4.544540  -0.000000
  122        4.572658  -0.000000
  123        4.589055  -0.000000
  124        4.635052  -0.000000
  125        4.780262  -0.000000
  126        4.958886  -0.000000
  127        5.069911  -0.000000
  128        5.185952  -0.000000
  129        6.196209  -0.000000
  130        6.645112  -0.000000
  131        6.768424  -0.000000
  132        6.897184  -0.000000

  0.1111111E+00  0.1111111E+00  0.1262379E-14  0.2469136E-01
    1      -10.841092   1.000000
    2      -10.277345   1.000000
    3       -9.598145   1.000000
    4       -8.983314   1.000000
    5       -8.186279   1.000000
    6       -8.098770   1.000000
    7       -8.046594   1.000000
    8       -7.998633   1.000000
    9       -7.923405   1.000000
   10       -7.736056   1.000000
   11       -7.617390   1.000000
   12       -7.444784   1.000000
   13       -7.427164   1.000000
   14       -7.183031   1.000000
   15       -7.027927   1.000000
   16       -6.903992   1.000000
   17       -6.814346   1.000000
   18       -6.507605   1.000000
   19       -6.330059   1.000000
   20       -6.158985   1.000000
   21       -6.085287   1.000000
   22       -5.785271   1.000000
   23       -5.656280   1.000000
   24       -5.482473   1.000000
   25       -5.446907   1.000000
   26       -5.320805   1.000000
   27       -5.193639   1.000000
   28       -5.071722   1.000000
   29       -5.019748   1.000000
   30       -4.876473   1.000000
   31       -4.723026   1.000000
   32       -4.092961   1.000000
   33       -3.798490   1.000000
   34       -3.691971   1.000000
   35       -3.576667   1.000000
   36       -3.477291   1.000000
   37       -3.376407   1.000000
   38       -3.019635   1.000000
   39       -2.808541   1.000000
   40       -2.773901   1.000000
   41       -2.670672   1.000000
   42       -2.614952   1.000000
   43       -2.585971   1.000000
   44       -2.126588   1.000000
   45       -1.990729   1.000000
   46       -1.970037   1.000000
   47       -1.962232   1.000000
   48       -1.879710   1.000000
   49       -1.771362   1.000000
   50       -1.754059   1.000000
   51       -1.568317   1.000000
   52       -1.559085   1.000000
   53       -1.428219   1.000000
   54       -1.380374   1.000000
   55       -1.290068   1.000000
   56       -1.276233   1.000000
   57       -1.262063   1.000000
   58       -1.164810   1.000000
   59       -1.125856   1.000000
   60       -1.055520   1.000000
   61       -0.928197   1.000000
   62       -0.852003   1.000000
   63       -0.751106   1.000000
   64       -0.741753   1.000000
   65       -0.702570   1.000000
   66       -0.614197   1.000000
   67       -0.603554   1.000000
   68       -0.569861   1.000000
   69       -0.445240   1.000000
   70       -0.407751   1.000000
   71       -0.250698   1.000000
   72       -0.217681   1.000000
   73       -0.130318   1.000000
   74       -0.086018   1.000000
   75       -0.066443   1.000000
   76        0.089238   1.000000
   77        0.184856   1.000000
   78        0.310162   1.000000
   79        0.415926   1.000000
   80        0.574251   1.000000
   81        0.654653   1.000000
   82        0.755711   1.000000
   83        0.894860   1.000000
   84        0.980709   1.000000
   85        1.029836   1.000000
   86        1.160108   1.000000
   87        1.485803   1.000000
   88        1.505589   1.000000
   89        1.704960   1.000000
   90        1.764745   1.000000
   91        1.885174   1.000000
   92        1.927184   1.000000
   93        1.929378   1.000000
   94        1.961041   1.000000
   95        2.154977   1.000000
   96        2.164888   1.000000
   97        2.513301   1.000295
   98        2.693175   1.011350