   49   49    1    1
  0.2411350E+02  0.8645320E-09  0.6085000E-09  0.2593596E-08  0.5000000E-15
   1.0000000000000000E-004
  CAR 
 Name                                    
    189    149    120

  0.3742002E-15  0.3742002E-15  0.3742002E-15  0.3367003E-02
    1      -14.004102   1.000000
    2      -12.617413   1.000000
    3      -12.521551   1.000000
    4      -11.967601   1.000000
    5      -11.547544   1.000000
    6      -11.203710   1.000000
    7      -11.195918   1.000000
    8      -11.156429   1.000000
    9      -11.020378   1.000000
   10      -10.721075   1.000000
   11      -10.716178   1.000000
   12      -10.373611   1.000000
   13      -10.185562   1.000000
   14      -10.170490   1.000000
   15       -9.778610   1.000000
   16       -9.756416   1.000000
   17       -9.171765   1.000000
   18       -8.918798   1.000000
   19       -8.870357   1.000000
   20       -8.557785   1.000000
   21       -8.539570   1.000000
   22       -8.400986   1.000000
   23       -8.208041   1.000000
   24       -8.090066   1.000000
   25       -8.034545   1.000000
   26       -8.005978   1.000000
   27       -7.375594   1.000000
   28       -7.299673   1.000000
   29       -6.619283   1.000000
   30       -6.562277   1.000000
   31       -6.463206   1.000000
   32       -6.274592   1.000000
   33       -6.070063   1.000000
   34       -5.987544   1.000000
   35       -5.673711   1.000000
   36       -5.564838   1.000000
   37       -5.535629   1.000000
   38       -5.512394   1.000000
   39       -5.261146   1.000000
   40       -5.250934   1.000000
   41       -5.160500   1.000000
   42       -5.085642   1.000000
   43       -5.016488   1.000000
   44       -4.897692   1.000000
   45       -4.859357   1.000000
   46       -4.798014   1.000000
   47       -4.649276   1.000000
   48       -4.636206   1.000000
   49       -4.593455   1.000000
   50       -4.564443   1.000000
   51       -4.517270   1.000000
   52       -4.415721   1.000000
   53       -4.395604   1.000000
   54       -4.225070   1.000000
   55       -4.190855   1.000000
   56       -4.087019   1.000000
   57       -4.067698   1.000000
   58       -4.017856   1.000000
   59       -3.944418   1.000000
   60       -3.837062   1.000000
   61       -3.594441   1.000000
   62       -3.487995   1.000000
   63       -3.456896   1.000000
   64       -3.425628   1.000000
   65       -3.391807   1.000000
   66       -3.366034   1.000000
   67       -3.310625   1.000000
   68       -3.270148   1.000000
   69       -3.237144   1.000000
   70       -3.117776   1.000000
   71       -3.078593   1.000000
   72       -2.719925   1.000000
   73       -2.639360   1.000000
   74       -2.515516   1.000000
   75       -2.421216   1.000000
   76       -2.343420   1.000000
   77       -2.283117   1.000000
   78       -2.180639   1.000000
   79       -2.118023   1.000000
   80       -1.996468   1.000000
   81       -1.772836   1.000000
   82       -1.566121   1.000000
   83       -1.423250   1.000000
   84       -1.199308   1.000000
   85       -1.135889   1.000000
   86       -1.031880   1.000000
   87       -0.961937   1.000000
   88       -0.907451   1.000000
   89       -0.733291   1.000000
   90       -0.377699   1.000000
   91       -0.231311   1.000187
   92       -0.043404   1.024462
   93        0.027183   0.732764
   94        0.081318   0.292919
   95        0.201910  -0.029417
   96        0.223666  -0.019561
   97        0.243248  -0.011794
   98        0.486261  -0.000000
   99        0.560766  -0.000000
  100        0.609286  -0.000000
  101        0.688975  -0.000000
  102        0.792887  -0.000000
  103        0.801446  -0.000000
  104        0.829675  -0.000000
  105        0.914400  -0.000000
  106        1.115556  -0.000000
  107        1.257726  -0.000000
  108        1.301269  -0.000000
  109        1.328021  -0.000000
  110        1.426234  -0.000000
  111        1.434746  -0.000000
  112        1.465440  -0.000000
  113        1.523391  -0.000000
  114        1.572821  -0.000000
  115        1.661412  -0.000000
  116        1.721304  -0.000000
  117        1.915054  -0.000000
  118        1.977457  -0.000000
  119        2.233414  -0.000000
  120        2.540171  -0.000000

  0.1111111E+00  0.3729374E-15  0.3860503E-15  0.6734007E-02
    1      -13.977139   1.000000
    2      -12.636169   1.000000
    3      -12.590975   1.000000
    4      -11.911720   1.000000
    5      -11.533546   1.000000
    6      -11.203612   1.000000
    7      -11.186695   1.000000
    8      -11.143493   1.000000
    9      -11.059309   1.000000
   10      -10.716972   1.000000
   11      -10.711984   1.000000
   12      -10.385515   1.000000
   13      -10.182819   1.000000
   14      -10.167018   1.000000
   15       -9.767772   1.000000
   16       -9.743263   1.000000
   17       -9.162278   1.000000
   18       -8.911176   1.000000
   19       -8.871813   1.000000
   20       -8.562692   1.000000
   21       -8.550918   1.000000
   22       -8.433674   1.000000
   23       -8.264419   1.000000
   24       -8.097836   1.000000
   25       -8.042144   1.000000
   26       -7.998810   1.000000
   27       -7.467791   1.000000
   28       -7.295258   1.000000
   29       -6.585741   1.000000
   30       -6.521080   1.000000
   31       -6.408267   1.000000
   32       -6.224749   1.000000
   33       -6.067300   1.000000
   34       -5.990717   1.000000
   35       -5.667543   1.000000
   36       -5.620027   1.000000
   37       -5.484781   1.000000
   38       -5.446977   1.000000
   39       -5.360258   1.000000
   40       -5.232887   1.000000
   41       -5.131628   1.000000
   42       -5.074295   1.000000
   43       -5.040934   1.000000
   44       -4.853193   1.000000
   45       -4.807748   1.000000
   46       -4.770634   1.000000
   47       -4.690633   1.000000
   48       -4.634670   1.000000
   49       -4.577364   1.000000
   50       -4.541703   1.000000
   51       -4.468058   1.000000
   52       -4.406672   1.000000
   53       -4.371604   1.000000
   54       -4.264215   1.000000
   55       -4.187068   1.000000
   56       -4.101136   1.000000
   57       -4.083678   1.000000
   58       -4.027792   1.000000
   59       -3.947215   1.000000
   60       -3.816839   1.000000
   61       -3.637477   1.000000
   62       -3.494331   1.000000
   63       -3.454781   1.000000
   64       -3.409599   1.000000
   65       -3.380338   1.000000
   66       -3.365492   1.000000
   67       -3.289130   1.000000
   68       -3.264912   1.000000
   69       -3.217486   1.000000
   70       -3.141526   1.000000
   71       -3.097664   1.000000
   72       -2.785356   1.000000
   73       -2.636091   1.000000
   74       -2.513286   1.000000
   75       -2.430897   1.000000
   76       -2.386394   1.000000
   77       -2.259642   1.000000
   78       -2.240297   1.000000
   79       -2.145024   1.000000
   80       -2.017317   1.000000
   81       -1.669271   1.000000
   82       -1.614396   1.000000
   83       -1.431726   1.000000
   84       -1.241778   1.000000
   85       -1.110742   1.000000
   86       -1.010066   1.000000
   87       -0.951132   1.000000
   88       -0.813364   1.000000
   89       -0.753479   1.000000
   90       -0.444150   1.000000
   91       -0.287550   1.000007
   92       -0.026724   0.996615
   93        0.073737   0.352219
   94        0.114116   0.088465
   95        0.165123  -0.032206
   96        0.197981  -0.031013
   97        0.239102  -0.013255
   98        0.517197  -0.000000
   99        0.548550  -0.000000
  100        0.598535  -0.000000
  101        0.716794  -0.000000
  102        0.805022  -0.000000
  103        0.821175  -0.000000
  104        0.851570  -0.000000
  105        0.932845  -0.000000
  106        1.127117  -0.000000
  107        1.257579  -0.000000
  108        1.282645  -0.000000
  109        1.358432  -0.000000
  110        1.424414  -0.000000
  111        1.451623  -0.000000
  112        1.500231  -0.000000
  113        1.548134  -0.000000
  114        1.600610  -0.000000
  115        1.667534  -0.000000
  116        1.713057  -0.000000
  117        1.772275  -0.000000
  118        1.940789  -0.000000
  119        2.076602  -0.000000
  120        2.165451  -0.000000

  0.2222222E+00  0.3922785E-15  0.3630220E-15  0.6734007E-02
    1      -13.897030   1.000000
    2      -12.868225   1.000000
    3      -12.519734   1.000000
    4      -11.865106   1.000000
    5      -11.494077   1.000000
    6      -11.219515   1.000000
    7      -11.167874   1.000000
    8      -11.130994   1.000000
    9      -11.076886   1.000000
   10      -10.704705   1.000000
   11      -10.699301   1.000000
   12      -10.446215   1.000000
   13      -10.177991   1.000000
   14      -10.163436   1.000000
   15       -9.732965   1.000000
   16       -9.700459   1.000000
   17       -9.145006   1.000000
   18       -8.883832   1.000000
   19       -8.849263   1.000000
   20       -8.609062   1.000000
   21       -8.602552   1.000000
   22       -8.492853   1.000000
   23       -8.381106   1.000000
   24       -8.167810   1.000000
   25       -8.123567   1.000000
   26       -7.843743   1.000000
   27       -7.684679   1.000000
   28       -7.252761   1.000000
   29       -6.528035   1.000000
   30       -6.460275   1.000000
   31       -6.282649   1.000000
   32       -6.209696   1.000000
   33       -6.105493   1.000000
   34       -5.930690   1.000000
   35       -5.665285   1.000000
   36       -5.591384   1.000000
   37       -5.528891   1.000000
   38       -5.344442   1.000000
   39       -5.315341   1.000000
   40       -5.185077   1.000000
   41       -5.091976   1.000000
   42       -5.037970   1.000000
   43       -4.974662   1.000000
   44       -4.952161   1.000000
   45       -4.825902   1.000000
   46       -4.695432   1.000000
   47       -4.655617   1.000000
   48       -4.612144   1.000000
   49       -4.537338   1.000000
   50       -4.497953   1.000000
   51       -4.438725   1.000000
   52       -4.386375   1.000000
   53       -4.316330   1.000000
   54       -4.280871   1.000000
   55       -4.191216   1.000000
   56       -4.123586   1.000000
   57       -4.108501   1.000000
   58       -3.996228   1.000000
   59       -3.949236   1.000000
   60       -3.798936   1.000000
   61       -3.723715   1.000000
   62       -3.537615   1.000000
   63       -3.464595   1.000000
   64       -3.401046   1.000000
   65       -3.377087   1.000000
   66       -3.353879   1.000000
   67       -3.306133   1.000000
   68       -3.253249   1.000000
   69       -3.205435   1.000000
   70       -3.159079   1.000000
   71       -3.018405   1.000000
   72       -2.905812   1.000000
   73       -2.624067   1.000000
   74       -2.568155   1.000000
   75       -2.494165   1.000000
   76       -2.446744   1.000000
   77       -2.370361   1.000000
   78       -2.234255   1.000000
   79       -2.227475   1.000000
   80       -1.994791   1.000000
   81       -1.753858   1.000000
   82       -1.497438   1.000000
   83       -1.409242   1.000000
   84       -1.328128   1.000000
   85       -1.077419   1.000000
   86       -0.972756   1.000000
   87       -0.879951   1.000000
   88       -0.803195   1.000000
   89       -0.586062   1.000000
   90       -0.563038   1.000000
   91       -0.409962   1.000000
   92       -0.090750   1.029088
   93        0.084686   0.267712
   94        0.107276   0.122795
   95        0.157100  -0.026264
   96        0.229444  -0.017059
   97        0.400628  -0.000006
   98        0.448287  -0.000000
   99        0.535491  -0.000000
  100        0.564400  -0.000000
  101        0.724373  -0.000000
  102        0.870077  -0.000000
  103        0.881406  -0.000000
  104        0.914392  -0.000000
  105        0.989890  -0.000000
  106        1.191775  -0.000000
  107        1.218393  -0.000000
  108        1.307020  -0.000000
  109        1.407848  -0.000000
  110        1.442137  -0.000000
  111        1.458729  -0.000000
  112        1.560008  -0.000000
  113        1.585450  -0.000000
  114        1.624736  -0.000000
  115        1.689595  -0.000000
  116        1.727676  -0.000000
  117        1.750251  -0.000000
  118        1.936338  -0.000000
  119        2.039529  -0.000000
  120        2.566953  -0.000000

  0.3333333E+00  0.3713828E-15  0.3468587E-15  0.6734007E-02
    1      -13.766184   1.000000
    2      -13.125849   1.000000
    3      -12.404145   1.000000
    4      -11.931721   1.000000
    5      -11.438200   1.000000
    6      -11.248988   1.000000
    7      -11.150439   1.000000
    8      -11.135512   1.000000
    9      -10.991486   1.000000
   10      -10.687312   1.000000
   11      -10.681213   1.000000
   12      -10.564547   1.000000
   13      -10.178075   1.000000
   14      -10.169502   1.000000
   15       -9.675179   1.000000
   16       -9.629210   1.000000
   17       -9.139648   1.000000
   18       -8.887362   1.000000
   19       -8.783487   1.000000
   20       -8.693500   1.000000
   21       -8.672537   1.000000
   22       -8.515095   1.000000
   23       -8.466609   1.000000
   24       -8.242608   1.000000
   25       -8.221637   1.000000
   26       -7.948501   1.000000
   27       -7.598691   1.000000
   28       -7.147870   1.000000
   29       -6.578175   1.000000
   30       -6.450754   1.000000
   31       -6.404705   1.000000
   32       -6.254742   1.000000
   33       -5.931865   1.000000
   34       -5.806323   1.000000
   35       -5.679281   1.000000
   36       -5.479320   1.000000
   37       -5.443517   1.000000
   38       -5.262568   1.000000
   39       -5.210679   1.000000
   40       -5.190283   1.000000
   41       -5.134723   1.000000
   42       -5.058684   1.000000
   43       -4.977617   1.000000
   44       -4.885401   1.000000
   45       -4.796492   1.000000
   46       -4.681718   1.000000
   47       -4.641955   1.000000
   48       -4.579116   1.000000
   49       -4.493573   1.000000
   50       -4.479280   1.000000
   51       -4.445259   1.000000
   52       -4.354948   1.000000
   53       -4.262963   1.000000
   54       -4.230861   1.000000
   55       -4.180886   1.000000
   56       -4.149946   1.000000
   57       -4.065288   1.000000
   58       -3.968893   1.000000
   59       -3.918962   1.000000
   60       -3.882499   1.000000
   61       -3.704457   1.000000
   62       -3.649023   1.000000
   63       -3.489561   1.000000
   64       -3.452903   1.000000
   65       -3.410482   1.000000
   66       -3.360243   1.000000
   67       -3.323752   1.000000
   68       -3.241008   1.000000
   69       -3.204193   1.000000
   70       -3.069186   1.000000
   71       -2.949196   1.000000
   72       -2.889898   1.000000
   73       -2.760353   1.000000
   74       -2.632876   1.000000
   75       -2.564609   1.000000
   76       -2.497986   1.000000
   77       -2.456826   1.000000
   78       -2.319972   1.000000
   79       -2.262260   1.000000
   80       -1.944926   1.000000
   81       -1.860654   1.000000
   82       -1.567214   1.000000
   83       -1.434144   1.000000
   84       -1.163903   1.000000
   85       -1.096441   1.000000
   86       -0.872060   1.000000
   87       -0.814535   1.000000
   88       -0.784038   1.000000
   89       -0.723308   1.000000
   90       -0.509203   1.000000
   91       -0.295675   1.000004
   92       -0.254285   1.000052
   93        0.079328   0.308155
   94        0.098928   0.170972
   95        0.166566  -0.032918
   96        0.321081  -0.000574
   97        0.331219  -0.000348
   98        0.404534  -0.000005
   99        0.484547  -0.000000
  100        0.663588  -0.000000
  101        0.887062  -0.000000
  102        0.918587  -0.000000
  103        0.931973  -0.000000
  104        0.954669  -0.000000
  105        1.034035  -0.000000
  106        1.101229  -0.000000
  107        1.358343  -0.000000
  108        1.391742  -0.000000
  109        1.431138  -0.000000
  110        1.457240  -0.000000
  111        1.497420  -0.000000
  112        1.553940  -0.000000
  113        1.589605  -0.000000
  114        1.611666  -0.000000
  115        1.724521  -0.000000
  116        1.803167  -0.000000
  117        1.848663  -0.000000
  118        1.952797  -0.000000
  119        2.028478  -0.000000
  120        2.368469  -0.000000

  0.4444444E+00  0.3870091E-15  0.3932070E-15  0.6734007E-02
    1      -13.588926   1.000000
    2      -13.371897   1.000000
    3      -12.255742   1.000000
    4      -12.078993   1.000000
    5      -11.389369   1.000000
    6      -11.267428   1.000000
    7      -11.139177   1.000000
    8      -11.132926   1.000000
    9      -10.874321   1.000000
   10      -10.710675   1.000000
   11      -10.670862   1.000000
   12      -10.664609   1.000000
   13      -10.183240   1.000000
   14      -10.179610   1.000000
   15       -9.620833   1.000000
   16       -9.561680   1.000000
   17       -9.141491   1.000000
   18       -8.927399   1.000000
   19       -8.861608   1.000000
   20       -8.733919   1.000000
   21       -8.554478   1.000000
   22       -8.526329   1.000000
   23       -8.467871   1.000000
   24       -8.299515   1.000000
   25       -8.277771   1.000000
   26       -8.199225   1.000000
   27       -7.299907   1.000000
   28       -7.054703   1.000000
   29       -6.871835   1.000000
   30       -6.456799   1.000000
   31       -6.407233   1.000000
   32       -6.353691   1.000000
   33       -5.749046   1.000000
   34       -5.638601   1.000000
   35       -5.573583   1.000000
   36       -5.462434   1.000000
   37       -5.389194   1.000000
   38       -5.323327   1.000000
   39       -5.291317   1.000000
   40       -5.202908   1.000000
   41       -5.170923   1.000000
   42       -4.981103   1.000000
   43       -4.889977   1.000000
   44       -4.807247   1.000000
   45       -4.760836   1.000000
   46       -4.707012   1.000000
   47       -4.657318   1.000000
   48       -4.601844   1.000000
   49       -4.519969   1.000000
   50       -4.408816   1.000000
   51       -4.374861   1.000000
   52       -4.329341   1.000000
   53       -4.279951   1.000000
   54       -4.258863   1.000000
   55       -4.134951   1.000000
   56       -4.096210   1.000000
   57       -4.061419   1.000000
   58       -3.990333   1.000000
   59       -3.881690   1.000000
   60       -3.858723   1.000000
   61       -3.784397   1.000000
   62       -3.677245   1.000000
   63       -3.584842   1.000000
   64       -3.471435   1.000000
   65       -3.425582   1.000000
   66       -3.337025   1.000000
   67       -3.309399   1.000000
   68       -3.221590   1.000000
   69       -3.207669   1.000000
   70       -3.024229   1.000000
   71       -2.937100   1.000000
   72       -2.878748   1.000000
   73       -2.748135   1.000000
   74       -2.718567   1.000000
   75       -2.654210   1.000000
   76       -2.593006   1.000000
   77       -2.457327   1.000000
   78       -2.350508   1.000000
   79       -2.233241   1.000000
   80       -2.106699   1.000000
   81       -1.809752   1.000000
   82       -1.632080   1.000000
   83       -1.384576   1.000000
   84       -1.218282   1.000000
   85       -1.004840   1.000000
   86       -0.883252   1.000000
   87       -0.856761   1.000000
   88       -0.766808   1.000000
   89       -0.535550   1.000000
   90       -0.502326   1.000000
   91       -0.432970   1.000000
   92       -0.164179   1.003954
   93        0.052295   0.531055
   94        0.090726   0.224621
   95        0.156170  -0.025337
   96        0.255241  -0.008184
   97        0.303508  -0.001292
   98        0.411255  -0.000003
   99        0.596148  -0.000000
  100        0.650523  -0.000000
  101        0.827123  -0.000000
  102        0.926753  -0.000000
  103        0.951844  -0.000000
  104        0.987143  -0.000000
  105        1.225730  -0.000000
  106        1.260926  -0.000000
  107        1.340038  -0.000000
  108        1.453213  -0.000000
  109        1.474895  -0.000000
  110        1.500665  -0.000000
  111        1.549320  -0.000000
  112        1.559542  -0.000000
  113        1.601245  -0.000000
  114        1.625515  -0.000000
  115        1.635866  -0.000000
  116        1.744062  -0.000000
  117        1.840036  -0.000000
  118        1.937209  -0.000000
  119        2.089649  -0.000000
  120        2.289615  -0.000000

  0.3742002E-15  0.9090909E-01  0.3596334E-15  0.6734007E-02
    1      -13.970986   1.000000
    2      -12.588269   1.000000
    3      -12.525785   1.000000
    4      -11.935968   1.000000
    5      -11.529877   1.000000
    6      -11.380845   1.000000
    7      -11.325311   1.000000
    8      -11.147087   1.000000
    9      -11.023825   1.000000
   10      -10.719817   1.000000
   11      -10.692335   1.000000
   12      -10.351380   1.000000
   13      -10.142478   1.000000
   14      -10.120053   1.000000
   15       -9.786366   1.000000
   16       -9.739818   1.000000
   17       -9.171724   1.000000
   18       -8.998827   1.000000
   19       -8.934672   1.000000
   20       -8.619892   1.000000
   21       -8.579604   1.000000
   22       -8.255657   1.000000
   23       -8.027778   1.000000
   24       -8.004657   1.000000
   25       -7.895558   1.000000
   26       -7.879034   1.000000
   27       -7.415360   1.000000
   28       -7.279763   1.000000
   29       -6.626314   1.000000
   30       -6.559529   1.000000
   31       -6.435479   1.000000
   32       -6.268386   1.000000
   33       -6.100235   1.000000
   34       -5.961310   1.000000
   35       -5.716892   1.000000
   36       -5.607845   1.000000
   37       -5.484740   1.000000
   38       -5.450516   1.000000
   39       -5.295470   1.000000
   40       -5.259903   1.000000
   41       -5.203653   1.000000
   42       -5.143364   1.000000
   43       -5.072599   1.000000
   44       -4.969245   1.000000
   45       -4.845617   1.000000
   46       -4.811905   1.000000
   47       -4.768455   1.000000
   48       -4.625339   1.000000
   49       -4.602348   1.000000
   50       -4.561822   1.000000
   51       -4.523532   1.000000
   52       -4.445923   1.000000
   53       -4.395651   1.000000
   54       -4.279511   1.000000
   55       -4.224206   1.000000
   56       -4.114086   1.000000
   57       -4.053155   1.000000
   58       -3.972978   1.000000
   59       -3.942635   1.000000
   60       -3.853107   1.000000
   61       -3.575879   1.000000
   62       -3.505444   1.000000
   63       -3.489733   1.000000
   64       -3.451370   1.000000
   65       -3.362656   1.000000
   66       -3.352312   1.000000
   67       -3.271805   1.000000
   68       -3.266387   1.000000
   69       -3.238468   1.000000
   70       -3.107755   1.000000
   71       -3.063798   1.000000
   72       -2.877753   1.000000
   73       -2.646369   1.000000
   74       -2.415505   1.000000
   75       -2.409995   1.000000
   76       -2.362034   1.000000
   77       -2.275257   1.000000
   78       -2.188872   1.000000
   79       -2.074708   1.000000
   80       -2.007583   1.000000
   81       -1.803622   1.000000
   82       -1.495712   1.000000
   83       -1.449712   1.000000
   84       -1.233308   1.000000
   85       -1.210675   1.000000
   86       -1.025394   1.000000
   87       -1.012598   1.000000
   88       -0.962433   1.000000
   89       -0.655422   1.000000
   90       -0.500190   1.000000
   91       -0.284314   1.000008
   92       -0.089012   1.029820
   93       -0.075455   1.034369
   94       -0.008598   0.939447
   95        0.167647  -0.033388
   96        0.208133  -0.026676
   97        0.257488  -0.007609
   98        0.408383  -0.000004
   99        0.460668  -0.000000
  100        0.575396  -0.000000
  101        0.773846  -0.000000
  102        0.854634  -0.000000
  103        0.860444  -0.000000
  104        0.961840  -0.000000
  105        1.043089  -0.000000
  106        1.111658  -0.000000
  107        1.193299  -0.000000
  108        1.302907  -0.000000
  109        1.329051  -0.000000
  110        1.411121  -0.000000
  111        1.441568  -0.000000
  112        1.496421  -0.000000
  113        1.552620  -0.000000
  114        1.593785  -0.000000
  115        1.680355  -0.000000
  116        1.735464  -0.000000
  117        1.756661  -0.000000
  118        1.902616  -0.000000
  119        2.014007  -0.000000
  120        2.173110  -0.000000

  0.1111111E+00  0.9090909E-01  0.4822234E-15  0.6734007E-02
    1      -13.922249   1.000000
    2      -12.703982   1.000000
    3      -12.542781   1.000000
    4      -11.865097   1.000000
    5      -11.504182   1.000000
    6      -11.425377   1.000000
    7      -11.271516   1.000000
    8      -11.128282   1.000000
    9      -11.079053   1.000000
   10      -10.723343   1.000000
   11      -10.628955   1.000000
   12      -10.381502   1.000000
   13      -10.185755   1.000000
   14      -10.139576   1.000000
   15       -9.748095   1.000000
   16       -9.691739   1.000000
   17       -9.177007   1.000000
   18       -8.996275   1.000000
   19       -8.895279   1.000000
   20       -8.684819   1.000000
   21       -8.608790   1.000000
   22       -8.325652   1.000000
   23       -8.089812   1.000000
   24       -7.952734   1.000000
   25       -7.906260   1.000000
   26       -7.888469   1.000000
   27       -7.562225   1.000000
   28       -7.260269   1.000000
   29       -6.634607   1.000000
   30       -6.462613   1.000000
   31       -6.330321   1.000000
   32       -6.204663   1.000000
   33       -6.109557   1.000000
   34       -5.968947   1.000000
   35       -5.772822   1.000000
   36       -5.531775   1.000000
   37       -5.476642   1.000000
   38       -5.398290   1.000000
   39       -5.371569   1.000000
   40       -5.234913   1.000000
   41       -5.144318   1.000000
   42       -5.132943   1.000000
   43       -5.086511   1.000000
   44       -4.976516   1.000000
   45       -4.824714   1.000000
   46       -4.752919   1.000000
   47       -4.687335   1.000000
   48       -4.608318   1.000000
   49       -4.572783   1.000000
   50       -4.527621   1.000000
   51       -4.486866   1.000000
   52       -4.434550   1.000000
   53       -4.411551   1.000000
   54       -4.294428   1.000000
   55       -4.250739   1.000000
   56       -4.139643   1.000000
   57       -4.057604   1.000000
   58       -3.983548   1.000000
   59       -3.941210   1.000000
   60       -3.807909   1.000000
   61       -3.616204   1.000000
   62       -3.541208   1.000000
   63       -3.511468   1.000000
   64       -3.460087   1.000000
   65       -3.378241   1.000000
   66       -3.349809   1.000000
   67       -3.250131   1.000000
   68       -3.230031   1.000000
   69       -3.213506   1.000000
   70       -3.113883   1.000000
   71       -3.085046   1.000000
   72       -2.930698   1.000000
   73       -2.646656   1.000000
   74       -2.479127   1.000000
   75       -2.448644   1.000000
   76       -2.419678   1.000000
   77       -2.280281   1.000000
   78       -2.251574   1.000000
   79       -2.070204   1.000000
   80       -2.029447   1.000000
   81       -1.794778   1.000000
   82       -1.492210   1.000000
   83       -1.463951   1.000000
   84       -1.327370   1.000000
   85       -1.192895   1.000000
   86       -1.006187   1.000000
   87       -0.886685   1.000000
   88       -0.804146   1.000000
   89       -0.691654   1.000000
   90       -0.583661   1.000000
   91       -0.304527   1.000002
   92       -0.095785   1.026864
   93       -0.054994   1.033081
   94        0.100646   0.160512
   95        0.125652   0.041230
   96        0.202460  -0.029184
   97        0.233117  -0.015551
   98        0.359970  -0.000075
   99        0.419267  -0.000002
  100        0.706284  -0.000000
  101        0.782290  -0.000000
  102        0.838819  -0.000000
  103        0.884899  -0.000000
  104        0.977910  -0.000000
  105        1.048719  -0.000000
  106        1.118446  -0.000000
  107        1.263927  -0.000000
  108        1.286568  -0.000000
  109        1.336644  -0.000000
  110        1.373411  -0.000000
  111        1.469997  -0.000000
  112        1.541285  -0.000000
  113        1.604543  -0.000000
  114        1.636667  -0.000000
  115        1.687022  -0.000000
  116        1.746190  -0.000000
  117        1.833238  -0.000000
  118        1.991773  -0.000000
  119        2.071288  -0.000000
  120        3.758326   0.000000

  0.2222222E+00  0.9090909E-01  0.3065600E-15  0.6734007E-02
    1      -13.821414   1.000000
    2      -12.951080   1.000000
    3      -12.452721   1.000000
    4      -11.862230   1.000000
    5      -11.470467   1.000000
    6      -11.445875   1.000000
    7      -11.222479   1.000000
    8      -11.180814   1.000000
    9      -11.028905   1.000000
   10      -10.691768   1.000000
   11      -10.543785   1.000000
   12      -10.465864   1.000000
   13      -10.264077   1.000000
   14      -10.177790   1.000000
   15       -9.674773   1.000000
   16       -9.601215   1.000000
   17       -9.189139   1.000000
   18       -9.008542   1.000000
   19       -8.844159   1.000000
   20       -8.721137   1.000000
   21       -8.680203   1.000000
   22       -8.448492   1.000000
   23       -8.184346   1.000000
   24       -7.989928   1.000000
   25       -7.950102   1.000000
   26       -7.785266   1.000000
   27       -7.715623   1.000000
   28       -7.195958   1.000000
   29       -6.642709   1.000000
   30       -6.385801   1.000000
   31       -6.309857   1.000000
   32       -6.226850   1.000000
   33       -6.050358   1.000000
   34       -5.925475   1.000000
   35       -5.728621   1.000000
   36       -5.576808   1.000000
   37       -5.398164   1.000000
   38       -5.322490   1.000000
   39       -5.283959   1.000000
   40       -5.208738   1.000000
   41       -5.155187   1.000000
   42       -5.097212   1.000000
   43       -5.023978   1.000000
   44       -4.972228   1.000000
   45       -4.803937   1.000000
   46       -4.717841   1.000000
   47       -4.659116   1.000000
   48       -4.573678   1.000000