   72   72   40    1
  0.2168974E+02  0.1053953E-08  0.6141200E-09  0.2412750E-08  0.5000000E-15
   1.0000000000000000E-004
  CAR 
 Name                                    
    267     23    176

  0.3742002E-15  0.3742002E-15  0.1262379E-14  0.2222222E-01
    1      -13.925451   1.000000
    2      -12.938883   1.000000
    3      -12.789688   1.000000
    4      -12.398613   1.000000
    5      -11.809754   1.000000
    6      -11.666279   1.000000
    7      -11.611692   1.000000
    8      -11.583631   1.000000
    9      -11.415909   1.000000
   10      -11.180184   1.000000
   11      -11.051151   1.000000
   12      -11.015868   1.000000
   13      -10.793581   1.000000
   14      -10.430694   1.000000
   15      -10.321916   1.000000
   16      -10.218938   1.000000
   17      -10.130752   1.000000
   18      -10.068979   1.000000
   19       -9.853354   1.000000
   20       -9.623621   1.000000
   21       -9.586762   1.000000
   22       -9.498993   1.000000
   23       -9.353228   1.000000
   24       -8.956303   1.000000
   25       -8.888873   1.000000
   26       -8.762676   1.000000
   27       -8.630043   1.000000
   28       -8.457963   1.000000
   29       -8.321947   1.000000
   30       -8.109218   1.000000
   31       -8.037818   1.000000
   32       -7.854432   1.000000
   33       -7.508088   1.000000
   34       -7.485496   1.000000
   35       -7.356505   1.000000
   36       -7.174718   1.000000
   37       -7.080629   1.000000
   38       -6.910502   1.000000
   39       -6.900185   1.000000
   40       -6.830430   1.000000
   41       -6.761931   1.000000
   42       -6.669605   1.000000
   43       -6.536469   1.000000
   44       -6.472843   1.000000
   45       -6.375443   1.000000
   46       -6.282920   1.000000
   47       -6.176065   1.000000
   48       -6.031679   1.000000
   49       -6.002729   1.000000
   50       -5.968714   1.000000
   51       -5.775901   1.000000
   52       -5.723353   1.000000
   53       -5.698968   1.000000
   54       -5.695589   1.000000
   55       -5.606268   1.000000
   56       -5.547908   1.000000
   57       -5.438820   1.000000
   58       -5.412342   1.000000
   59       -5.348328   1.000000
   60       -5.183494   1.000000
   61       -5.154569   1.000000
   62       -5.034577   1.000000
   63       -4.983503   1.000000
   64       -4.847404   1.000000
   65       -4.724194   1.000000
   66       -4.655297   1.000000
   67       -4.613470   1.000000
   68       -4.560338   1.000000
   69       -4.519092   1.000000
   70       -4.484494   1.000000
   71       -4.438056   1.000000
   72       -4.395701   1.000000
   73       -4.272555   1.000000
   74       -4.221206   1.000000
   75       -4.201199   1.000000
   76       -4.159303   1.000000
   77       -4.062005   1.000000
   78       -3.996193   1.000000
   79       -3.935357   1.000000
   80       -3.801922   1.000000
   81       -3.719667   1.000000
   82       -3.696955   1.000000
   83       -3.596499   1.000000
   84       -3.579156   1.000000
   85       -3.450006   1.000000
   86       -3.350504   1.000000
   87       -3.341407   1.000000
   88       -3.325968   1.000000
   89       -3.281596   1.000000
   90       -3.223481   1.000000
   91       -3.185389   1.000000
   92       -3.147074   1.000000
   93       -3.079303   1.000000
   94       -2.952199   1.000000
   95       -2.884302   1.000000
   96       -2.831235   1.000000
   97       -2.713367   1.000000
   98       -2.701597   1.000000
   99       -2.644299   1.000000
  100       -2.546891   1.000000
  101       -2.448056   1.000000
  102       -2.399456   1.000000
  103       -2.319477   1.000000
  104       -2.311250   1.000000
  105       -2.167126   1.000000
  106       -2.149893   1.000000
  107       -2.128084   1.000000
  108       -2.118399   1.000000
  109       -1.994360   1.000000
  110       -1.981520   1.000000
  111       -1.959785   1.000000
  112       -1.795514   1.000000
  113       -1.741633   1.000000
  114       -1.698089   1.000000
  115       -1.437611   1.000000
  116       -1.366443   1.000000
  117       -1.289331   1.000000
  118       -1.220065   1.000000
  119       -1.114823   1.000000
  120       -1.015375   1.000000
  121       -0.914233   1.000000
  122       -0.882980   1.000000
  123       -0.656377   1.000000
  124       -0.543869   1.000012
  125       -0.477537   1.000087
  126       -0.338337   1.002534
  127       -0.300136   1.005233
  128       -0.196527   1.022755
  129       -0.167890   1.029242
  130       -0.143885   1.033618
  131       -0.045213   1.001790
  132        0.005228   0.919094
  133        0.045808   0.807151
  134        0.153467   0.380148
  135        0.162201   0.344844
  136        0.206496   0.184279
  137        0.256440   0.055612
  138        0.309942  -0.015586
  139        0.373250  -0.035412
  140        0.425061  -0.027597
  141        0.508492  -0.010314
  142        0.615460  -0.001424
  143        0.669014  -0.000408
  144        0.722447  -0.000100
  145        0.788819  -0.000014
  146        0.896934  -0.000000
  147        0.988701  -0.000000
  148        1.004377  -0.000000
  149        1.054125  -0.000000
  150        1.105791  -0.000000
  151        1.181644  -0.000000
  152        1.182937  -0.000000
  153        1.210970  -0.000000
  154        1.260566  -0.000000
  155        1.292795  -0.000000
  156        1.326086  -0.000000
  157        1.334833  -0.000000
  158        1.362715  -0.000000
  159        1.392048  -0.000000
  160        1.436138  -0.000000
  161        1.453197  -0.000000
  162        1.506624  -0.000000
  163        1.560269  -0.000000
  164        1.587674  -0.000000
  165        1.603349  -0.000000
  166        1.646578  -0.000000
  167        1.697140  -0.000000
  168        1.722568  -0.000000
  169        1.739545  -0.000000
  170        1.818878  -0.000000
  171        1.860810  -0.000000
  172        1.943658  -0.000000
  173        1.987084  -0.000000
  174        2.032279  -0.000000
  175        2.083476  -0.000000
  176        2.132865  -0.000000

  0.2000000E+00  0.3742002E-15  0.1262379E-14  0.4444444E-01
    1      -13.885457   1.000000
    2      -13.174177   1.000000
    3      -12.682131   1.000000
    4      -12.156458   1.000000
    5      -11.981217   1.000000
    6      -11.801640   1.000000
    7      -11.621699   1.000000
    8      -11.384498   1.000000
    9      -11.286643   1.000000
   10      -11.190906   1.000000
   11      -11.017884   1.000000
   12      -10.922222   1.000000
   13      -10.785491   1.000000
   14      -10.618590   1.000000
   15      -10.466308   1.000000
   16      -10.317257   1.000000
   17      -10.218179   1.000000
   18      -10.125845   1.000000
   19       -9.806355   1.000000
   20       -9.694513   1.000000
   21       -9.449458   1.000000
   22       -9.404456   1.000000
   23       -9.320277   1.000000
   24       -9.038278   1.000000
   25       -8.913183   1.000000
   26       -8.811573   1.000000
   27       -8.436440   1.000000
   28       -8.290052   1.000000
   29       -8.155825   1.000000
   30       -8.061930   1.000000
   31       -8.041994   1.000000
   32       -7.977965   1.000000
   33       -7.534989   1.000000
   34       -7.480960   1.000000
   35       -7.417231   1.000000
   36       -7.272472   1.000000
   37       -7.144977   1.000000
   38       -7.092287   1.000000
   39       -6.880367   1.000000
   40       -6.848040   1.000000
   41       -6.737786   1.000000
   42       -6.661779   1.000000
   43       -6.601297   1.000000
   44       -6.521723   1.000000
   45       -6.411418   1.000000
   46       -6.219317   1.000000
   47       -6.105826   1.000000
   48       -5.993750   1.000000
   49       -5.945645   1.000000
   50       -5.905822   1.000000
   51       -5.872483   1.000000
   52       -5.780681   1.000000
   53       -5.723508   1.000000
   54       -5.669395   1.000000
   55       -5.546272   1.000000
   56       -5.457209   1.000000
   57       -5.415615   1.000000
   58       -5.351031   1.000000
   59       -5.307870   1.000000
   60       -5.208079   1.000000
   61       -5.134771   1.000000
   62       -5.068799   1.000000
   63       -4.985763   1.000000
   64       -4.839506   1.000000
   65       -4.772941   1.000000
   66       -4.681250   1.000000
   67       -4.626857   1.000000
   68       -4.534537   1.000000
   69       -4.508477   1.000000
   70       -4.441379   1.000000
   71       -4.417237   1.000000
   72       -4.376062   1.000000
   73       -4.320607   1.000000
   74       -4.227468   1.000000
   75       -4.203787   1.000000
   76       -4.132904   1.000000
   77       -4.046286   1.000000
   78       -3.976353   1.000000
   79       -3.886347   1.000000
   80       -3.842477   1.000000
   81       -3.799236   1.000000
   82       -3.711570   1.000000
   83       -3.613938   1.000000
   84       -3.517630   1.000000
   85       -3.463969   1.000000
   86       -3.415732   1.000000
   87       -3.389662   1.000000
   88       -3.324424   1.000000
   89       -3.305422   1.000000
   90       -3.262666   1.000000
   91       -3.137026   1.000000
   92       -3.130535   1.000000
   93       -3.036245   1.000000
   94       -2.993956   1.000000
   95       -2.964555   1.000000
   96       -2.830718   1.000000
   97       -2.738772   1.000000
   98       -2.702794   1.000000
   99       -2.577695   1.000000
  100       -2.519441   1.000000
  101       -2.496403   1.000000
  102       -2.420731   1.000000
  103       -2.299056   1.000000
  104       -2.246511   1.000000
  105       -2.179696   1.000000
  106       -2.142291   1.000000
  107       -2.070797   1.000000
  108       -2.051519   1.000000
  109       -1.983692   1.000000
  110       -1.954217   1.000000
  111       -1.888477   1.000000
  112       -1.811587   1.000000
  113       -1.746301   1.000000
  114       -1.625241   1.000000
  115       -1.462703   1.000000
  116       -1.349498   1.000000
  117       -1.324551   1.000000
  118       -1.246268   1.000000
  119       -1.164219   1.000000
  120       -1.057224   1.000000
  121       -0.965839   1.000000
  122       -0.896083   1.000000
  123       -0.711125   1.000000
  124       -0.626519   1.000001
  125       -0.446933   1.000201
  126       -0.361858   1.001551
  127       -0.329862   1.003000
  128       -0.241878   1.013178
  129       -0.232414   1.014969
  130       -0.183172   1.025841
  131       -0.112757   1.035238
  132       -0.000909   0.932452
  133        0.042143   0.818890
  134        0.130621   0.475461
  135        0.222996   0.134948
  136        0.263947   0.041656
  137        0.275361   0.023058
  138        0.326302  -0.025880
  139        0.410493  -0.030690
  140        0.456039  -0.020497
  141        0.515298  -0.009295
  142        0.605724  -0.001755
  143        0.716294  -0.000118
  144        0.765171  -0.000029
  145        0.843389  -0.000002
  146        0.933112  -0.000000
  147        0.970331  -0.000000
  148        1.030990  -0.000000
  149        1.072697  -0.000000
  150        1.108532  -0.000000
  151        1.155995  -0.000000
  152        1.175324  -0.000000
  153        1.204349  -0.000000
  154        1.270144  -0.000000
  155        1.304919  -0.000000
  156        1.326340  -0.000000
  157        1.376060  -0.000000
  158        1.397566  -0.000000
  159        1.416703  -0.000000
  160        1.446420  -0.000000
  161        1.508916  -0.000000
  162        1.542205  -0.000000
  163        1.569570  -0.000000
  164        1.587701  -0.000000
  165        1.622250  -0.000000
  166        1.682484  -0.000000
  167        1.701332  -0.000000
  168        1.724663  -0.000000
  169        1.743326  -0.000000
  170        1.829730  -0.000000
  171        1.896736  -0.000000
  172        1.940333  -0.000000
  173        2.013020  -0.000000
  174        2.048557  -0.000000
  175        2.117644  -0.000000
  176        2.140643  -0.000000

  0.4000000E+00  0.3742002E-15  0.1262379E-14  0.4444444E-01
    1      -13.786148   1.000000
    2      -13.425028   1.000000
    3      -12.565739   1.000000
    4      -12.240243   1.000000
    5      -11.785445   1.000000
    6      -11.681199   1.000000
    7      -11.665110   1.000000
    8      -11.347154   1.000000
    9      -11.205107   1.000000
   10      -11.137546   1.000000
   11      -11.074154   1.000000
   12      -10.949014   1.000000
   13      -10.774251   1.000000
   14      -10.679956   1.000000
   15      -10.587891   1.000000
   16      -10.493782   1.000000
   17      -10.190403   1.000000
   18      -10.130033   1.000000
   19      -10.005986   1.000000
   20       -9.832971   1.000000
   21       -9.474462   1.000000
   22       -9.358705   1.000000
   23       -9.166204   1.000000
   24       -8.961739   1.000000
   25       -8.836861   1.000000
   26       -8.699273   1.000000
   27       -8.378199   1.000000
   28       -8.252000   1.000000
   29       -8.038989   1.000000
   30       -7.930530   1.000000
   31       -7.848543   1.000000
   32       -7.762595   1.000000
   33       -7.706827   1.000000
   34       -7.627386   1.000000
   35       -7.523675   1.000000
   36       -7.402016   1.000000
   37       -7.333409   1.000000
   38       -7.213137   1.000000
   39       -7.139249   1.000000
   40       -6.918899   1.000000
   41       -6.752319   1.000000
   42       -6.656019   1.000000
   43       -6.507162   1.000000
   44       -6.487609   1.000000
   45       -6.346742   1.000000
   46       -6.131557   1.000000
   47       -6.056282   1.000000
   48       -6.030395   1.000000
   49       -6.001469   1.000000
   50       -5.906340   1.000000
   51       -5.850128   1.000000
   52       -5.805380   1.000000
   53       -5.653943   1.000000
   54       -5.595887   1.000000
   55       -5.544568   1.000000
   56       -5.458110   1.000000
   57       -5.414393   1.000000
   58       -5.332375   1.000000
   59       -5.258112   1.000000
   60       -5.151216   1.000000
   61       -5.130657   1.000000
   62       -5.049636   1.000000
   63       -4.961381   1.000000
   64       -4.849900   1.000000
   65       -4.728437   1.000000
   66       -4.708824   1.000000
   67       -4.649332   1.000000
   68       -4.550214   1.000000
   69       -4.525512   1.000000
   70       -4.457522   1.000000
   71       -4.410597   1.000000
   72       -4.346126   1.000000
   73       -4.280734   1.000000
   74       -4.264670   1.000000
   75       -4.113024   1.000000
   76       -4.066924   1.000000
   77       -4.000093   1.000000
   78       -3.958906   1.000000
   79       -3.918376   1.000000
   80       -3.882687   1.000000
   81       -3.841372   1.000000
   82       -3.759815   1.000000
   83       -3.659509   1.000000
   84       -3.557794   1.000000
   85       -3.537040   1.000000
   86       -3.472719   1.000000
   87       -3.428703   1.000000
   88       -3.353441   1.000000
   89       -3.259418   1.000000
   90       -3.221053   1.000000
   91       -3.142983   1.000000
   92       -3.123897   1.000000
   93       -3.097630   1.000000
   94       -2.959868   1.000000
   95       -2.946090   1.000000
   96       -2.900888   1.000000
   97       -2.850871   1.000000
   98       -2.674644   1.000000
   99       -2.612734   1.000000
  100       -2.582527   1.000000
  101       -2.508254   1.000000
  102       -2.274049   1.000000
  103       -2.259515   1.000000
  104       -2.197005   1.000000
  105       -2.133844   1.000000
  106       -2.042899   1.000000
  107       -2.014948   1.000000
  108       -1.974433   1.000000
  109       -1.954150   1.000000
  110       -1.864450   1.000000
  111       -1.847688   1.000000
  112       -1.751294   1.000000
  113       -1.709816   1.000000
  114       -1.589943   1.000000
  115       -1.535003   1.000000
  116       -1.450724   1.000000
  117       -1.367216   1.000000
  118       -1.321112   1.000000
  119       -1.151164   1.000000
  120       -1.090637   1.000000
  121       -1.014195   1.000000
  122       -0.937493   1.000000
  123       -0.795500   1.000000
  124       -0.784950   1.000000
  125       -0.484284   1.000072
  126       -0.385906   1.000908
  127       -0.380271   1.001033
  128       -0.331948   1.002879
  129       -0.292894   1.005943
  130       -0.260883   1.010003
  131       -0.148304   1.032952
  132       -0.024464   0.975040
  133        0.116303   0.535996
  134        0.173474   0.300725
  135        0.198842   0.209297
  136        0.264906   0.039974
  137        0.328512  -0.026939
  138        0.372362  -0.035432
  139        0.462337  -0.019091
  140        0.475384  -0.016309
  141        0.591581  -0.002355
  142        0.625514  -0.001140
  143        0.758013  -0.000036
  144        0.793586  -0.000012
  145        0.856147  -0.000001
  146        0.878012  -0.000001
  147        0.998222  -0.000000
  148        1.075957  -0.000000
  149        1.132613  -0.000000
  150        1.153223  -0.000000
  151        1.186286  -0.000000
  152        1.212063  -0.000000
  153        1.241757  -0.000000
  154        1.286015  -0.000000
  155        1.336614  -0.000000
  156        1.340271  -0.000000
  157        1.362989  -0.000000
  158        1.397384  -0.000000
  159        1.434622  -0.000000
  160        1.477534  -0.000000
  161        1.571880  -0.000000
  162        1.602336  -0.000000
  163        1.609279  -0.000000
  164        1.644271  -0.000000
  165        1.653997  -0.000000
  166        1.672803  -0.000000
  167        1.733887  -0.000000
  168        1.782009  -0.000000
  169        1.823663  -0.000000
  170        1.862940  -0.000000
  171        1.916554  -0.000000
  172        1.965704  -0.000000
  173        1.981147  -0.000000
  174        2.030954  -0.000000
  175        2.071656  -0.000000
  176        2.157026  -0.000000

  0.3742002E-15  0.1111111E+00  0.1262379E-14  0.4444444E-01
    1      -13.879644   1.000000
    2      -12.899503   1.000000
    3      -12.755099   1.000000
    4      -12.367264   1.000000
    5      -11.905546   1.000000
    6      -11.640661   1.000000
    7      -11.617941   1.000000
    8      -11.579742   1.000000
    9      -11.462123   1.000000
   10      -11.204607   1.000000
   11      -11.061312   1.000000
   12      -10.988878   1.000000
   13      -10.822391   1.000000
   14      -10.427047   1.000000
   15      -10.299691   1.000000
   16      -10.227691   1.000000
   17      -10.129939   1.000000
   18      -10.063509   1.000000
   19       -9.822007   1.000000
   20       -9.644857   1.000000
   21       -9.579803   1.000000
   22       -9.508133   1.000000
   23       -9.346134   1.000000
   24       -8.990626   1.000000
   25       -8.904022   1.000000
   26       -8.752314   1.000000
   27       -8.612786   1.000000
   28       -8.475790   1.000000
   29       -8.319911   1.000000
   30       -8.133396   1.000000
   31       -7.900411   1.000000
   32       -7.861803   1.000000
   33       -7.576494   1.000000
   34       -7.497320   1.000000
   35       -7.417170   1.000000
   36       -7.237169   1.000000
   37       -7.142457   1.000000
   38       -6.939336   1.000000
   39       -6.873447   1.000000
   40       -6.773880   1.000000
   41       -6.727077   1.000000
   42       -6.645602   1.000000
   43       -6.507904   1.000000
   44       -6.454916   1.000000
   45       -6.348347   1.000000
   46       -6.273887   1.000000
   47       -6.177619   1.000000
   48       -6.045246   1.000000
   49       -5.997137   1.000000
   50       -5.934755   1.000000
   51       -5.786511   1.000000
   52       -5.743241   1.000000
   53       -5.718580   1.000000
   54       -5.672158   1.000000
   55       -5.613980   1.000000
   56       -5.530912   1.000000
   57       -5.380408   1.000000
   58       -5.344485   1.000000
   59       -5.278412   1.000000
   60       -5.212645   1.000000
   61       -5.141526   1.000000
   62       -5.004366   1.000000
   63       -4.951303   1.000000
   64       -4.838714   1.000000
   65       -4.742270   1.000000
   66       -4.666331   1.000000
   67       -4.626089   1.000000
   68       -4.571614   1.000000
   69       -4.540954   1.000000
   70       -4.489281   1.000000
   71       -4.473356   1.000000
   72       -4.356712   1.000000
   73       -4.255226   1.000000
   74       -4.219490   1.000000
   75       -4.192941   1.000000
   76       -4.144500   1.000000
   77       -4.070626   1.000000
   78       -3.966719   1.000000
   79       -3.951009   1.000000
   80       -3.826014   1.000000
   81       -3.793659   1.000000
   82       -3.709667   1.000000
   83       -3.647148   1.000000
   84       -3.590824   1.000000
   85       -3.492042   1.000000
   86       -3.469311   1.000000
   87       -3.379775   1.000000
   88       -3.294470   1.000000
   89       -3.251926   1.000000
   90       -3.230900   1.000000
   91       -3.184337   1.000000
   92       -3.136194   1.000000
   93       -3.059771   1.000000
   94       -3.029400   1.000000
   95       -2.929014   1.000000
   96       -2.858827   1.000000
   97       -2.732176   1.000000
   98       -2.680485   1.000000
   99       -2.627033   1.000000
  100       -2.548900   1.000000
  101       -2.502464   1.000000
  102       -2.392834   1.000000
  103       -2.345360   1.000000
  104       -2.285735   1.000000
  105       -2.270372   1.000000
  106       -2.140512   1.000000
  107       -2.127711   1.000000
  108       -2.073085   1.000000
  109       -1.984091   1.000000
  110       -1.944174   1.000000
  111       -1.904937   1.000000
  112       -1.820871   1.000000
  113       -1.686196   1.000000
  114       -1.648342   1.000000
  115       -1.450827   1.000000
  116       -1.382489   1.000000
  117       -1.336393   1.000000
  118       -1.199171   1.000000
  119       -1.161301   1.000000
  120       -1.006862   1.000000
  121       -0.910794   1.000000
  122       -0.822650   1.000000
  123       -0.658627   1.000000
  124       -0.580281   1.000004
  125       -0.457333   1.000152
  126       -0.378024   1.001086
  127       -0.289738   1.006275
  128       -0.276363   1.007843
  129       -0.245964   1.012447
  130       -0.193270   1.023508
  131       -0.098832   1.033447
  132       -0.005679   0.942180
  133        0.100439   0.602317
  134        0.149649   0.395825
  135        0.215253   0.157292
  136        0.255962   0.056547
  137        0.291524   0.001866
  138        0.348694  -0.033492
  139        0.435294  -0.025269
  140        0.454087  -0.020939
  141        0.567880  -0.003753
  142        0.611604  -0.001548
  143        0.721613  -0.000102
  144        0.762624  -0.000031
  145        0.807663  -0.000008
  146        0.857895  -0.000001
  147        0.930718  -0.000000
  148        0.992689  -0.000000
  149        1.040416  -0.000000
  150        1.120767  -0.000000
  151        1.136941  -0.000000
  152        1.174432  -0.000000
  153        1.198301  -0.000000
  154        1.244673  -0.000000
  155        1.272797  -0.000000
  156        1.308543  -0.000000
  157        1.337950  -0.000000
  158        1.378033  -0.000000
  159        1.398465  -0.000000
  160        1.418449  -0.000000
  161        1.482317  -0.000000
  162        1.496447  -0.000000
  163        1.524128  -0.000000
  164        1.548192  -0.000000
  165        1.620022  -0.000000
  166        1.656949  -0.000000
  167        1.690996  -0.000000
  168        1.738984  -0.000000
  169        1.750530  -0.000000
  170        1.787617  -0.000000
  171        1.860146  -0.000000
  172        1.951688  -0.000000
  173        1.971449  -0.000000
  174        2.007376  -0.000000
  175        2.100754  -0.000000
  176        2.176655  -0.000000

  0.2000000E+00  0.1111111E+00  0.1262379E-14  0.4444444E-01
    1      -13.839998   1.000000
    2      -13.134631   1.000000
    3      -12.644990   1.000000
    4      -12.132291   1.000000
    5      -11.953141   1.000000
    6      -11.886523   1.000000
    7      -11.668438   1.000000
    8      -11.422218   1.000000
    9      -11.265635   1.000000
   10      -11.206618   1.000000
   11      -11.032996   1.000000
   12      -10.899735   1.000000
   13      -10.806524   1.000000
   14      -10.604237   1.000000
   15      -10.457033   1.000000
   16      -10.299734   1.000000
   17      -10.231084   1.000000
   18      -10.129605   1.000000
   19       -9.805323   1.000000
   20       -9.677890   1.000000
   21       -9.464067   1.000000
   22       -9.397146   1.000000
   23       -9.317051   1.000000
   24       -9.040002   1.000000
   25       -8.941915   1.000000
   26       -8.804363   1.000000
   27       -8.461030   1.000000
   28       -8.284280   1.000000
   29       -8.170699   1.000000
   30       -8.082337   1.000000
   31       -8.043384   1.000000
   32       -7.840422   1.000000
   33       -7.578437   1.000000
   34       -7.527478   1.000000
   35       -7.445853   1.000000
   36       -7.308505   1.000000
   37       -7.174986   1.000000
   38       -7.017968   1.000000
   39       -6.901711   1.000000
   40       -6.858963   1.000000
   41       -6.721631   1.000000
   42       -6.683554   1.000000
   43       -6.573353   1.000000
   44       -6.477319   1.000000
   45       -6.399145   1.000000
   46       -6.337425   1.000000
   47       -6.129632   1.000000
   48       -5.991061   1.000000
   49       -5.908735   1.000000
   50       -5.857914   1.000000
   51       -5.810933   1.000000
   52       -5.769028   1.000000
   53       -5.719452   1.000000
   54       -5.656745   1.000000
   55       -5.519306   1.000000
   56       -5.459413   1.000000
   57       -5.404904   1.000000
   58       -5.312255   1.000000
   59       -5.250367   1.000000
   60       -5.209828   1.000000
   61       -5.119705   1.000000
   62       -5.048290   1.000000
   63       -4.957551   1.000000
   64       -4.824803   1.000000
   65       -4.750705   1.000000
   66       -4.705774   1.000000
   67       -4.601163   1.000000
   68       -4.565928   1.000000
   69       -4.529917   1.000000
   70       -4.483550   1.000000
   71       -4.388987   1.000000
   72       -4.344007   1.000000
   73       -4.315169   1.000000
   74       -4.258573   1.000000
   75       -4.188968   1.000000
   76       -4.101385   1.000000
   77       -4.054409   1.000000
   78       -3.967815   1.000000
   79       -3.923998   1.000000
   80       -3.868796   1.000000
   81       -3.816471   1.000000
   82       -3.707235   1.000000
   83       -3.649875   1.000000
   84       -3.592871   1.000000
   85       -3.522319   1.000000
   86       -3.467525   1.000000
   87       -3.411117   1.000000
   88       -3.342967   1.000000
   89       -3.266052   1.000000
   90       -3.243307   1.000000
   91       -3.177383   1.000000
   92       -3.131000   1.000000
   93       -3.094034   1.000000
   94       -3.029652   1.000000
   95       -2.970993   1.000000
   96       -2.799701   1.000000
   97       -2.772274   1.000000
   98       -2.685927   1.000000
   99       -2.584846   1.000000
  100       -2.563496   1.000000
  101       -2.454852   1.000000
  102       -2.427916   1.000000
  103       -2.320732   1.000000
  104       -2.270578   1.000000
  105       -2.230668   1.000000
  106       -2.196582   1.000000
  107       -2.073022   1.000000
  108       -2.043592   1.000000
  109       -1.958940   1.000000
  110       -1.907254   1.000000
  111       -1.845552   1.000000
  112       -1.815510   1.000000
  113       -1.728641   1.000000
  114       -1.633039   1.000000
  115       -1.463514   1.000000
  116       -1.389106   1.000000
  117       -1.349196   1.000000
  118       -1.230282   1.000000
  119       -1.186901   1.000000
  120       -1.079217   1.000000
  121       -0.889790   1.000000
  122       -0.853113   1.000000
  123       -0.709143   1.000000
  124       -0.623183   1.000001
  125       -0.479624   1.000082
  126       -0.402869   1.000610
  127       -0.323384   1.003402
  128       -0.273891   1.008163
  129       -0.242759   1.013018
  130       -0.204173   1.021002
  131       -0.114203   1.035317
  132       -0.011756   0.953751
  133        0.101625   0.597414
  134        0.136932   0.448850
  135        0.197421   0.214085
  136        0.254005   0.060438
  137        0.339942  -0.031299
  138        0.389236  -0.034183
  139        0.427197  -0.027118
  140        0.503582  -0.011095
  141        0.536174  -0.006626
  142        0.620092  -0.001286
  143        0.729010  -0.000083
  144        0.785414  -0.000016
  145        0.856106  -0.000001
  146        0.889941  -0.000000
  147        0.969203  -0.000000
  148        1.014871  -0.000000
  149        1.041974  -0.000000
  150        1.131382  -0.000000
  151        1.152879  -0.000000
  152        1.183308  -0.000000
  153        1.223372  -0.000000
  154        1.247726  -0.000000
  155        1.279373  -0.000000
  156        1.317638  -0.000000
  157        1.350619  -0.000000
  158        1.388132  -0.000000
  159        1.405045  -0.000000
  160        1.439711  -0.000000
  161        1.463599  -0.000000
  162        1.517800  -0.000000
  163        1.558907  -0.000000
  164        1.577962  -0.000000
  165        1.636966  -0.000000
  166        1.663882  -0.000000
  167        1.698322  -0.000000
  168        1.724040  -0.000000
  169        1.778283  -0.000000
  170        1.810701  -0.000000
  171        1.876590  -0.000000
  172        1.922991  -0.000000
  173        1.980036  -0.000000
  174        2.029073  -0.000000
  175        2.097425  -0.000000
  176        2.215911  -0.000000

  0.4000000E+00  0.1111111E+00  0.1262379E-14  0.4444444E-01
    1      -13.741444   1.000000
    2      -13.383599   1.000000
    3      -12.529264   1.000000
    4      -12.207442   1.000000
    5      -11.874920   1.000000
    6      -11.733446   1.000000
    7      -11.646362   1.000000
    8      -11.377164   1.000000
    9      -11.227477   1.000000
   10      -11.111506   1.000000
   11      -11.054864   1.000000