 running on   72 total cores
 distrk:  each k-point on   72 cores,    1 groups
 distr:  one band on    9 cores,    8 groups
 using from now: INCAR     
 vasp.5.4.4.18Apr17-6-g9f103f2a35 (build Dec  7 2020 12:43:57) complex           
 POSCAR found type information on POSCAR  Mo V  B  H 
 POSCAR found :  4 types and      72 ions
 scaLAPACK will be used
 LDA part: xc-table for Pade appr. of Perdew
 POSCAR, INCAR and KPOINTS ok, starting setup
 resort distribution
 resort distribution
 resort distribution
 resort distribution
 resort distribution
 resort distribution
 resort distribution
 resort distribution
 resort distribution
 resort distribution
 resort distribution
 resort distribution
 resort distribution
 resort distribution
 resort distribution
 resort distribution
 resort distribution
 resort distribution
 resort distribution
 resort distribution
 resort distribution
 resort distribution
 resort distribution
 resort distribution
 resort distribution
 resort distribution
 resort distribution
 resort distribution
 resort distribution
 resort distribution
 resort distribution
 resort distribution
 resort distribution
 resort distribution
 resort distribution
 resort distribution
 resort distribution
 resort distribution
 resort distribution
 resort distribution
 resort distribution
 resort distribution
 resort distribution
 resort distribution
 resort distribution
 resort distribution
 resort distribution
 resort distribution
 resort distribution
 resort distribution
 resort distribution
 resort distribution
 resort distribution
 resort distribution
 resort distribution
 resort distribution
 resort distribution
 resort distribution
 resort distribution
 resort distribution
 resort distribution
 resort distribution
 resort distribution
 resort distribution
 resort distribution
 resort distribution
 resort distribution
 resort distribution
 resort distribution
 resort distribution
 resort distribution
 resort distribution
 FFT: planning ...
 WAVECAR not read
 augmentation electrons   267.05816605264670     
 soft         electrons   0.0000000000000000     
 augmentation electrons   267.05816605264670     
 soft         electrons   0.0000000000000000     
 augmentation electrons   267.05816605264670     
 soft         electrons   0.0000000000000000     
 augmentation electrons   267.05816605264670     
 soft         electrons   0.0000000000000000     
 augmentation electrons   267.05816605264670     
 soft         electrons   0.0000000000000000     
 augmentation electrons   267.05816605264670     
 soft         electrons   0.0000000000000000     
 augmentation electrons   267.05816605264670     
 soft         electrons   0.0000000000000000     
 augmentation electrons   267.05816605264670     
 soft         electrons   0.0000000000000000     
 augmentation electrons   267.05816605264670     
 soft         electrons   0.0000000000000000     
 augmentation electrons   267.05816605264670     
 soft         electrons   0.0000000000000000     
 augmentation electrons   267.05816605264670     
 soft         electrons   0.0000000000000000     
 augmentation electrons   267.05816605264670     
 soft         electrons   0.0000000000000000     
 augmentation electrons   267.05816605264670     
 soft         electrons   0.0000000000000000     
 augmentation electrons   267.05816605264670     
 soft         electrons   0.0000000000000000     
 augmentation electrons   267.05816605264670     
 soft         electrons   0.0000000000000000     
 augmentation electrons   267.05816605264670     
 soft         electrons   0.0000000000000000     
 augmentation electrons   267.05816605264670     
 soft         electrons   0.0000000000000000     
 augmentation electrons   267.05816605264670     
 soft         electrons   0.0000000000000000     
 augmentation electrons   267.05816605264670     
 soft         electrons   0.0000000000000000     
 augmentation electrons   267.05816605264670     
 soft         electrons   0.0000000000000000     
 augmentation electrons   267.05816605264670     
 soft         electrons   0.0000000000000000     
 augmentation electrons   267.05816605264670     
 soft         electrons   0.0000000000000000     
 augmentation electrons   267.05816605264670     
 soft         electrons   0.0000000000000000     
 augmentation electrons   267.05816605264670     
 soft         electrons   0.0000000000000000     
 augmentation electrons   267.05816605264670     
 soft         electrons   0.0000000000000000     
 augmentation electrons   267.05816605264670     
 soft         electrons   0.0000000000000000     
 augmentation electrons   267.05816605264670     
 soft         electrons   0.0000000000000000     
 augmentation electrons   267.05816605264670     
 soft         electrons   0.0000000000000000     
 augmentation electrons   267.05816605264670     
 soft         electrons   0.0000000000000000     
 augmentation electrons   267.05816605264670     
 soft         electrons   0.0000000000000000     
 augmentation electrons   267.05816605264670     
 soft         electrons   0.0000000000000000     
 augmentation electrons   267.05816605264670     
 soft         electrons   0.0000000000000000     
 augmentation electrons   267.05816605264670     
 soft         electrons   0.0000000000000000     
 augmentation electrons   267.05816605264670     
 soft         electrons   0.0000000000000000     
 augmentation electrons   267.05816605264670     
 soft         electrons   0.0000000000000000     
 augmentation electrons   267.05816605264670     
 soft         electrons   0.0000000000000000     
 augmentation electrons   267.05816605264670     
 soft         electrons   0.0000000000000000     
 augmentation electrons   267.05816605264670     
 soft         electrons   0.0000000000000000     
 augmentation electrons   267.05816605264670     
 soft         electrons   0.0000000000000000     
 augmentation electrons   267.05816605264670     
 soft         electrons   0.0000000000000000     
 augmentation electrons   267.05816605264670     
 soft         electrons   0.0000000000000000     
 augmentation electrons   267.05816605264670     
 soft         electrons   0.0000000000000000     
 augmentation electrons   267.05816605264670     
 soft         electrons   0.0000000000000000     
 augmentation electrons   267.05816605264670     
 soft         electrons   0.0000000000000000     
 augmentation electrons   267.05816605264670     
 soft         electrons   0.0000000000000000     
 augmentation electrons   267.05816605264670     
 soft         electrons   0.0000000000000000     
 augmentation electrons   267.05816605264670     
 soft         electrons   0.0000000000000000     
 augmentation electrons   267.05816605264670     
 soft         electrons   0.0000000000000000     
 augmentation electrons   267.05816605264670     
 soft         electrons   0.0000000000000000     
 augmentation electrons   267.05816605264670     
 soft         electrons   0.0000000000000000     
 augmentation electrons   267.05816605264670     
 soft         electrons   0.0000000000000000     
 augmentation electrons   267.05816605264670     
 soft         electrons   0.0000000000000000     
 augmentation electrons   267.05816605264670     
 soft         electrons   0.0000000000000000     
 augmentation electrons   267.05816605264670     
 soft         electrons   0.0000000000000000     
 augmentation electrons   267.05816605264670     
 soft         electrons   0.0000000000000000     
 augmentation electrons   267.05816605264670     
 soft         electrons   0.0000000000000000     
 augmentation electrons   267.05816605264670     
 soft         electrons   0.0000000000000000     
 augmentation electrons   267.05816605264670     
 soft         electrons   0.0000000000000000     
 augmentation electrons   267.05816605264670     
 soft         electrons   0.0000000000000000     
 augmentation electrons   267.05816605264670     
 soft         electrons   0.0000000000000000     
 augmentation electrons   267.05816605264670     
 soft         electrons   0.0000000000000000     
 augmentation electrons   267.05816605264670     
 soft         electrons   0.0000000000000000     
 augmentation electrons   267.05816605264670     
 soft         electrons   0.0000000000000000     
 augmentation electrons   267.05816605264670     
 soft         electrons   0.0000000000000000     
 augmentation electrons   267.05816605264670     
 soft         electrons   0.0000000000000000     
 augmentation electrons   267.05816605264670     
 soft         electrons   0.0000000000000000     
 augmentation electrons   267.05816605264670     
 soft         electrons   0.0000000000000000     
 augmentation electrons   267.05816605264670     
 soft         electrons   0.0000000000000000     
 augmentation electrons   267.05816605264670     
 soft         electrons   0.0000000000000000     
 augmentation electrons   267.05816605264670     
 soft         electrons   0.0000000000000000     
 augmentation electrons   267.05816605264670     
 soft         electrons   0.0000000000000000     
 augmentation electrons   267.05816605264670     
 soft         electrons   0.0000000000000000     
 total        electrons   267.05816605264670     
 total        electrons   267.05816605264670     
 total        electrons   267.05816605264670     
 total        electrons   267.05816605264670     
 total        electrons   267.05816605264670     
 total        electrons   267.05816605264670     
 total        electrons   267.05816605264670     
 total        electrons   267.05816605264670     
 total        electrons   267.05816605264670     
 total        electrons   267.05816605264670     
 total        electrons   267.05816605264670     
 total        electrons   267.05816605264670     
 total        electrons   267.05816605264670     
 total        electrons   267.05816605264670     
 total        electrons   267.05816605264670     
 total        electrons   267.05816605264670     
 total        electrons   267.05816605264670     
 total        electrons   267.05816605264670     
 total        electrons   267.05816605264670     
 total        electrons   267.05816605264670     
 total        electrons   267.05816605264670     
 total        electrons   267.05816605264670     
 total        electrons   267.05816605264670     
 total        electrons   267.05816605264670     
 total        electrons   267.05816605264670     
 total        electrons   267.05816605264670     
 total        electrons   267.05816605264670     
 total        electrons   267.05816605264670     
 total        electrons   267.05816605264670     
 total        electrons   267.05816605264670     
 total        electrons   267.05816605264670     
 total        electrons   267.05816605264670     
 total        electrons   267.05816605264670     
 total        electrons   267.05816605264670     
 total        electrons   267.05816605264670     
 total        electrons   267.05816605264670     
 total        electrons   267.05816605264670     
 total        electrons   267.05816605264670     
 total        electrons   267.05816605264670     
 total        electrons   267.05816605264670     
 total        electrons   267.05816605264670     
 total        electrons   267.05816605264670     
 total        electrons   267.05816605264670     
 total        electrons   267.05816605264670     
 total        electrons   267.05816605264670     
 total        electrons   267.05816605264670     
 total        electrons   267.05816605264670     
 total        electrons   267.05816605264670     
 total        electrons   267.05816605264670     
 total        electrons   267.05816605264670     
 total        electrons   267.05816605264670     
 total        electrons   267.05816605264670     
 total        electrons   267.05816605264670     
 total        electrons   267.05816605264670     
 total        electrons   267.05816605264670     
 total        electrons   267.05816605264670     
 total        electrons   267.05816605264670     
 total        electrons   267.05816605264670     
 total        electrons   267.05816605264670     
 total        electrons   267.05816605264670     
 total        electrons   267.05816605264670     
 total        electrons   267.05816605264670     
 total        electrons   267.05816605264670     
 total        electrons   267.05816605264670     
 total        electrons   267.05816605264670     
 total        electrons   267.05816605264670     
 total        electrons   267.05816605264670     
 total        electrons   267.05816605264670     
 total        electrons   267.05816605264670     
 total        electrons   267.05816605264670     
 total        electrons   267.05816605264670     
 total        electrons   267.05816605264670     
 augmentation electrons   1134.5113766423656     
 soft         electrons   0.0000000000000000     
 augmentation electrons   1134.5113766423656     
 soft         electrons   0.0000000000000000     
 augmentation electrons   1134.5113766423656     
 soft         electrons   0.0000000000000000     
 augmentation electrons   1134.5113766423656     
 soft         electrons   0.0000000000000000     
 augmentation electrons   1134.5113766423656     
 soft         electrons   0.0000000000000000     
 augmentation electrons   1134.5113766423656     
 soft         electrons   0.0000000000000000     
 augmentation electrons   1134.5113766423656     
 soft         electrons   0.0000000000000000     
 augmentation electrons   1134.5113766423656     
 soft         electrons   0.0000000000000000     
 augmentation electrons   1134.5113766423656     
 soft         electrons   0.0000000000000000     
 augmentation electrons   1134.5113766423656     
 soft         electrons   0.0000000000000000     
 augmentation electrons   1134.5113766423656     
 soft         electrons   0.0000000000000000     
 augmentation electrons   1134.5113766423656     
 soft         electrons   0.0000000000000000     
 augmentation electrons   1134.5113766423656     
 soft         electrons   0.0000000000000000     
 augmentation electrons   1134.5113766423656     
 soft         electrons   0.0000000000000000     
 augmentation electrons   1134.5113766423656     
 soft         electrons   0.0000000000000000     
 augmentation electrons   1134.5113766423656     
 soft         electrons   0.0000000000000000     
 augmentation electrons   1134.5113766423656     
 soft         electrons   0.0000000000000000     
 augmentation electrons   1134.5113766423656     
 soft         electrons   0.0000000000000000     
 augmentation electrons   1134.5113766423656     
 soft         electrons   0.0000000000000000     
 augmentation electrons   1134.5113766423656     
 soft         electrons   0.0000000000000000     
 augmentation electrons   1134.5113766423656     
 soft         electrons   0.0000000000000000     
 augmentation electrons   1134.5113766423656     
 soft         electrons   0.0000000000000000     
 augmentation electrons   1134.5113766423656     
 soft         electrons   0.0000000000000000     
 augmentation electrons   1134.5113766423656     
 soft         electrons   0.0000000000000000     
 augmentation electrons   1134.5113766423656     
 soft         electrons   0.0000000000000000     
 augmentation electrons   1134.5113766423656     
 soft         electrons   0.0000000000000000     
 augmentation electrons   1134.5113766423656     
 soft         electrons   0.0000000000000000     
 augmentation electrons   1134.5113766423656     
 soft         electrons   0.0000000000000000     
 augmentation electrons   1134.5113766423656     
 soft         electrons   0.0000000000000000     
 augmentation electrons   1134.5113766423656     
 soft         electrons   0.0000000000000000     
 augmentation electrons   1134.5113766423656     
 soft         electrons   0.0000000000000000     
 augmentation electrons   1134.5113766423656     
 soft         electrons   0.0000000000000000     
 augmentation electrons   1134.5113766423656     
 soft         electrons   0.0000000000000000     
 augmentation electrons   1134.5113766423656     
 soft         electrons   0.0000000000000000     
 augmentation electrons   1134.5113766423656     
 soft         electrons   0.0000000000000000     
 augmentation electrons   1134.5113766423656     
 soft         electrons   0.0000000000000000     
 augmentation electrons   1134.5113766423656     
 soft         electrons   0.0000000000000000     
 augmentation electrons   1134.5113766423656     
 soft         electrons   0.0000000000000000     
 augmentation electrons   1134.5113766423656     
 soft         electrons   0.0000000000000000     
 augmentation electrons   1134.5113766423656     
 soft         electrons   0.0000000000000000     
 augmentation electrons   1134.5113766423656     
 soft         electrons   0.0000000000000000     
 augmentation electrons   1134.5113766423656     
 soft         electrons   0.0000000000000000     
 augmentation electrons   1134.5113766423656     
 soft         electrons   0.0000000000000000     
 augmentation electrons   1134.5113766423656     
 soft         electrons   0.0000000000000000     
 augmentation electrons   1134.5113766423656     
 soft         electrons   0.0000000000000000     
 augmentation electrons   1134.5113766423656     
 soft         electrons   0.0000000000000000     
 augmentation electrons   1134.5113766423656     
 soft         electrons   0.0000000000000000     
 augmentation electrons   1134.5113766423656     
 soft         electrons   0.0000000000000000     
 augmentation electrons   1134.5113766423656     
 soft         electrons   0.0000000000000000     
 augmentation electrons   1134.5113766423656     
 soft         electrons   0.0000000000000000     
 augmentation electrons   1134.5113766423656     
 soft         electrons   0.0000000000000000     
 augmentation electrons   1134.5113766423656     
 soft         electrons   0.0000000000000000     
 augmentation electrons   1134.5113766423656     
 soft         electrons   0.0000000000000000     
 augmentation electrons   1134.5113766423656     
 soft         electrons   0.0000000000000000     
 augmentation electrons   1134.5113766423656     
 augmentation electrons   1134.5113766423656     
 soft         electrons   0.0000000000000000     
 augmentation electrons   1134.5113766423656     
 soft         electrons   0.0000000000000000     
 augmentation electrons   1134.5113766423656     
 soft         electrons   0.0000000000000000     
 augmentation electrons   1134.5113766423656     
 soft         electrons   0.0000000000000000     
 augmentation electrons   1134.5113766423656     
 soft         electrons   0.0000000000000000     
 augmentation electrons   1134.5113766423656     
 soft         electrons   0.0000000000000000     
 augmentation electrons   1134.5113766423656     
 soft         electrons   0.0000000000000000     
 augmentation electrons   1134.5113766423656     
 soft         electrons   0.0000000000000000     
 augmentation electrons   1134.5113766423656     
 soft         electrons   0.0000000000000000     
 augmentation electrons   1134.5113766423656     
 soft         electrons   0.0000000000000000     
 augmentation electrons   1134.5113766423656     
 soft         electrons   0.0000000000000000     
 augmentation electrons   1134.5113766423656     
 soft         electrons   0.0000000000000000     
 augmentation electrons   1134.5113766423656     
 soft         electrons   0.0000000000000000     
 augmentation electrons   1134.5113766423656     
 soft         electrons   0.0000000000000000     
 augmentation electrons   1134.5113766423656     
 soft         electrons   0.0000000000000000     
 augmentation electrons   1134.5113766423656     
 soft         electrons   0.0000000000000000     
 augmentation electrons   1134.5113766423656     
 soft         electrons   0.0000000000000000     
 soft         electrons   0.0000000000000000     
 total        electrons   1134.5113766423656     
 total        electrons   1134.5113766423656     
 total        electrons   1134.5113766423656     
 total        electrons   1134.5113766423656     
 total        electrons   1134.5113766423656     
 total        electrons   1134.5113766423656     
 total        electrons   1134.5113766423656     
 total        electrons   1134.5113766423656     
 total        electrons   1134.5113766423656     
 total        electrons   1134.5113766423656     
 total        electrons   1134.5113766423656     
 total        electrons   1134.5113766423656     
 total        electrons   1134.5113766423656     
 total        electrons   1134.5113766423656     
 total        electrons   1134.5113766423656     
 total        electrons   1134.5113766423656     
 total        electrons   1134.5113766423656     
 total        electrons   1134.5113766423656     
 total        electrons   1134.5113766423656     
 total        electrons   1134.5113766423656     
 total        electrons   1134.5113766423656     
 total        electrons   1134.5113766423656     
 total        electrons   1134.5113766423656     
 total        electrons   1134.5113766423656     
 total        electrons   1134.5113766423656     
 total        electrons   1134.5113766423656     
 total        electrons   1134.5113766423656     
 total        electrons   1134.5113766423656     
 total        electrons   1134.5113766423656     
 total        electrons   1134.5113766423656     
 total        electrons   1134.5113766423656     
 total        electrons   1134.5113766423656     
 total        electrons   1134.5113766423656     
 total        electrons   1134.5113766423656     
 total        electrons   1134.5113766423656     
 total        electrons   1134.5113766423656     
 total        electrons   1134.5113766423656     
 total        electrons   1134.5113766423656     
 total        electrons   1134.5113766423656     
 total        electrons   1134.5113766423656     
 total        electrons   1134.5113766423656     
 total        electrons   1134.5113766423656     
 total        electrons   1134.5113766423656     
 total        electrons   1134.5113766423656     
 total        electrons   1134.5113766423656     
 total        electrons   1134.5113766423656     
 total        electrons   1134.5113766423656     
 total        electrons   1134.5113766423656     
 total        electrons   1134.5113766423656     
 total        electrons   1134.5113766423656     
 total        electrons   1134.5113766423656     
 total        electrons   1134.5113766423656     
 total        electrons   1134.5113766423656     
 total        electrons   1134.5113766423656     
 total        electrons   1134.5113766423656     
 total        electrons   1134.5113766423656     
 total        electrons   1134.5113766423656     
 total        electrons   1134.5113766423656     
 total        electrons   1134.5113766423656     
 total        electrons   1134.5113766423656     
 total        electrons   1134.5113766423656     
 total        electrons   1134.5113766423656     
 total        electrons   1134.5113766423656     
 total        electrons   1134.5113766423656     
 total        electrons   1134.5113766423656     
 total        electrons   1134.5113766423656     
 total        electrons   1134.5113766423656     
 total        electrons   1134.5113766423656     
 total        electrons   1134.5113766423656     
 total        electrons   1134.5113766423656     
 total        electrons   1134.5113766423656     
 total        electrons   1134.5113766423656     
 entering main loop
       N       E                     dE             d eps       ncg     rms          rms(c)
DAV:   1     0.228746241342E+04    0.22875E+04   -0.95316E+04  8096   0.123E+03
DAV:   2    -0.219285810639E+03   -0.25067E+04   -0.23282E+04  9400   0.302E+02
DAV:   3    -0.625757222334E+03   -0.40647E+03   -0.38672E+03 11392   0.142E+02
DAV:   4    -0.659632826766E+03   -0.33876E+02   -0.32433E+02 13088   0.456E+01
DAV:   5    -0.661626321067E+03   -0.19935E+01   -0.19278E+01 13736   0.107E+01    0.137E+02
RMM:   6    -0.611953336467E+03    0.49673E+02   -0.11450E+03 11384   0.899E+01    0.734E+01
RMM:   7    -0.668625657752E+03   -0.56672E+02   -0.38318E+02 10588   0.542E+01    0.507E+01
RMM:   8    -0.576163580593E+03    0.92462E+02   -0.96216E+01 10550   0.240E+01    0.323E+01
RMM:   9    -0.573685662275E+03    0.24779E+01   -0.43854E+01 10213   0.159E+01    0.276E+01
RMM:  10    -0.560120555609E+03    0.13565E+02   -0.15377E+01 11008   0.837E+00    0.216E+01
RMM:  11    -0.557105342780E+03    0.30152E+01   -0.70986E+00  8322   0.909E+00    0.174E+01
RMM:  12    -0.556972571319E+03    0.13277E+00   -0.45259E+00 10946   0.316E+00    0.162E+01
RMM:  13    -0.556578346292E+03    0.39423E+00   -0.81066E-01  8644   0.253E+00    0.146E+01
RMM:  14    -0.556015241226E+03    0.56311E+00   -0.70972E-01  8512   0.268E+00    0.120E+01
RMM:  15    -0.555519899876E+03    0.49534E+00   -0.22781E+00  8385   0.498E+00    0.748E+00
RMM:  16    -0.555020170296E+03    0.49973E+00   -0.17838E+00  8201   0.433E+00    0.322E+00
RMM:  17    -0.555054776817E+03   -0.34607E-01   -0.97944E-01 11022   0.147E+00    0.232E+00
RMM:  18    -0.555026580595E+03    0.28196E-01   -0.18876E-01 10085   0.100E+00    0.174E+00
RMM:  19    -0.555029807963E+03   -0.32274E-02   -0.13483E-01  9017   0.109E+00    0.167E+00
RMM:  20    -0.554994288019E+03    0.35520E-01   -0.49541E-02  9432   0.632E-01    0.562E-01
RMM:  21    -0.554994660714E+03   -0.37269E-03   -0.26407E-02 10914   0.277E-01    0.383E-01
RMM:  22    -0.554995666874E+03   -0.10062E-02   -0.10946E-02  8911   0.289E-01    0.403E-01
RMM:  23    -0.554994529789E+03    0.11371E-02   -0.47487E-03  9497   0.185E-01    0.148E-01
RMM:  24    -0.554995570592E+03   -0.10408E-02   -0.33782E-03 10960   0.729E-02    0.983E-02
RMM:  25    -0.554996830932E+03   -0.12603E-02   -0.10777E-03 10600   0.590E-02    0.683E-02
RMM:  26    -0.554997724498E+03   -0.89357E-03   -0.46431E-04 10338   0.439E-02    0.668E-02
RMM:  27    -0.554998298936E+03   -0.57444E-03   -0.24319E-04  9592   0.394E-02    0.475E-02
RMM:  28    -0.554999249224E+03   -0.95029E-03   -0.28319E-04 10001   0.281E-02    0.395E-02
RMM:  29    -0.554999877079E+03   -0.62786E-03   -0.24769E-04 10265   0.275E-02    0.405E-02
RMM:  30    -0.555000006820E+03   -0.12974E-03   -0.99245E-05  9779   0.169E-02    0.232E-02
RMM:  31    -0.555000129153E+03   -0.12233E-03   -0.28292E-05  8861   0.105E-02    0.163E-02
RMM:  32    -0.555000233520E+03   -0.10437E-03   -0.33200E-05  8770   0.148E-02    0.150E-02
RMM:  33    -0.555000290280E+03   -0.56760E-04   -0.15677E-05  7157   0.746E-03    0.660E-03
RMM:  34    -0.555000406146E+03   -0.11587E-03   -0.80530E-06  6520   0.707E-03    0.126E-02
RMM:  35    -0.555000541619E+03   -0.13547E-03   -0.89713E-06  6571   0.744E-03    0.482E-03
RMM:  36    -0.555000636926E+03   -0.95307E-04   -0.69934E-06  6207   0.406E-03    0.360E-03
RMM:  37    -0.555000678149E+03   -0.41222E-04   -0.34530E-06  5844   0.490E-03    0.491E-03
RMM:  38    -0.555000719831E+03   -0.41682E-04   -0.47865E-06  6097   0.507E-03    0.341E-03
RMM:  39    -0.555000726958E+03   -0.71271E-05   -0.10442E-06  5045   0.362E-03    0.267E-03
RMM:  40    -0.555000733924E+03   -0.69666E-05   -0.92122E-07  5038   0.287E-03    0.132E-03
RMM:  41    -0.555000737910E+03   -0.39856E-05   -0.62724E-07  4260   0.151E-03    0.362E-04
RMM:  42    -0.555000739572E+03   -0.16623E-05   -0.28655E-07  3774   0.137E-03    0.573E-04
RMM:  43    -0.555000740997E+03   -0.14243E-05   -0.24338E-07  3770   0.111E-03    0.236E-04
RMM:  44    -0.555000741397E+03   -0.39996E-06   -0.13862E-07  2943   0.931E-04
   1 F= -.55500074E+03 E0= -.55499621E+03  d E =-.555001E+03
 curvature:   0.00 expect dE= 0.000E+00 dE for cont linesearch  0.000E+00
 trial: gam= 0.00000 g(F)=  0.346E-01 g(S)=  0.000E+00 ort = 0.000E+00 (trialstep = 0.100E+01)
 search vector abs. value=  0.346E-01
 bond charge predicted
       N       E                     dE             d eps       ncg     rms          rms(c)
DAV:   1    -0.555026463315E+03   -0.25722E-01   -0.58861E-01  9000   0.157E+00    0.254E-01
RMM:   2    -0.555026318502E+03    0.14481E-03   -0.11572E-02  9593   0.270E-01    0.155E-01
RMM:   3    -0.555030122958E+03   -0.38045E-02   -0.47118E-03  9803   0.201E-01    0.526E-01
RMM:   4    -0.555026187033E+03    0.39359E-02   -0.18956E-03  9714   0.133E-01    0.107E-01
RMM:   5    -0.555026256406E+03   -0.69373E-04   -0.85150E-04  9126   0.861E-02    0.127E-01
RMM:   6    -0.555026098141E+03    0.15827E-03   -0.32279E-04  9401   0.518E-02    0.570E-02
RMM:   7    -0.555026095572E+03    0.25695E-05   -0.16177E-04  9340   0.343E-02    0.593E-02
RMM:   8    -0.555026070559E+03    0.25013E-04   -0.71590E-05  9454   0.225E-02    0.294E-02
RMM:   9    -0.555026067410E+03    0.31494E-05   -0.35421E-05  8328   0.174E-02    0.211E-02
RMM:  10    -0.555026062857E+03    0.45522E-05   -0.13637E-05  6989   0.996E-03    0.760E-03
RMM:  11    -0.555026063301E+03   -0.44343E-06   -0.67815E-06  6403   0.617E-03
   2 F= -.55502606E+03 E0= -.55502160E+03  d E =-.253219E-01
 trial-energy change:   -0.025322  1 .order   -0.024988   -0.034617   -0.015359
 step:   1.6790(harm=  1.7975)  dis= 0.00000  next Energy=  -555.031382 (dE=-0.306E-01)
 bond charge predicted
       N       E                     dE             d eps       ncg     rms          rms(c)
DAV:   1    -0.555031689990E+03   -0.56271E-02   -0.27678E-01  8632   0.108E+00    0.183E-01
RMM:   2    -0.555031574487E+03    0.11550E-03   -0.55586E-03  9584   0.190E-01    0.114E-01
RMM:   3    -0.555033712249E+03   -0.21378E-02   -0.24157E-03  9673   0.148E-01    0.395E-01
RMM:   4    -0.555031501552E+03    0.22107E-02   -0.10511E-03  9683   0.990E-02    0.814E-02
RMM:   5    -0.555031520006E+03   -0.18454E-04   -0.42557E-04  9171   0.618E-02    0.885E-02
RMM:   6    -0.555031457826E+03    0.62180E-04   -0.17980E-04  9485   0.376E-02    0.525E-02
RMM:   7    -0.555031444016E+03    0.13810E-04   -0.84017E-05  8968   0.260E-02    0.430E-02
RMM:   8    -0.555031429493E+03    0.14523E-04   -0.40043E-05  9051   0.163E-02    0.181E-02
RMM:   9    -0.555031429538E+03   -0.44443E-07   -0.18544E-05  7613   0.122E-02    0.162E-02
RMM:  10    -0.555031426695E+03    0.28426E-05   -0.65800E-06  6195   0.847E-03    0.627E-03
RMM:  11    -0.555031426975E+03   -0.27950E-06   -0.36916E-06  5932   0.439E-03
   3 F= -.55503143E+03 E0= -.55502701E+03  d E =-.306856E-01
 curvature:  -0.88 expect dE=-0.497E-03 dE for cont linesearch -0.940E-07
 trial: gam= 0.01458 g(F)=  0.566E-03 g(S)=  0.000E+00 ort = 0.609E-04 (trialstep = 0.114E+01)
 search vector abs. value=  0.575E-03
 bond charge predicted
       N       E                     dE             d eps       ncg     rms          rms(c)
DAV:   1    -0.555031997425E+03   -0.57073E-03   -0.12073E-02  8600   0.232E-01    0.367E-02
RMM:   2    -0.555031993395E+03    0.40298E-05   -0.18440E-04 10274   0.379E-02    0.246E-02
RMM:   3    -0.555032012923E+03   -0.19528E-04   -0.74984E-05 10230   0.229E-02    0.410E-02
RMM:   4    -0.555032006256E+03    0.66668E-05   -0.38646E-05  8734   0.202E-02    0.346E-02
RMM:   5    -0.555031992610E+03    0.13646E-04   -0.18989E-05  8404   0.109E-02    0.182E-02
RMM:   6    -0.555031990298E+03    0.23125E-05   -0.78446E-06  6339   0.899E-03    0.139E-02
RMM:   7    -0.555031989290E+03    0.10076E-05   -0.40721E-06  5889   0.682E-03    0.998E-03
RMM:   8    -0.555031988482E+03    0.80860E-06   -0.18843E-06  5276   0.544E-03
   4 F= -.55503199E+03 E0= -.55502755E+03  d E =-.561507E-03
 trial-energy change:   -0.000562  1 .order   -0.000560   -0.000644   -0.000476
 step:   4.3574(harm=  4.3574)  dis= 0.01591  next Energy=  -555.032662 (dE=-0.123E-02)
 bond charge predicted
       N       E                     dE             d eps       ncg     rms          rms(c)
DAV:   1    -0.555032764368E+03   -0.77508E-03   -0.97099E-02  8464   0.656E-01    0.103E-01
RMM:   2    -0.555032723281E+03    0.41086E-04   -0.14382E-03 10302   0.106E-01    0.691E-02
RMM:   3    -0.555032994159E+03   -0.27088E-03   -0.63146E-04 11079   0.556E-02    0.125E-01
RMM:   4    -0.555032812570E+03    0.18159E-03   -0.30222E-04  9548   0.486E-02    0.997E-02
RMM:   5    -0.555032709823E+03    0.10275E-03   -0.19012E-04  9482   0.390E-02    0.538E-02
RMM:   6    -0.555032694812E+03    0.15011E-04   -0.76437E-05  9334   0.247E-02    0.373E-02
RMM:   7    -0.555032686878E+03    0.79338E-05   -0.37938E-05  8869   0.169E-02    0.287E-02
RMM:   8    -0.555032678723E+03    0.81546E-05   -0.16026E-05  7938   0.119E-02    0.120E-02
RMM:   9    -0.555032677594E+03    0.11295E-05   -0.69816E-06  6649   0.699E-03    0.663E-03
RMM:  10    -0.555032677499E+03    0.94211E-07   -0.23893E-06  5454   0.547E-03
   5 F= -.55503268E+03 E0= -.55502821E+03  d E =-.125052E-02
 curvature:  -2.21 expect dE=-0.164E-02 dE for cont linesearch -0.268E-06
 trial: gam= 1.29752 g(F)=  0.744E-03 g(S)=  0.000E+00 ort = 0.835E-05 (trialstep = 0.590E+00)
 search vector abs. value=  0.173E-02
 bond charge predicted
       N       E                     dE             d eps       ncg     rms          rms(c)
DAV:   1    -0.555033080124E+03   -0.40253E-03   -0.95158E-03  8496   0.207E-01    0.287E-02
RMM:   2    -0.555033089689E+03   -0.95649E-05   -0.12495E-04 10230   0.319E-02    0.200E-02
RMM:   3    -0.555033118931E+03   -0.29241E-04   -0.48459E-05 10444   0.171E-02    0.394E-02
RMM:   4    -0.555033105386E+03    0.13544E-04   -0.29919E-05  8612   0.159E-02    0.385E-02
RMM:   5    -0.555033089617E+03    0.15769E-04   -0.16259E-05  7424   0.137E-02    0.110E-02
RMM:   6    -0.555033089310E+03    0.30711E-06   -0.58865E-06  6335   0.701E-03
   6 F= -.55503309E+03 E0= -.55502859E+03  d E =-.411811E-03
 ZBRENT: can't locate minimum, use default step
 trial-energy change:   -0.000412  1 .order   -0.000409   -0.000446   -0.000373
 step:   2.3613(harm=  3.6295)  dis= 0.01150  next Energy=  -555.034047 (dE=-0.137E-02)
 bond charge predicted
       N       E                     dE             d eps       ncg     rms          rms(c)
DAV:   1    -0.555033819441E+03   -0.72982E-03   -0.85609E-02  8392   0.621E-01    0.884E-02
RMM:   2    -0.555033889224E+03   -0.69783E-04   -0.10423E-03 10080   0.929E-02    0.618E-02
RMM:   3    -0.555034290575E+03   -0.40135E-03   -0.50777E-04  9373   0.698E-02    0.187E-01
RMM:   4    -0.555033941282E+03    0.34929E-03   -0.22388E-04  9092   0.498E-02    0.709E-02
RMM:   5    -0.555033892886E+03    0.48396E-04   -0.87998E-05  8799   0.305E-02    0.348E-02
RMM:   6    -0.555033890897E+03    0.19889E-05   -0.39512E-05  9402   0.145E-02    0.253E-02
RMM:   7    -0.555033884022E+03    0.68750E-05   -0.16948E-05  7322   0.116E-02    0.138E-02
RMM:   8    -0.555033882381E+03    0.16410E-05   -0.63252E-06  6278   0.693E-03    0.633E-03
RMM:   9    -0.555033882449E+03   -0.68319E-07   -0.18980E-06  5399   0.491E-03
   7 F= -.55503388E+03 E0= -.55502933E+03  d E =-.120495E-02
 curvature:  -3.44 expect dE=-0.326E-03 dE for cont linesearch -0.132E-03
 ZBRENT: increasing intervall
 opt :   5.9033  next Energy=  -555.033468 (dE=-0.790E-03)
 bond charge predicted
       N       E                     dE             d eps       ncg     rms          rms(c)
DAV:   1    -0.555033271266E+03    0.61112E-03   -0.34324E-01  8224   0.124E+00    0.177E-01
RMM:   2    -0.555033512129E+03   -0.24086E-03   -0.41155E-03 10192   0.181E-01    0.115E-01
RMM:   3    -0.555035030554E+03   -0.15184E-02   -0.18665E-03 10732   0.106E-01    0.297E-01
RMM:   4    -0.555033716589E+03    0.13140E-02   -0.91716E-04  9423   0.908E-02    0.132E-01
RMM:   5    -0.555033545092E+03    0.17150E-03   -0.43399E-04  9775   0.561E-02    0.730E-02
RMM:   6    -0.555033505703E+03    0.39389E-04   -0.16068E-04  9654   0.334E-02    0.379E-02
RMM:   7    -0.555033510695E+03   -0.49925E-05   -0.90429E-05  9541   0.208E-02    0.414E-02
RMM:   8    -0.555033494844E+03    0.15851E-04   -0.24709E-05  7612   0.147E-02    0.132E-02
RMM:   9    -0.555033494020E+03    0.82348E-06   -0.11791E-05  7111   0.750E-03    0.576E-03
RMM:  10    -0.555033494629E+03   -0.60835E-06   -0.37812E-06  5939   0.500E-03
   8 F= -.55503349E+03 E0= -.55502882E+03  d E =-.817129E-03
 curvature:  10.85 expect dE= 0.353E-02 dE for cont linesearch  0.149E-02
 ZBRENT: bracketing found
 ZBRENT: interpolating
 opt :   3.5859  next Energy=  -555.034040 (dE=-0.136E-02)
 bond charge predicted
       N       E                     dE             d eps       ncg     rms          rms(c)
DAV:   1    -0.555033954346E+03   -0.46033E-03   -0.14654E-01  8272   0.813E-01    0.116E-01
RMM:   2    -0.555034056296E+03   -0.10195E-03   -0.17562E-03 10148   0.119E-01    0.752E-02
RMM:   3    -0.555034720460E+03   -0.66416E-03   -0.79033E-04 10648   0.696E-02    0.200E-01
RMM:   4    -0.555034141016E+03    0.57944E-03   -0.37425E-04  9362   0.585E-02    0.844E-02
RMM:   5    -0.555034067762E+03    0.73254E-04   -0.17951E-04  9722   0.369E-02    0.413E-02
RMM:   6    -0.555034055932E+03    0.11830E-04   -0.73927E-05  9455   0.221E-02    0.203E-02
RMM:   7    -0.555034053845E+03    0.20871E-05   -0.25253E-05  7947   0.115E-02    0.136E-02
RMM:   8    -0.555034051904E+03    0.19410E-05   -0.57908E-06  6128   0.752E-03    0.844E-03
RMM:   9    -0.555034051628E+03    0.27529E-06   -0.25040E-06  5596   0.464E-03
   9 F= -.55503405E+03 E0= -.55502946E+03  d E =-.137413E-02
 curvature:  -1.15 expect dE=-0.172E-04 dE for cont linesearch -0.689E-07
 trial: gam= 0.00678 g(F)=  0.149E-04 g(S)=  0.000E+00 ort = 0.102E-04 (trialstep = 0.119E+01)
 search vector abs. value=  0.152E-04
 reached required accuracy - stopping structural energy minimisation
 augmentation electrons   27.816093100997566     
 soft         electrons   239.30440173429395     
 augmentation electrons   27.816093100997566     
 soft         electrons   239.30440173429395     
 augmentation electrons   27.816093100997566     
 soft         electrons   239.30440173429395     
 augmentation electrons   27.816093100997566     
 soft         electrons   239.30440173429395     
 augmentation electrons   27.816093100997566     
 soft         electrons   239.30440173429395     
 augmentation electrons   27.816093100997566     
 soft         electrons   239.30440173429395     
 augmentation electrons   27.816093100997566     
 soft         electrons   239.30440173429395     
 augmentation electrons   27.816093100997566     
 soft         electrons   239.30440173429395     
 augmentation electrons   27.816093100997566     
 soft         electrons   239.30440173429395     
 augmentation electrons   27.816093100997566     
 soft         electrons   239.30440173429395     
 augmentation electrons   27.816093100997566     
 soft         electrons   239.30440173429395     
 augmentation electrons   27.816093100997566     
 augmentation electrons   27.816093100997566     
 soft         electrons   239.30440173429395     
 augmentation electrons   27.816093100997566     
 soft         electrons   239.30440173429395     
 augmentation electrons   27.816093100997566     
 soft         electrons   239.30440173429395     
 augmentation electrons   27.816093100997566     
 soft         electrons   239.30440173429395     
 augmentation electrons   27.816093100997566     
 soft         electrons   239.30440173429395     
 augmentation electrons   27.816093100997566     
 soft         electrons   239.30440173429395     
 augmentation electrons   27.816093100997566     
 soft         electrons   239.30440173429395     
 augmentation electrons   27.816093100997566     
 soft         electrons   239.30440173429395     
 augmentation electrons   27.816093100997566     
 soft         electrons   239.30440173429395     
 augmentation electrons   27.816093100997566     
 soft         electrons   239.30440173429395     
 augmentation electrons   27.816093100997566     
 soft         electrons   239.30440173429395     
 augmentation electrons   27.816093100997566     
 soft         electrons   239.30440173429395     
 augmentation electrons   27.816093100997566     
 soft         electrons   239.30440173429395     
 augmentation electrons   27.816093100997566     
 soft         electrons   239.30440173429395     
 augmentation electrons   27.816093100997566     
 soft         electrons   239.30440173429395     
 augmentation electrons   27.816093100997566     
 soft         electrons   239.30440173429395     
 augmentation electrons   27.816093100997566     
 soft         electrons   239.30440173429395     
 augmentation electrons   27.816093100997566     
 soft         electrons   239.30440173429395     
 augmentation electrons   27.816093100997566     
 soft         electrons   239.30440173429395     
 augmentation electrons   27.816093100997566     
 soft         electrons   239.30440173429395     
 augmentation electrons   27.816093100997566     
 soft         electrons   239.30440173429395     
 augmentation electrons   27.816093100997566     
 soft         electrons   239.30440173429395     
 augmentation electrons   27.816093100997566     
 soft         electrons   239.30440173429395     
 augmentation electrons   27.816093100997566     
 soft         electrons   239.30440173429395     
 augmentation electrons   27.816093100997566     
 soft         electrons   239.30440173429395     
 augmentation electrons   27.816093100997566     
 soft         electrons   239.30440173429395     
 augmentation electrons   27.816093100997566     
 soft         electrons   239.30440173429395     
 augmentation electrons   27.816093100997566     
 soft         electrons   239.30440173429395     
 augmentation electrons   27.816093100997566     
 soft         electrons   239.30440173429395     
 augmentation electrons   27.816093100997566     
 soft         electrons   239.30440173429395     
 augmentation electrons   27.816093100997566     
 soft         electrons   239.30440173429395     
 augmentation electrons   27.816093100997566     
 soft         electrons   239.30440173429395     
 augmentation electrons   27.816093100997566     
 soft         electrons   239.30440173429395     
 augmentation electrons   27.816093100997566     
 soft         electrons   239.30440173429395     
 augmentation electrons   27.816093100997566     
 soft         electrons   239.30440173429395     
 augmentation electrons   27.816093100997566     
 soft         electrons   239.30440173429395     
 augmentation electrons   27.816093100997566     
 soft         electrons   239.30440173429395     
 augmentation electrons   27.816093100997566     
 soft         electrons   239.30440173429395     
 augmentation electrons   27.816093100997566     
 soft         electrons   239.30440173429395     
 augmentation electrons   27.816093100997566     
 soft         electrons   239.30440173429395     
 augmentation electrons   27.816093100997566     
 soft         electrons   239.30440173429395     
 augmentation electrons   27.816093100997566     
 soft         electrons   239.30440173429395     
 augmentation electrons   27.816093100997566     
 soft         electrons   239.30440173429395     
 augmentation electrons   27.816093100997566     
 soft         electrons   239.30440173429395     
 augmentation electrons   27.816093100997566     
 soft         electrons   239.30440173429395     
 augmentation electrons   27.816093100997566     
 soft         electrons   239.30440173429395     
 augmentation electrons   27.816093100997566     
 soft         electrons   239.30440173429395     
 augmentation electrons   27.816093100997566     
 soft         electrons   239.30440173429395     
 augmentation electrons   27.816093100997566     
 soft         electrons   239.30440173429395     
 augmentation electrons   27.816093100997566     
 soft         electrons   239.30440173429395     
 augmentation electrons   27.816093100997566     
 soft         electrons   239.30440173429395     
 augmentation electrons   27.816093100997566     
 soft         electrons   239.30440173429395     
 augmentation electrons   27.816093100997566     
 soft         electrons   239.30440173429395     
 augmentation electrons   27.816093100997566     
 soft         electrons   239.30440173429395     
 augmentation electrons   27.816093100997566     
 soft         electrons   239.30440173429395     
 augmentation electrons   27.816093100997566     
 soft         electrons   239.30440173429395     
 augmentation electrons   27.816093100997566     
 soft         electrons   239.30440173429395     
 augmentation electrons   27.816093100997566     
 soft         electrons   239.30440173429395     
 augmentation electrons   27.816093100997566     
 soft         electrons   239.30440173429395     
 augmentation electrons   27.816093100997566     
 soft         electrons   239.30440173429395     
 soft         electrons   239.30440173429395     
 total        electrons   267.12049483529154     
 total        electrons   267.12049483529154     
 total        electrons   267.12049483529154     
 total        electrons   267.12049483529154     
 total        electrons   267.12049483529154     
 total        electrons   267.12049483529154     
 total        electrons   267.12049483529154     
 total        electrons   267.12049483529154     
 total        electrons   267.12049483529154     
 total        electrons   267.12049483529154     
 total        electrons   267.12049483529154     
 total        electrons   267.12049483529154     
 total        electrons   267.12049483529154     
 total        electrons   267.12049483529154     
 total        electrons   267.12049483529154     
 total        electrons   267.12049483529154     
 total        electrons   267.12049483529154     
 total        electrons   267.12049483529154     
 total        electrons   267.12049483529154     
 total        electrons   267.12049483529154     
 total        electrons   267.12049483529154     
 total        electrons   267.12049483529154     
 total        electrons   267.12049483529154     
 total        electrons   267.12049483529154     
 total        electrons   267.12049483529154     
 total        electrons   267.12049483529154     
 total        electrons   267.12049483529154     
 total        electrons   267.12049483529154     
 total        electrons   267.12049483529154     
 total        electrons   267.12049483529154     
 total        electrons   267.12049483529154     
 total        electrons   267.12049483529154     
 total        electrons   267.12049483529154     
 total        electrons   267.12049483529154     
 total        electrons   267.12049483529154     
 total        electrons   267.12049483529154     
 total        electrons   267.12049483529154     
 total        electrons   267.12049483529154     
 total        electrons   267.12049483529154     
 total        electrons   267.12049483529154     
 total        electrons   267.12049483529154     
 total        electrons   267.12049483529154     
 total        electrons   267.12049483529154     
 total        electrons   267.12049483529154     
 total        electrons   267.12049483529154     
 total        electrons   267.12049483529154     
 total        electrons   267.12049483529154     
 total        electrons   267.12049483529154     
 total        electrons   267.12049483529154     
 total        electrons   267.12049483529154     
 total        electrons   267.12049483529154     
 total        electrons   267.12049483529154     
 total        electrons   267.12049483529154     
 total        electrons   267.12049483529154     
 total        electrons   267.12049483529154     
 total        electrons   267.12049483529154     
 total        electrons   267.12049483529154     
 total        electrons   267.12049483529154     
 total        electrons   267.12049483529154     
 total        electrons   267.12049483529154     
 total        electrons   267.12049483529154     
 total        electrons   267.12049483529154     
 total        electrons   267.12049483529154     
 total        electrons   267.12049483529154     
 total        electrons   267.12049483529154     
 total        electrons   267.12049483529154     
 total        electrons   267.12049483529154     
 total        electrons   267.12049483529154     
 total        electrons   267.12049483529154     
 total        electrons   267.12049483529154     
 total        electrons   267.12049483529154     
 total        electrons   267.12049483529154     
Note: The following floating-point exceptions are signalling: IEEE_OVERFLOW_FLAG
Note: The following floating-point exceptions are signalling: IEEE_OVERFLOW_FLAG
Note: The following floating-point exceptions are signalling: IEEE_OVERFLOW_FLAG
Note: The following floating-point exceptions are signalling: IEEE_OVERFLOW_FLAG
Note: The following floating-point exceptions are signalling: IEEE_OVERFLOW_FLAG
Note: The following floating-point exceptions are signalling: IEEE_OVERFLOW_FLAG
Note: The following floating-point exceptions are signalling: IEEE_OVERFLOW_FLAG
Note: The following floating-point exceptions are signalling: IEEE_OVERFLOW_FLAG
Note: The following floating-point exceptions are signalling: IEEE_OVERFLOW_FLAG
Note: The following floating-point exceptions are signalling: IEEE_OVERFLOW_FLAG
Note: The following floating-point exceptions are signalling: IEEE_OVERFLOW_FLAG
Note: The following floating-point exceptions are signalling: IEEE_OVERFLOW_FLAG
Note: The following floating-point exceptions are signalling: IEEE_OVERFLOW_FLAG
Note: The following floating-point exceptions are signalling: IEEE_OVERFLOW_FLAG
Note: The following floating-point exceptions are signalling: IEEE_OVERFLOW_FLAG
Note: The following floating-point exceptions are signalling: IEEE_OVERFLOW_FLAG
Note: The following floating-point exceptions are signalling: IEEE_OVERFLOW_FLAG
Note: The following floating-point exceptions are signalling: IEEE_OVERFLOW_FLAG
Note: The following floating-point exceptions are signalling: IEEE_OVERFLOW_FLAG
Note: The following floating-point exceptions are signalling: IEEE_OVERFLOW_FLAG
Note: The following floating-point exceptions are signalling: IEEE_OVERFLOW_FLAG
Note: The following floating-point exceptions are signalling: IEEE_OVERFLOW_FLAG
Note: The following floating-point exceptions are signalling: IEEE_OVERFLOW_FLAG
Note: The following floating-point exceptions are signalling: IEEE_OVERFLOW_FLAG
Note: The following floating-point exceptions are signalling: IEEE_OVERFLOW_FLAG
Note: The following floating-point exceptions are signalling: IEEE_OVERFLOW_FLAG
Note: The following floating-point exceptions are signalling: IEEE_OVERFLOW_FLAG
Note: The following floating-point exceptions are signalling: IEEE_OVERFLOW_FLAG
Note: The following floating-point exceptions are signalling: IEEE_OVERFLOW_FLAG
Note: The following floating-point exceptions are signalling: IEEE_OVERFLOW_FLAG
Note: The following floating-point exceptions are signalling: IEEE_OVERFLOW_FLAG
Note: The following floating-point exceptions are signalling: IEEE_OVERFLOW_FLAG
Note: The following floating-point exceptions are signalling: IEEE_OVERFLOW_FLAG
Note: The following floating-point exceptions are signalling: IEEE_OVERFLOW_FLAG
Note: The following floating-point exceptions are signalling: IEEE_OVERFLOW_FLAG
Note: The following floating-point exceptions are signalling: IEEE_OVERFLOW_FLAG
Note: The following floating-point exceptions are signalling: IEEE_OVERFLOW_FLAG
Note: The following floating-point exceptions are signalling: IEEE_OVERFLOW_FLAG
Note: The following floating-point exceptions are signalling: IEEE_OVERFLOW_FLAG
Note: The following floating-point exceptions are signalling: IEEE_OVERFLOW_FLAG
Note: The following floating-point exceptions are signalling: IEEE_OVERFLOW_FLAG
Note: The following floating-point exceptions are signalling: IEEE_OVERFLOW_FLAG
Note: The following floating-point exceptions are signalling: IEEE_OVERFLOW_FLAG
Note: The following floating-point exceptions are signalling: IEEE_OVERFLOW_FLAG
Note: The following floating-point exceptions are signalling: IEEE_OVERFLOW_FLAG
Note: The following floating-point exceptions are signalling: IEEE_OVERFLOW_FLAG
Note: The following floating-point exceptions are signalling: IEEE_OVERFLOW_FLAG
Note: The following floating-point exceptions are signalling: IEEE_OVERFLOW_FLAG
Note: The following floating-point exceptions are signalling: IEEE_OVERFLOW_FLAG
Note: The following floating-point exceptions are signalling: IEEE_OVERFLOW_FLAG
Note: The following floating-point exceptions are signalling: IEEE_OVERFLOW_FLAG
Note: The following floating-point exceptions are signalling: IEEE_OVERFLOW_FLAG
Note: The following floating-point exceptions are signalling: IEEE_OVERFLOW_FLAG
Note: The following floating-point exceptions are signalling: IEEE_OVERFLOW_FLAG
Note: The following floating-point exceptions are signalling: IEEE_OVERFLOW_FLAG
Note: The following floating-point exceptions are signalling: IEEE_OVERFLOW_FLAG
Note: The following floating-point exceptions are signalling: IEEE_OVERFLOW_FLAG
Note: The following floating-point exceptions are signalling: IEEE_OVERFLOW_FLAG
Note: The following floating-point exceptions are signalling: IEEE_OVERFLOW_FLAG
Note: The following floating-point exceptions are signalling: IEEE_OVERFLOW_FLAG
Note: The following floating-point exceptions are signalling: IEEE_OVERFLOW_FLAG
Note: The following floating-point exceptions are signalling: IEEE_OVERFLOW_FLAG
Note: The following floating-point exceptions are signalling: IEEE_OVERFLOW_FLAG
Note: The following floating-point exceptions are signalling: IEEE_OVERFLOW_FLAG
Note: The following floating-point exceptions are signalling: IEEE_OVERFLOW_FLAG
Note: The following floating-point exceptions are signalling: IEEE_OVERFLOW_FLAG
Note: The following floating-point exceptions are signalling: IEEE_OVERFLOW_FLAG
Note: The following floating-point exceptions are signalling: IEEE_OVERFLOW_FLAG
Note: The following floating-point exceptions are signalling: IEEE_OVERFLOW_FLAG
Note: The following floating-point exceptions are signalling: IEEE_OVERFLOW_FLAG
Note: The following floating-point exceptions are signalling: IEEE_OVERFLOW_FLAG
Note: The following floating-point exceptions are signalling: IEEE_OVERFLOW_FLAG
