   23   23   60    1
  0.8438671E+01  0.6042588E-09  0.6042559E-09  0.6137857E-09  0.5000000E-15
   1.0000000000000000E-004
  CAR 
 Name                                    
     86    365     56

  0.3742002E-15  0.3742002E-15  0.3742002E-15  0.1371742E-02
    1       -6.106962   1.000000
    2       -3.846247   1.000000
    3       -2.710778   1.000000
    4       -2.528487   1.000000
    5       -2.189818   1.000000
    6       -2.169869   1.000000
    7       -2.028626   1.000000
    8       -1.948679   1.000000
    9       -1.765232   1.000000
   10       -1.661130   1.000000
   11       -1.568260   1.000000
   12       -0.231012   1.000000
   13       -0.019285   1.000000
   14        0.208112   1.000000
   15        0.523578   1.000000
   16        2.231121   1.000000
   17        2.266612   1.000000
   18        2.623466   1.000000
   19        2.773311   1.000000
   20        2.784598   1.000000
   21        3.289621   1.000000
   22        3.836578   1.000000
   23        3.885137   1.000000
   24        4.045162   1.000000
   25        4.160061   1.000000
   26        4.258492   1.000000
   27        4.349510   1.000000
   28        4.377233   1.000000
   29        4.395352   1.000000
   30        4.582252   1.000000
   31        4.695933   1.000000
   32        4.766217   1.000000
   33        4.853715   1.000000
   34        4.888330   1.000000
   35        5.117686   1.000000
   36        5.564230   1.000000
   37        6.044760   1.000000
   38        6.588952   1.000000
   39        6.726160   1.000000
   40        7.101487   1.000000
   41        7.140808   1.000000
   42        7.453445   1.000000
   43        7.636002   1.000000
   44        8.100094   1.032513
   45        8.254107   0.163042
   46        8.377476  -0.019592
   47        9.048323  -0.000000
   48        9.277873  -0.000000
   49        9.345234  -0.000000
   50        9.372563  -0.000000
   51        9.493830  -0.000000
   52        9.618525  -0.000000
   53        9.897443  -0.000000
   54       10.060111  -0.000000
   55       11.215434   0.000000
   56       11.405823   0.000000

  0.1111111E+00  0.3821763E-15  0.3742003E-15  0.2743484E-02
    1       -6.048360   1.000000
    2       -3.824122   1.000000
    3       -2.745399   1.000000
    4       -2.731016   1.000000
    5       -2.552773   1.000000
    6       -2.366167   1.000000
    7       -2.133998   1.000000
    8       -2.066059   1.000000
    9       -1.502786   1.000000
   10       -1.379632   1.000000
   11       -0.974804   1.000000
   12       -0.153448   1.000000
   13        0.092521   1.000000
   14        0.187512   1.000000
   15        0.588464   1.000000
   16        2.255093   1.000000
   17        2.285029   1.000000
   18        2.642436   1.000000
   19        2.726976   1.000000
   20        2.800964   1.000000
   21        3.170430   1.000000
   22        3.582661   1.000000
   23        3.795589   1.000000
   24        3.868245   1.000000
   25        3.997859   1.000000
   26        4.156127   1.000000
   27        4.329995   1.000000
   28        4.346944   1.000000
   29        4.387372   1.000000
   30        4.465903   1.000000
   31        4.602305   1.000000
   32        4.816116   1.000000
   33        4.921714   1.000000
   34        5.260528   1.000000
   35        5.416182   1.000000
   36        5.712161   1.000000
   37        5.829554   1.000000
   38        6.141080   1.000000
   39        6.225826   1.000000
   40        7.437276   1.000000
   41        7.593213   1.000000
   42        7.616193   1.000000
   43        7.696911   1.000000
   44        7.985293   1.003343
   45        8.250344   0.186465
   46        8.411205  -0.007650
   47        9.057891  -0.000000
   48        9.245390  -0.000000
   49        9.319853  -0.000000
   50        9.336899  -0.000000
   51        9.440237  -0.000000
   52        9.623263  -0.000000
   53        9.852609  -0.000000
   54       10.028824  -0.000000
   55       10.412959  -0.000000
   56       10.906275  -0.000000

  0.2222222E+00  0.3663047E-15  0.3742005E-15  0.2743484E-02
    1       -5.874570   1.000000
    2       -3.757342   1.000000
    3       -3.437073   1.000000
    4       -2.834562   1.000000
    5       -2.611827   1.000000
    6       -2.601787   1.000000
    7       -2.416708   1.000000
    8       -2.095111   1.000000
    9       -0.985983   1.000000
   10       -0.893125   1.000000
   11       -0.176486   1.000000
   12        0.061154   1.000000
   13        0.078969   1.000000
   14        0.319113   1.000000
   15        0.896864   1.000000
   16        2.288494   1.000000
   17        2.330502   1.000000
   18        2.512967   1.000000
   19        2.638022   1.000000
   20        2.731156   1.000000
   21        2.839638   1.000000
   22        3.079001   1.000000
   23        3.371110   1.000000
   24        3.762423   1.000000
   25        3.955971   1.000000
   26        4.151803   1.000000
   27        4.242240   1.000000
   28        4.243723   1.000000
   29        4.287067   1.000000
   30        4.340697   1.000000
   31        4.620828   1.000000
   32        4.737212   1.000000
   33        5.090189   1.000000
   34        5.133793   1.000000
   35        5.436043   1.000000
   36        5.808656   1.000000
   37        5.869361   1.000000
   38        6.009963   1.000000
   39        6.169513   1.000000
   40        7.241318   1.000000
   41        7.598167   1.000000
   42        7.663837   1.000000
   43        7.990358   1.004052
   44        8.223082   0.389086
   45        8.494580  -0.000214
   46        8.678312  -0.000000
   47        9.083545  -0.000000
   48        9.108754  -0.000000
   49        9.128381  -0.000000
   50        9.194732  -0.000000
   51        9.313176  -0.000000
   52        9.706164  -0.000000
   53        9.740941  -0.000000
   54       10.000436  -0.000000
   55       10.290619  -0.000000
   56       10.620042  -0.000000

  0.3333333E+00  0.3783519E-15  0.3742005E-15  0.2743484E-02
    1       -5.592925   1.000000
    2       -4.079289   1.000000
    3       -3.645648   1.000000
    4       -3.039370   1.000000
    5       -2.789503   1.000000
    6       -2.623371   1.000000
    7       -2.597905   1.000000
    8       -2.068141   1.000000
    9       -0.452781   1.000000
   10       -0.337360   1.000000
   11       -0.057913   1.000000
   12        0.416371   1.000000
   13        0.432182   1.000000
   14        0.671624   1.000000
   15        1.478194   1.000000
   16        2.020018   1.000000
   17        2.079625   1.000000
   18        2.232809   1.000000
   19        2.270989   1.000000
   20        2.387893   1.000000
   21        2.878489   1.000000
   22        2.944158   1.000000
   23        3.251731   1.000000
   24        3.457045   1.000000
   25        3.857379   1.000000
   26        4.041317   1.000000
   27        4.072568   1.000000
   28        4.160169   1.000000
   29        4.208922   1.000000
   30        4.300372   1.000000
   31        4.364414   1.000000
   32        4.621746   1.000000
   33        4.900426   1.000000
   34        5.251261   1.000000
   35        5.515309   1.000000
   36        5.598850   1.000000
   37        5.805831   1.000000
   38        6.477776   1.000000
   39        6.542148   1.000000
   40        7.132586   1.000000
   41        7.197828   1.000000
   42        7.804059   1.000000
   43        7.961304   1.001235
   44        8.237432   0.276115
   45        8.702906  -0.000000
   46        8.764206  -0.000000
   47        9.043369  -0.000000
   48        9.123942  -0.000000
   49        9.127995  -0.000000
   50        9.203401  -0.000000
   51        9.282595  -0.000000
   52        9.552869  -0.000000
   53        9.688753  -0.000000
   54        9.809305  -0.000000
   55        9.955058  -0.000000
   56       10.381222  -0.000000

  0.4444444E+00  0.3729621E-15  0.3742006E-15  0.2743484E-02
    1       -5.234309   1.000000
    2       -4.621090   1.000000
    3       -3.496720   1.000000
    4       -3.256417   1.000000
    5       -2.880508   1.000000
    6       -2.687294   1.000000
    7       -2.629064   1.000000
    8       -2.033738   1.000000
    9       -0.140571   1.000000
   10       -0.011502   1.000000
   11        0.171653   1.000000
   12        0.492535   1.000000
   13        0.860841   1.000000
   14        1.372845   1.000000
   15        1.516260   1.000000
   16        1.578087   1.000000
   17        1.711374   1.000000
   18        2.099928   1.000000
   19        2.274375   1.000000
   20        2.332142   1.000000
   21        2.480303   1.000000
   22        3.106844   1.000000
   23        3.218828   1.000000
   24        3.272714   1.000000
   25        3.481214   1.000000
   26        3.747308   1.000000
   27        3.889077   1.000000
   28        4.145979   1.000000
   29        4.169271   1.000000
   30        4.281543   1.000000
   31        4.435926   1.000000
   32        4.504877   1.000000
   33        5.145382   1.000000
   34        5.336155   1.000000
   35        5.432685   1.000000
   36        5.436557   1.000000
   37        5.970161   1.000000
   38        6.456106   1.000000
   39        6.741068   1.000000
   40        6.860271   1.000000
   41        7.606926   1.000000
   42        7.857083   1.000004
   43        7.976557   1.002364
   44        8.241290   0.247938
   45        8.271955   0.070755
   46        8.319888  -0.032654
   47        8.983438  -0.000000
   48        9.169568  -0.000000
   49        9.289915  -0.000000
   50        9.452457  -0.000000
   51        9.495819  -0.000000
   52        9.541607  -0.000000
   53        9.666169  -0.000000
   54        9.701436  -0.000000
   55       10.114575  -0.000000
   56       10.219379  -0.000000

  0.3742004E-15  0.1111111E+00  0.3742003E-15  0.2743484E-02
    1       -6.048359   1.000000
    2       -3.824122   1.000000
    3       -2.745366   1.000000
    4       -2.731024   1.000000
    5       -2.552757   1.000000
    6       -2.366198   1.000000
    7       -2.134017   1.000000
    8       -2.066064   1.000000
    9       -1.502802   1.000000
   10       -1.379643   1.000000
   11       -0.974761   1.000000
   12       -0.153445   1.000000
   13        0.092485   1.000000
   14        0.187509   1.000000
   15        0.588500   1.000000
   16        2.255104   1.000000
   17        2.285033   1.000000
   18        2.642423   1.000000
   19        2.726920   1.000000
   20        2.801025   1.000000
   21        3.170427   1.000000
   22        3.582761   1.000000
   23        3.795545   1.000000
   24        3.868246   1.000000
   25        3.997907   1.000000
   26        4.156158   1.000000
   27        4.329843   1.000000
   28        4.346951   1.000000
   29        4.387369   1.000000
   30        4.465948   1.000000
   31        4.602247   1.000000
   32        4.816104   1.000000
   33        4.921687   1.000000
   34        5.260565   1.000000
   35        5.416186   1.000000
   36        5.712167   1.000000
   37        5.829579   1.000000
   38        6.141112   1.000000
   39        6.225779   1.000000
   40        7.437375   1.000000
   41        7.593120   1.000000
   42        7.616336   1.000000
   43        7.696752   1.000000
   44        7.985272   1.003341
   45        8.250341   0.186482
   46        8.411217  -0.007647
   47        9.058048  -0.000000
   48        9.250552  -0.000000
   49        9.323612  -0.000000
   50        9.343865  -0.000000
   51        9.433663  -0.000000
   52        9.653482  -0.000000
   53        9.858129  -0.000000
   54       10.071593  -0.000000
   55       10.357679  -0.000000
   56       10.761686  -0.000000

  0.1111111E+00  0.1111111E+00  0.3742004E-15  0.2743484E-02
    1       -5.932900   1.000000
    2       -3.774167   1.000000
    3       -3.146000   1.000000
    4       -2.899306   1.000000
    5       -2.794461   1.000000
    6       -2.610798   1.000000
    7       -2.078965   1.000000
    8       -1.837530   1.000000
    9       -1.640739   1.000000
   10       -0.738261   1.000000
   11       -0.445829   1.000000
   12       -0.005287   1.000000
   13       -0.001202   1.000000
   14        0.428197   1.000000
   15        0.734284   1.000000
   16        2.282124   1.000000
   17        2.284164   1.000000
   18        2.609196   1.000000
   19        2.658343   1.000000
   20        2.734975   1.000000
   21        2.976081   1.000000
   22        3.364541   1.000000
   23        3.554373   1.000000
   24        3.655242   1.000000
   25        3.919333   1.000000
   26        4.003534   1.000000
   27        4.164527   1.000000
   28        4.278422   1.000000
   29        4.309024   1.000000
   30        4.565815   1.000000
   31        4.618551   1.000000
   32        4.661743   1.000000
   33        5.071366   1.000000
   34        5.362023   1.000000
   35        5.450911   1.000000
   36        5.826681   1.000000
   37        5.842643   1.000000
   38        5.984312   1.000000
   39        6.064134   1.000000
   40        7.324081   1.000000
   41        7.605599   1.000000
   42        7.727257   1.000000
   43        8.002775   1.006319
   44        8.144699   0.941783
   45        8.232777   0.311499
   46        8.639066  -0.000000
   47        9.078540  -0.000000
   48        9.137404  -0.000000
   49        9.223930  -0.000000
   50        9.336635  -0.000000
   51        9.389840  -0.000000
   52        9.596555  -0.000000
   53        9.810873  -0.000000
   54       10.003096  -0.000000
   55       10.335734  -0.000000
   56       10.453344  -0.000000

  0.2222222E+00  0.1111111E+00  0.3742005E-15  0.2743484E-02
    1       -5.705295   1.000000
    2       -3.738538   1.000000
    3       -3.679641   1.000000
    4       -3.221890   1.000000
    5       -2.955550   1.000000
    6       -2.677200   1.000000
    7       -2.019344   1.000000
    8       -1.953385   1.000000
    9       -1.178622   1.000000
   10       -0.209661   1.000000
   11       -0.148731   1.000000
   12        0.236896   1.000000
   13        0.346063   1.000000
   14        0.717629   1.000000
   15        1.128977   1.000000
   16        2.002556   1.000000
   17        2.247952   1.000000
   18        2.337126   1.000000
   19        2.352936   1.000000
   20        2.796142   1.000000
   21        2.894078   1.000000
   22        2.961338   1.000000
   23        3.367826   1.000000
   24        3.434729   1.000000
   25        3.849703   1.000000
   26        4.016611   1.000000
   27        4.082318   1.000000
   28        4.121341   1.000000
   29        4.172762   1.000000
   30        4.241119   1.000000
   31        4.603876   1.000000
   32        4.788880   1.000000
   33        4.791233   1.000000
   34        5.244801   1.000000
   35        5.594518   1.000000
   36        5.704125   1.000000
   37        5.780716   1.000000
   38        6.140825   1.000000
   39        6.663252   1.000000
   40        7.060613   1.000000
   41        7.293489   1.000000
   42        7.773999   1.000000
   43        7.976596   1.002368
   44        8.304283  -0.018346
   45        8.690726  -0.000000
   46        8.937461  -0.000000
   47        8.956402  -0.000000
   48        9.083581  -0.000000
   49        9.142207  -0.000000
   50        9.218373  -0.000000
   51        9.374716  -0.000000
   52        9.598615  -0.000000
   53        9.715701  -0.000000
   54        9.866219  -0.000000
   55       10.128249  -0.000000
   56       10.324180  -0.000000

  0.3333333E+00  0.1111111E+00  0.3742006E-15  0.2743484E-02
    1       -5.378239   1.000000
    2       -4.330287   1.000000
    3       -3.541931   1.000000
    4       -3.377003   1.000000
    5       -3.172999   1.000000
    6       -2.712517   1.000000
    7       -2.076310   1.000000
    8       -1.927565   1.000000
    9       -0.601941   1.000000
   10       -0.376141   1.000000
   11        0.361957   1.000000
   12        0.685534   1.000000
   13        0.819335   1.000000
   14        1.078927   1.000000
   15        1.309268   1.000000
   16        1.807530   1.000000
   17        1.860761   1.000000
   18        2.181182   1.000000
   19        2.354108   1.000000
   20        2.429532   1.000000
   21        2.593591   1.000000
   22        2.965678   1.000000
   23        3.139949   1.000000
   24        3.447496   1.000000
   25        3.574378   1.000000
   26        3.889151   1.000000
   27        3.912197   1.000000
   28        3.967339   1.000000
   29        4.100975   1.000000
   30        4.148285   1.000000
   31        4.512449   1.000000
   32        4.613718   1.000000
   33        4.990129   1.000000
   34        5.419605   1.000000
   35        5.503414   1.000000
   36        5.565559   1.000000
   37        5.894650   1.000000
   38        6.381109   1.000000
   39        6.748229   1.000000
   40        6.817975   1.000000
   41        7.405527   1.000000
   42        7.886563   1.000024
   43        7.969693   1.001777
   44        8.314730  -0.029480
   45        8.530454  -0.000028
   46        8.588742  -0.000001
   47        8.956809  -0.000000
   48        9.150686  -0.000000
   49        9.163050  -0.000000
   50        9.319000  -0.000000
   51        9.386028  -0.000000
   52        9.562309  -0.000000
   53        9.735468  -0.000000
   54        9.738889  -0.000000
   55       10.111940  -0.000000
   56       10.264768  -0.000000

  0.4444444E+00  0.1111111E+00  0.3742011E-15  0.2743484E-02
    1       -5.078040   1.000000
    2       -4.722253   1.000000
    3       -3.432405   1.000000
    4       -3.426583   1.000000
    5       -3.309130   1.000000
    6       -2.726677   1.000000
    7       -2.117943   1.000000
    8       -1.884937   1.000000
    9       -0.436066   1.000000
   10       -0.245725   1.000000
   11        0.626177   1.000000
   12        0.834062   1.000000
   13        0.856883   1.000000
   14        1.056308   1.000000
   15        1.446685   1.000000
   16        1.727724   1.000000
   17        2.066539   1.000000
   18        2.101082   1.000000
   19        2.126060   1.000000
   20        2.443936   1.000000
   21        2.610290   1.000000
   22        2.695304   1.000000
   23        2.860591   1.000000
   24        3.404819   1.000000
   25        3.550397   1.000000
   26        3.739208   1.000000
   27        3.818638   1.000000
   28        3.955364   1.000000
   29        4.107044   1.000000
   30        4.222914   1.000000
   31        4.504023   1.000000
   32        4.592401   1.000000
   33        5.243379   1.000000
   34        5.373741   1.000000
   35        5.378575   1.000000
   36        5.506100   1.000000
   37        6.009796   1.000000
   38        6.359835   1.000000
   39        6.568834   1.000000
   40        6.808003   1.000000
   41        7.846977   1.000002
   42        7.863754   1.000006
   43        8.119802   1.011477
   44        8.209280   0.504801
   45        8.271201   0.074005
   46        8.306211  -0.020930
   47        8.936655  -0.000000
   48        9.175297  -0.000000
   49        9.260141  -0.000000
   50        9.327348  -0.000000
   51        9.361715  -0.000000
   52        9.471423  -0.000000
   53        9.607583  -0.000000
   54        9.682420  -0.000000
   55        9.907723  -0.000000
   56       10.094027  -0.000000

 -0.4444444E+00  0.1111111E+00  0.3741998E-15  0.2743484E-02
    1       -5.372743   1.000000
    2       -4.339083   1.000000
    3       -3.579580   1.000000
    4       -3.375617   1.000000
    5       -3.116413   1.000000
    6       -2.722861   1.000000
    7       -2.074918   1.000000
    8       -1.931883   1.000000
    9       -0.594535   1.000000
   10       -0.354403   1.000000
   11        0.351805   1.000000
   12        0.700106   1.000000
   13        0.760655   1.000000
   14        1.039816   1.000000
   15        1.331998   1.000000
   16        1.757665   1.000000
   17        1.855148   1.000000
   18        2.299168   1.000000
   19        2.378048   1.000000
   20        2.457794   1.000000
   21        2.553236   1.000000
   22        2.949798   1.000000
   23        3.036011   1.000000
   24        3.412469   1.000000
   25        3.565051   1.000000
   26        3.897817   1.000000
   27        3.931595   1.000000
   28        4.021898   1.000000
   29        4.149913   1.000000
   30        4.212054   1.000000
   31        4.578057   1.000000
   32        4.597135   1.000000
   33        5.056096   1.000000
   34        5.386470   1.000000
   35        5.425612   1.000000
   36        5.574458   1.000000
   37        5.804753   1.000000
   38        6.292174   1.000000
   39        6.764305   1.000000
   40        6.842978   1.000000
   41        7.401181   1.000000
   42        7.954104   1.000892
   43        7.996530   1.005079
   44        8.296163  -0.004486
   45        8.530838  -0.000028
   46        8.568218  -0.000002
   47        8.980277  -0.000000
   48        9.138866  -0.000000
   49        9.149692  -0.000000
   50        9.266657  -0.000000
   51        9.352527  -0.000000
   52        9.519210  -0.000000
   53        9.620276  -0.000000
   54        9.721106  -0.000000
   55        9.798463  -0.000000
   56       10.263350  -0.000000

 -0.3333333E+00  0.1111111E+00  0.3741998E-15  0.2743484E-02
    1       -5.701114   1.000000
    2       -3.749879   1.000000
    3       -3.708108   1.000000
    4       -3.218711   1.000000
    5       -2.897561   1.000000
    6       -2.688222   1.000000
    7       -2.028205   1.000000
    8       -1.949665   1.000000
    9       -1.177070   1.000000
   10       -0.177004   1.000000
   11       -0.135840   1.000000
   12        0.228567   1.000000
   13        0.338650   1.000000
   14        0.608988   1.000000
   15        1.162534   1.000000
   16        1.987270   1.000000
   17        2.289618   1.000000
   18        2.370795   1.000000
   19        2.411260   1.000000
   20        2.660368   1.000000
   21        2.775656   1.000000
   22        3.026284   1.000000
   23        3.296065   1.000000
   24        3.477221   1.000000
   25        3.832381   1.000000
   26        4.020188   1.000000
   27        4.076866   1.000000
   28        4.164717   1.000000
   29        4.282633   1.000000
   30        4.414212   1.000000
   31        4.604526   1.000000
   32        4.824722   1.000000
   33        4.852344   1.000000
   34        5.220500   1.000000
   35        5.602433   1.000000
   36        5.638629   1.000000
   37        5.665804   1.000000
   38        5.971423   1.000000
   39        6.669646   1.000000
   40        7.026671   1.000000
   41        7.287488   1.000000
   42        7.831612   1.000001
   43        8.087649   1.035457
   44        8.271402   0.073133
   45        8.684039  -0.000000
   46        8.911018  -0.000000
   47        8.978035  -0.000000
   48        9.080781  -0.000000
   49        9.114906  -0.000000
   50        9.208549  -0.000000
   51        9.457679  -0.000000
   52        9.604097  -0.000000
   53        9.867623  -0.000000
   54       10.010010  -0.000000
   55       10.151815  -0.000000
   56       10.339700  -0.000000

 -0.2222222E+00  0.1111111E+00  0.3742001E-15  0.2743484E-02
    1       -5.930344   1.000000
    2       -3.791718   1.000000
    3       -3.159415   1.000000
    4       -2.893227   1.000000
    5       -2.772775   1.000000
    6       -2.589511   1.000000
    7       -2.092220   1.000000
    8       -1.838325   1.000000
    9       -1.638801   1.000000
   10       -0.685590   1.000000
   11       -0.502082   1.000000
   12        0.003431   1.000000
   13        0.005524   1.000000
   14        0.380291   1.000000
   15        0.745450   1.000000
   16        2.297702   1.000000
   17        2.343968   1.000000
   18        2.622063   1.000000
   19        2.628536   1.000000
   20        2.749457   1.000000
   21        2.787674   1.000000
   22        3.252338   1.000000
   23        3.512711   1.000000
   24        3.824416   1.000000
   25        3.947401   1.000000
   26        3.965029   1.000000
   27        4.322644   1.000000
   28        4.334743   1.000000
   29        4.388781   1.000000
   30        4.569547   1.000000
   31        4.694337   1.000000
   32        4.706187   1.000000
   33        5.006160   1.000000
   34        5.419047   1.000000
   35        5.462530   1.000000
   36        5.618261   1.000000
   37        5.718526   1.000000
   38        5.901350   1.000000
   39        6.139141   1.000000
   40        7.201296   1.000000
   41        7.696962   1.000000
   42        7.725002   1.000000
   43        8.039307   1.018312
   44        8.120396   1.010436
   45        8.286296   0.019606
   46        8.630708  -0.000000
   47        9.074624  -0.000000
   48        9.175487  -0.000000
   49        9.226606  -0.000000
   50        9.291555  -0.000000
   51        9.372725  -0.000000
   52        9.592158  -0.000000
   53        9.718598  -0.000000
   54       10.005379  -0.000000
   55       10.332464  -0.000000
   56       10.501039  -0.000000

 -0.1111111E+00  0.1111111E+00  0.3742002E-15  0.2743484E-02
    1       -6.047501   1.000000
    2       -3.830054   1.000000
    3       -2.755688   1.000000
    4       -2.731014   1.000000
    5       -2.534734   1.000000
    6       -2.298581   1.000000
    7       -2.217428   1.000000
    8       -2.071954   1.000000
    9       -1.462038   1.000000
   10       -1.367043   1.000000
   11       -1.005378   1.000000
   12       -0.151058   1.000000
   13        0.024335   1.000000
   14        0.271878   1.000000
   15        0.561395   1.000000
   16        2.282707   1.000000
   17        2.285055   1.000000
   18        2.600194   1.000000
   19        2.733112   1.000000
   20        2.801627   1.000000
   21        3.177780   1.000000
   22        3.517801   1.000000
   23        3.593218   1.000000
   24        3.879091   1.000000
   25        4.124769   1.000000
   26        4.311719   1.000000
   27        4.379861   1.000000
   28        4.402488   1.000000
   29        4.440664   1.000000
   30        4.501533   1.000000
   31        4.693668   1.000000
   32        4.803326   1.000000
   33        4.854706   1.000000
   34        4.981765   1.000000
   35        5.439086   1.000000
   36        5.756129   1.000000
   37        5.902140   1.000000
   38        6.086897   1.000000
   39        6.178182   1.000000
   40        7.344248   1.000000
   41        7.603534   1.000000
   42        7.681613   1.000000
   43        7.703149   1.000000
   44        7.957838   1.001058
   45        8.330818  -0.035422
   46        8.370492  -0.022768
   47        9.056337  -0.000000
   48        9.249793  -0.000000
   49        9.328980  -0.000000
   50        9.382632  -0.000000
   51        9.417713  -0.000000
   52        9.612346  -0.000000
   53        9.816549  -0.000000
   54        9.964676  -0.000000
   55       10.431898  -0.000000
   56       10.752911  -0.000000

  0.3742015E-15  0.2222222E+00  0.3742003E-15  0.2743484E-02
    1       -5.874567   1.000000
    2       -3.757344   1.000000
    3       -3.437046   1.000000
    4       -2.834578   1.000000
    5       -2.611860   1.000000
    6       -2.601747   1.000000
    7       -2.416735   1.000000
    8       -2.095125   1.000000
    9       -0.986002   1.000000
   10       -0.893137   1.000000
   11       -0.176440   1.000000
   12        0.061117   1.000000
   13        0.078993   1.000000
   14        0.319044   1.000000
   15        0.896966   1.000000
   16        2.288531   1.000000
   17        2.330516   1.000000
   18        2.512909   1.000000
   19        2.638059   1.000000
   20        2.731113   1.000000
   21        2.839748   1.000000
   22        3.079017   1.000000
   23        3.371123   1.000000
   24        3.762511   1.000000
   25        3.955974   1.000000
   26        4.151843   1.000000
   27        4.242258   1.000000
   28        4.243636   1.000000
   29        4.287062   1.000000
   30        4.340584   1.000000
   31        4.620787   1.000000
   32        4.737139   1.000000
   33        5.090108   1.000000
   34        5.133877   1.000000
   35        5.436090   1.000000
   36        5.808588   1.000000
   37        5.869359   1.000000
   38        6.009954   1.000000
   39        6.169564   1.000000
   40        7.241443   1.000000
   41        7.598119   1.000000
   42        7.663736   1.000000
   43        7.990442   1.004065
   44        8.223053   0.389317
   45        8.494463  -0.000215
   46        8.678577  -0.000000
   47        9.084681  -0.000000
   48        9.107972  -0.000000
   49        9.131949  -0.000000
   50        9.191393  -0.000000
   51        9.330908  -0.000000
   52        9.715587  -0.000000
   53        9.773098  -0.000000
   54       10.084355  -0.000000
   55       10.194342  -0.000000
   56       10.605024  -0.000000

  0.1111111E+00  0.2222222E+00  0.3742004E-15  0.2743484E-02
    1       -5.705292   1.000000
    2       -3.738514   1.000000
    3       -3.679643   1.000000
    4       -3.221922   1.000000
    5       -2.955558   1.000000
    6       -2.677180   1.000000
    7       -2.019351   1.000000
    8       -1.953409   1.000000
    9       -1.178600   1.000000
   10       -0.209674   1.000000
   11       -0.148778   1.000000
   12        0.236878   1.000000
   13        0.346143   1.000000
   14        0.717537   1.000000
   15        1.129080   1.000000
   16        2.002547   1.000000
   17        2.247973   1.000000
   18        2.337121   1.000000
   19        2.352951   1.000000
   20        2.796184   1.000000
   21        2.894048   1.000000
   22        2.961428   1.000000
   23        3.367839   1.000000
   24        3.434745   1.000000
   25        3.849607   1.000000
   26        4.016606   1.000000
   27        4.082325   1.000000
   28        4.121401   1.000000
   29        4.172723   1.000000
   30        4.241070   1.000000
   31        4.603902   1.000000
   32        4.788909   1.000000
   33        4.791172   1.000000