   55   55   85    1
  0.1298907E+02  0.6078000E-09  0.6078000E-09  0.2233000E-08  0.5000000E-15
   1.0000000000000000E-004
  CAR 
 Name                                    
    203     41    132

  0.3742002E-15  0.3742002E-15  0.1262379E-14  0.1234568E-01
    1      -11.216467   1.000000
    2      -10.643249   1.000000
    3       -9.826509   1.000000
    4       -8.459161   1.000000
    5       -8.327465   1.000000
    6       -8.326500   1.000000
    7       -7.949785   1.000000
    8       -7.884647   1.000000
    9       -7.742597   1.000000
   10       -7.618736   1.000000
   11       -7.470742   1.000000
   12       -7.416905   1.000000
   13       -7.412854   1.000000
   14       -7.405728   1.000000
   15       -7.080123   1.000000
   16       -7.065573   1.000000
   17       -7.034535   1.000000
   18       -6.828255   1.000000
   19       -6.767234   1.000000
   20       -6.537405   1.000000
   21       -6.168485   1.000000
   22       -5.911479   1.000000
   23       -5.868188   1.000000
   24       -5.628378   1.000000
   25       -5.584980   1.000000
   26       -5.553524   1.000000
   27       -5.526799   1.000000
   28       -5.503803   1.000000
   29       -5.009694   1.000000
   30       -4.970852   1.000000
   31       -4.420643   1.000000
   32       -4.325880   1.000000
   33       -4.262096   1.000000
   34       -4.230839   1.000000
   35       -4.009299   1.000000
   36       -3.987462   1.000000
   37       -3.748137   1.000000
   38       -3.272622   1.000000
   39       -3.098212   1.000000
   40       -2.930274   1.000000
   41       -2.761740   1.000000
   42       -2.695138   1.000000
   43       -2.563876   1.000000
   44       -2.402819   1.000000
   45       -2.338510   1.000000
   46       -2.259258   1.000000
   47       -2.176332   1.000000
   48       -1.994579   1.000000
   49       -1.966233   1.000000
   50       -1.885184   1.000000
   51       -1.720507   1.000000
   52       -1.703544   1.000000
   53       -1.663533   1.000000
   54       -1.560818   1.000000
   55       -1.551328   1.000000
   56       -1.504387   1.000000
   57       -1.464978   1.000000
   58       -1.395282   1.000000
   59       -1.333039   1.000000
   60       -1.247653   1.000000
   61       -1.235128   1.000000
   62       -1.191169   1.000000
   63       -1.031642   1.000000
   64       -1.013711   1.000000
   65       -0.836739   1.000000
   66       -0.822791   1.000000
   67       -0.729072   1.000000
   68       -0.642959   1.000000
   69       -0.573561   1.000000
   70       -0.542612   1.000000
   71       -0.497458   1.000000
   72       -0.435953   1.000000
   73       -0.353194   1.000000
   74       -0.112258   1.000000
   75        0.065877   1.000000
   76        0.123903   1.000000
   77        0.136382   1.000000
   78        0.326101   1.000000
   79        0.425259   1.000000
   80        0.589061   1.000000
   81        0.659166   1.000000
   82        0.732468   1.000000
   83        0.908303   1.000000
   84        1.327810   1.000000
   85        1.356054   1.000000
   86        1.523166   1.000000
   87        1.573432   1.000000
   88        1.638007   1.000000
   89        1.685198   1.000000
   90        1.755813   1.000000
   91        1.868970   1.000000
   92        1.881213   1.000000
   93        1.922258   1.000000
   94        1.942652   1.000000
   95        1.960660   1.000000
   96        2.172515   1.000000
   97        2.420235   1.000026
   98        2.468180   1.000105
   99        2.860241   1.026931
  100        2.953862   0.896452
  101        3.031471   0.635307
  102        3.228559   0.004250
  103        3.366455  -0.027082
  104        3.466770  -0.007632
  105        3.492751  -0.004882
  106        3.568505  -0.001045
  107        3.674522  -0.000069
  108        3.819615  -0.000001
  109        3.841040  -0.000000
  110        3.846557  -0.000000
  111        3.926561  -0.000000
  112        3.988719  -0.000000
  113        4.126535  -0.000000
  114        4.135695  -0.000000
  115        4.172711  -0.000000
  116        4.225611  -0.000000
  117        4.234366  -0.000000
  118        4.338915  -0.000000
  119        4.368381  -0.000000
  120        4.459199  -0.000000
  121        4.479444  -0.000000
  122        4.542246  -0.000000
  123        4.595428  -0.000000
  124        4.615717  -0.000000
  125        4.664322  -0.000000
  126        4.691048  -0.000000
  127        4.693940  -0.000000
  128        4.743471  -0.000000
  129        5.148242  -0.000000
  130        5.250607  -0.000000
  131        5.437408  -0.000000
  132        5.439785  -0.000000

  0.1111111E+00  0.3687552E-15  0.1262379E-14  0.2469136E-01
    1      -11.158852   1.000000
    2      -10.591278   1.000000
    3       -9.787946   1.000000
    4       -8.424444   1.000000
    5       -8.358052   1.000000
    6       -8.295295   1.000000
    7       -8.066368   1.000000
    8       -8.024611   1.000000
    9       -7.920682   1.000000
   10       -7.811043   1.000000
   11       -7.709049   1.000000
   12       -7.656761   1.000000
   13       -7.534867   1.000000
   14       -7.497903   1.000000
   15       -6.909176   1.000000
   16       -6.844061   1.000000
   17       -6.691997   1.000000
   18       -6.652559   1.000000
   19       -6.537831   1.000000
   20       -6.398208   1.000000
   21       -6.174103   1.000000
   22       -5.930284   1.000000
   23       -5.865674   1.000000
   24       -5.681706   1.000000
   25       -5.583725   1.000000
   26       -5.562041   1.000000
   27       -5.460051   1.000000
   28       -5.376457   1.000000
   29       -5.024487   1.000000
   30       -4.941669   1.000000
   31       -4.370890   1.000000
   32       -4.253047   1.000000
   33       -4.205670   1.000000
   34       -4.047637   1.000000
   35       -3.953794   1.000000
   36       -3.815612   1.000000
   37       -3.637286   1.000000
   38       -3.251290   1.000000
   39       -3.087011   1.000000
   40       -2.901275   1.000000
   41       -2.810543   1.000000
   42       -2.694885   1.000000
   43       -2.621873   1.000000
   44       -2.399839   1.000000
   45       -2.356825   1.000000
   46       -2.303105   1.000000
   47       -2.230728   1.000000
   48       -2.132495   1.000000
   49       -2.069432   1.000000
   50       -1.968422   1.000000
   51       -1.815008   1.000000
   52       -1.715052   1.000000
   53       -1.632456   1.000000
   54       -1.596262   1.000000
   55       -1.535553   1.000000
   56       -1.469853   1.000000
   57       -1.426631   1.000000
   58       -1.354299   1.000000
   59       -1.297402   1.000000
   60       -1.241552   1.000000
   61       -1.216661   1.000000
   62       -1.193615   1.000000
   63       -1.087009   1.000000
   64       -1.007725   1.000000
   65       -0.892675   1.000000
   66       -0.870397   1.000000
   67       -0.799393   1.000000
   68       -0.751927   1.000000
   69       -0.668990   1.000000
   70       -0.603210   1.000000
   71       -0.525800   1.000000
   72       -0.386375   1.000000
   73       -0.309505   1.000000
   74       -0.139762   1.000000
   75       -0.004521   1.000000
   76        0.011840   1.000000
   77        0.105504   1.000000
   78        0.303276   1.000000
   79        0.338500   1.000000
   80        0.382985   1.000000
   81        0.607987   1.000000
   82        0.677625   1.000000
   83        0.875280   1.000000
   84        1.176726   1.000000
   85        1.233118   1.000000
   86        1.352734   1.000000
   87        1.480371   1.000000
   88        1.577588   1.000000
   89        1.710360   1.000000
   90        1.774452   1.000000
   91        1.803573   1.000000
   92        1.856665   1.000000
   93        1.878235   1.000000
   94        1.916335   1.000000
   95        2.056329   1.000000
   96        2.149678   1.000000
   97        2.637820   1.005128
   98        2.739783   1.022113
   99        2.900356   0.994464
  100        2.926625   0.955057
  101        3.052510   0.548180
  102        3.099027   0.353943
  103        3.265825  -0.026089
  104        3.367362  -0.026877
  105        3.425175  -0.014191
  106        3.736347  -0.000011
  107        3.763709  -0.000004
  108        3.821271  -0.000001
  109        3.872186  -0.000000
  110        3.907729  -0.000000
  111        3.934822  -0.000000
  112        3.976835  -0.000000
  113        4.053482  -0.000000
  114        4.137032  -0.000000
  115        4.162473  -0.000000
  116        4.191780  -0.000000
  117        4.252685  -0.000000
  118        4.271266  -0.000000
  119        4.313475  -0.000000
  120        4.390516  -0.000000
  121        4.469576  -0.000000
  122        4.482095  -0.000000
  123        4.523778  -0.000000
  124        4.604409  -0.000000
  125        4.616672  -0.000000
  126        4.651288  -0.000000
  127        4.684943  -0.000000
  128        4.779257  -0.000000
  129        5.093988  -0.000000
  130        5.197545  -0.000000
  131        5.277059  -0.000000
  132        5.371426  -0.000000

  0.2222222E+00  0.3503827E-15  0.1262379E-14  0.2469136E-01
    1      -10.988189   1.000000
    2      -10.438005   1.000000
    3       -9.676076   1.000000
    4       -8.681505   1.000000
    5       -8.518255   1.000000
    6       -8.427316   1.000000
    7       -8.299685   1.000000
    8       -8.192586   1.000000
    9       -8.023801   1.000000
   10       -7.908329   1.000000
   11       -7.863983   1.000000
   12       -7.836907   1.000000
   13       -7.733850   1.000000
   14       -7.680946   1.000000
   15       -6.708651   1.000000
   16       -6.697111   1.000000
   17       -6.480680   1.000000
   18       -6.442302   1.000000
   19       -6.384715   1.000000
   20       -6.283017   1.000000
   21       -5.947787   1.000000
   22       -5.825662   1.000000
   23       -5.632465   1.000000
   24       -5.583366   1.000000
   25       -5.557005   1.000000
   26       -5.428456   1.000000
   27       -5.300006   1.000000
   28       -5.152848   1.000000
   29       -4.913382   1.000000
   30       -4.746332   1.000000
   31       -4.245927   1.000000
   32       -4.089280   1.000000
   33       -4.065263   1.000000
   34       -3.801305   1.000000
   35       -3.624710   1.000000
   36       -3.568188   1.000000
   37       -3.279726   1.000000
   38       -3.203319   1.000000
   39       -3.084109   1.000000
   40       -3.005614   1.000000
   41       -2.928012   1.000000
   42       -2.832478   1.000000
   43       -2.794863   1.000000
   44       -2.694988   1.000000
   45       -2.508658   1.000000
   46       -2.320957   1.000000
   47       -2.294671   1.000000
   48       -2.188107   1.000000
   49       -2.078781   1.000000
   50       -1.931640   1.000000
   51       -1.856230   1.000000
   52       -1.753888   1.000000
   53       -1.672253   1.000000
   54       -1.620158   1.000000
   55       -1.584779   1.000000
   56       -1.527663   1.000000
   57       -1.508653   1.000000
   58       -1.394134   1.000000
   59       -1.333480   1.000000
   60       -1.274065   1.000000
   61       -1.230724   1.000000
   62       -1.201899   1.000000
   63       -1.180844   1.000000
   64       -1.123531   1.000000
   65       -1.034881   1.000000
   66       -0.988938   1.000000
   67       -0.896781   1.000000
   68       -0.863348   1.000000
   69       -0.786078   1.000000
   70       -0.694370   1.000000
   71       -0.639759   1.000000
   72       -0.519003   1.000000
   73       -0.415114   1.000000
   74       -0.309924   1.000000
   75       -0.270260   1.000000
   76       -0.165698   1.000000
   77        0.114038   1.000000
   78        0.196332   1.000000
   79        0.277811   1.000000
   80        0.386297   1.000000
   81        0.470365   1.000000
   82        0.663298   1.000000
   83        0.791638   1.000000
   84        0.860129   1.000000
   85        1.040651   1.000000
   86        1.215378   1.000000
   87        1.293678   1.000000
   88        1.534469   1.000000
   89        1.571487   1.000000
   90        1.653448   1.000000
   91        1.737332   1.000000
   92        1.747082   1.000000
   93        1.841116   1.000000
   94        1.931738   1.000000
   95        2.074685   1.000000
   96        2.161706   1.000000
   97        2.558383   1.001022
   98        2.649318   1.006270
   99        2.854538   1.029334
  100        3.017333   0.691307
  101        3.131018   0.233012
  102        3.262263  -0.024248
  103        3.338514  -0.032713
  104        3.476877  -0.006448
  105        3.539338  -0.001970
  106        3.626319  -0.000257
  107        3.666281  -0.000087
  108        3.732961  -0.000012
  109        3.752316  -0.000006
  110        3.762878  -0.000005
  111        3.871839  -0.000000
  112        3.936420  -0.000000
  113        3.983909  -0.000000
  114        4.014520  -0.000000
  115        4.070856  -0.000000
  116        4.091475  -0.000000
  117        4.171817  -0.000000
  118        4.217796  -0.000000
  119        4.289980  -0.000000
  120        4.345429  -0.000000
  121        4.395837  -0.000000
  122        4.451319  -0.000000
  123        4.509231  -0.000000
  124        4.570604  -0.000000
  125        4.606967  -0.000000
  126        4.764372  -0.000000
  127        4.793842  -0.000000
  128        4.831243  -0.000000
  129        4.874010  -0.000000
  130        5.047711  -0.000000
  131        5.119588  -0.000000
  132        5.265561  -0.000000

  0.3333333E+00  0.3767071E-15  0.1262379E-14  0.2469136E-01
    1      -10.711703   1.000000
    2      -10.191897   1.000000
    3       -9.504849   1.000000
    4       -9.281121   1.000000
    5       -8.960472   1.000000
    6       -8.679785   1.000000
    7       -8.152215   1.000000
    8       -8.128523   1.000000
    9       -8.058495   1.000000
   10       -8.018938   1.000000
   11       -7.953309   1.000000
   12       -7.889041   1.000000
   13       -7.839418   1.000000
   14       -7.767023   1.000000
   15       -7.056412   1.000000
   16       -6.965928   1.000000
   17       -6.271637   1.000000
   18       -6.242189   1.000000
   19       -6.171379   1.000000
   20       -5.952361   1.000000
   21       -5.739227   1.000000
   22       -5.674643   1.000000
   23       -5.572826   1.000000
   24       -5.497876   1.000000
   25       -5.349220   1.000000
   26       -5.289687   1.000000
   27       -4.826269   1.000000
   28       -4.718148   1.000000
   29       -4.446012   1.000000
   30       -4.350476   1.000000
   31       -4.025317   1.000000
   32       -3.893442   1.000000
   33       -3.803338   1.000000
   34       -3.612878   1.000000
   35       -3.491021   1.000000
   36       -3.425895   1.000000
   37       -3.361724   1.000000
   38       -3.321467   1.000000
   39       -3.260042   1.000000
   40       -3.212564   1.000000
   41       -3.128592   1.000000
   42       -3.049732   1.000000
   43       -2.805802   1.000000
   44       -2.590127   1.000000
   45       -2.477715   1.000000
   46       -2.394444   1.000000
   47       -2.236266   1.000000
   48       -2.167396   1.000000
   49       -2.123893   1.000000
   50       -2.019832   1.000000
   51       -1.950519   1.000000
   52       -1.901637   1.000000
   53       -1.856273   1.000000
   54       -1.772058   1.000000
   55       -1.709686   1.000000
   56       -1.606578   1.000000
   57       -1.558598   1.000000
   58       -1.478693   1.000000
   59       -1.446226   1.000000
   60       -1.397855   1.000000
   61       -1.380187   1.000000
   62       -1.310471   1.000000
   63       -1.249242   1.000000
   64       -1.214952   1.000000
   65       -1.147344   1.000000
   66       -1.065696   1.000000
   67       -0.985739   1.000000
   68       -0.896942   1.000000
   69       -0.871420   1.000000
   70       -0.831089   1.000000
   71       -0.768479   1.000000
   72       -0.640770   1.000000
   73       -0.553945   1.000000
   74       -0.446171   1.000000
   75       -0.300290   1.000000
   76       -0.258043   1.000000
   77       -0.202710   1.000000
   78        0.057980   1.000000
   79        0.223909   1.000000
   80        0.366842   1.000000
   81        0.588331   1.000000
   82        0.617893   1.000000
   83        0.755520   1.000000
   84        0.821512   1.000000
   85        0.976577   1.000000
   86        1.190568   1.000000
   87        1.225944   1.000000
   88        1.380513   1.000000
   89        1.424412   1.000000
   90        1.530380   1.000000
   91        1.614470   1.000000
   92        1.707383   1.000000
   93        1.766318   1.000000
   94        1.895458   1.000000
   95        1.960231   1.000000
   96        2.313253   1.000001
   97        2.367657   1.000005
   98        2.438732   1.000045
   99        2.668529   1.008607
  100        2.952739   0.899237
  101        3.081951   0.424031
  102        3.144231   0.188638
  103        3.272220  -0.028917
  104        3.294955  -0.034640
  105        3.332990  -0.033565
  106        3.420859  -0.015026
  107        3.509367  -0.003586
  108        3.616252  -0.000333
  109        3.690027  -0.000044
  110        3.738898  -0.000010
  111        3.764855  -0.000004
  112        3.829853  -0.000000
  113        3.844789  -0.000000
  114        3.969576  -0.000000
  115        4.005867  -0.000000
  116        4.117694  -0.000000
  117        4.142819  -0.000000
  118        4.178513  -0.000000
  119        4.246182  -0.000000
  120        4.304984  -0.000000
  121        4.380262  -0.000000
  122        4.465366  -0.000000
  123        4.568983  -0.000000
  124        4.621823  -0.000000
  125        4.684991  -0.000000
  126        4.723572  -0.000000
  127        4.854722  -0.000000
  128        4.881636  -0.000000
  129        4.938470  -0.000000
  130        5.006230  -0.000000
  131        5.102923  -0.000000
  132        5.263527  -0.000000

  0.4444444E+00  0.3698634E-15  0.1262379E-14  0.2469136E-01
    1      -10.353168   1.000000
    2       -9.888289   1.000000
    3       -9.791155   1.000000
    4       -9.448130   1.000000
    5       -9.244674   1.000000
    6       -8.938697   1.000000
    7       -8.177725   1.000000
    8       -8.129180   1.000000
    9       -8.061925   1.000000
   10       -7.970806   1.000000
   11       -7.913394   1.000000
   12       -7.890666   1.000000
   13       -7.801582   1.000000
   14       -7.746358   1.000000
   15       -7.427629   1.000000
   16       -7.204357   1.000000
   17       -6.217318   1.000000
   18       -6.173566   1.000000
   19       -6.065765   1.000000
   20       -5.693791   1.000000
   21       -5.669914   1.000000
   22       -5.466580   1.000000
   23       -5.438680   1.000000
   24       -5.346663   1.000000
   25       -5.291946   1.000000
   26       -5.235344   1.000000
   27       -4.249046   1.000000
   28       -4.153846   1.000000
   29       -4.000085   1.000000
   30       -3.973880   1.000000
   31       -3.881419   1.000000
   32       -3.856138   1.000000
   33       -3.732218   1.000000
   34       -3.694235   1.000000
   35       -3.586612   1.000000
   36       -3.534786   1.000000
   37       -3.425597   1.000000
   38       -3.384468   1.000000
   39       -3.349618   1.000000
   40       -3.258719   1.000000
   41       -3.189644   1.000000
   42       -3.070852   1.000000
   43       -3.037248   1.000000
   44       -2.936143   1.000000
   45       -2.535453   1.000000
   46       -2.486444   1.000000
   47       -2.318110   1.000000
   48       -2.212535   1.000000
   49       -2.081704   1.000000
   50       -2.041124   1.000000
   51       -1.947945   1.000000
   52       -1.887050   1.000000
   53       -1.873200   1.000000
   54       -1.801048   1.000000
   55       -1.720400   1.000000
   56       -1.677250   1.000000
   57       -1.625244   1.000000
   58       -1.568063   1.000000
   59       -1.523069   1.000000
   60       -1.465451   1.000000
   61       -1.452508   1.000000
   62       -1.411995   1.000000
   63       -1.341147   1.000000
   64       -1.317985   1.000000
   65       -1.167317   1.000000
   66       -1.112009   1.000000
   67       -1.071227   1.000000
   68       -0.984097   1.000000
   69       -0.949599   1.000000
   70       -0.868880   1.000000
   71       -0.771325   1.000000
   72       -0.695774   1.000000
   73       -0.610921   1.000000
   74       -0.484709   1.000000
   75       -0.369673   1.000000
   76       -0.313689   1.000000
   77       -0.269040   1.000000
   78       -0.174996   1.000000
   79        0.272989   1.000000
   80        0.432578   1.000000
   81        0.482327   1.000000
   82        0.553974   1.000000
   83        0.773628   1.000000
   84        0.918307   1.000000
   85        0.983374   1.000000
   86        1.155797   1.000000
   87        1.198468   1.000000
   88        1.287325   1.000000
   89        1.396436   1.000000
   90        1.472517   1.000000
   91        1.615355   1.000000
   92        1.681447   1.000000
   93        1.716324   1.000000
   94        1.958910   1.000000
   95        2.067205   1.000000
   96        2.231313   1.000000
   97        2.373976   1.000006
   98        2.443506   1.000052
   99        2.516798   1.000379
  100        2.599403   1.002465
  101        2.624542   1.004023
  102        2.926596   0.955110
  103        3.004851   0.738254
  104        3.213089   0.025128
  105        3.257521  -0.021483
  106        3.432675  -0.012806
  107        3.460054  -0.008505
  108        3.513221  -0.003331
  109        3.560278  -0.001256
  110        3.624765  -0.000268
  111        3.677730  -0.000063
  112        3.702794  -0.000030
  113        3.767168  -0.000004
  114        3.886567  -0.000000
  115        3.951058  -0.000000
  116        4.028097  -0.000000
  117        4.092310  -0.000000
  118        4.147159  -0.000000
  119        4.260591  -0.000000
  120        4.291520  -0.000000
  121        4.414709  -0.000000
  122        4.542926  -0.000000
  123        4.615388  -0.000000
  124        4.689941  -0.000000
  125        4.765568  -0.000000
  126        4.804942  -0.000000
  127        4.930160  -0.000000
  128        5.002249  -0.000000
  129        5.088608  -0.000000
  130        5.114807  -0.000000
  131        5.280071  -0.000000
  132        5.371123  -0.000000

  0.3742002E-15  0.1111111E+00  0.1262379E-14  0.2469136E-01
    1      -11.158852   1.000000
    2      -10.591277   1.000000
    3       -9.787944   1.000000
    4       -8.424446   1.000000
    5       -8.358047   1.000000
    6       -8.295295   1.000000
    7       -8.066397   1.000000
    8       -8.024631   1.000000
    9       -7.920694   1.000000
   10       -7.811018   1.000000
   11       -7.709020   1.000000
   12       -7.656816   1.000000
   13       -7.534840   1.000000
   14       -7.497858   1.000000
   15       -6.909223   1.000000
   16       -6.843996   1.000000
   17       -6.691915   1.000000
   18       -6.652618   1.000000
   19       -6.537880   1.000000
   20       -6.398302   1.000000
   21       -6.174023   1.000000
   22       -5.930327   1.000000
   23       -5.865463   1.000000
   24       -5.681752   1.000000
   25       -5.583690   1.000000
   26       -5.562010   1.000000
   27       -5.460134   1.000000
   28       -5.376510   1.000000
   29       -5.024723   1.000000
   30       -4.941629   1.000000
   31       -4.370767   1.000000
   32       -4.253013   1.000000
   33       -4.205679   1.000000
   34       -4.047671   1.000000
   35       -3.953688   1.000000
   36       -3.815418   1.000000
   37       -3.637535   1.000000
   38       -3.251287   1.000000
   39       -3.086993   1.000000
   40       -2.901280   1.000000
   41       -2.810526   1.000000
   42       -2.694924   1.000000
   43       -2.621816   1.000000
   44       -2.399706   1.000000
   45       -2.356866   1.000000
   46       -2.303122   1.000000
   47       -2.230553   1.000000
   48       -2.132960   1.000000
   49       -2.069219   1.000000
   50       -1.968370   1.000000
   51       -1.815209   1.000000
   52       -1.714709   1.000000
   53       -1.632409   1.000000
   54       -1.596347   1.000000
   55       -1.535526   1.000000
   56       -1.469624   1.000000
   57       -1.426735   1.000000
   58       -1.354424   1.000000
   59       -1.297296   1.000000
   60       -1.241602   1.000000
   61       -1.216715   1.000000
   62       -1.193729   1.000000
   63       -1.087206   1.000000
   64       -1.008012   1.000000
   65       -0.892371   1.000000
   66       -0.870591   1.000000
   67       -0.799022   1.000000
   68       -0.752073   1.000000
   69       -0.668901   1.000000
   70       -0.603274   1.000000
   71       -0.526025   1.000000
   72       -0.386712   1.000000
   73       -0.309236   1.000000
   74       -0.139717   1.000000
   75       -0.004921   1.000000
   76        0.012111   1.000000
   77        0.105448   1.000000
   78        0.303567   1.000000
   79        0.338088   1.000000
   80        0.383701   1.000000
   81        0.607582   1.000000
   82        0.677772   1.000000
   83        0.875193   1.000000
   84        1.176539   1.000000
   85        1.233442   1.000000
   86        1.352613   1.000000
   87        1.480479   1.000000
   88        1.576764   1.000000
   89        1.710678   1.000000
   90        1.774372   1.000000
   91        1.803615   1.000000
   92        1.856657   1.000000
   93        1.878712   1.000000
   94        1.916438   1.000000
   95        2.056194   1.000000
   96        2.149862   1.000000
   97        2.637592   1.005107
   98        2.740107   1.022187
   99        2.900481   0.994313
  100        2.926815   0.954712
  101        3.052223   0.549387
  102        3.099071   0.353769
  103        3.266046  -0.026197
  104        3.367203  -0.026913
  105        3.425081  -0.014209
  106        3.737459  -0.000010
  107        3.762959  -0.000004
  108        3.821082  -0.000001
  109        3.871294  -0.000000
  110        3.907735  -0.000000
  111        3.934993  -0.000000
  112        3.977584  -0.000000
  113        4.053290  -0.000000
  114        4.136965  -0.000000
  115        4.162362  -0.000000
  116        4.191541  -0.000000
  117        4.252859  -0.000000
  118        4.271149  -0.000000
  119        4.313707  -0.000000
  120        4.389836  -0.000000
  121        4.470023  -0.000000
  122        4.482352  -0.000000
  123        4.523548  -0.000000
  124        4.604166  -0.000000
  125        4.616727  -0.000000
  126        4.651645  -0.000000
  127        4.685677  -0.000000
  128        4.778724  -0.000000
  129        5.093771  -0.000000
  130        5.197687  -0.000000
  131        5.276635  -0.000000
  132        5.371879  -0.000000

  0.1111111E+00  0.1111111E+00  0.1262379E-14  0.2469136E-01
    1      -11.044456   1.000000
    2      -10.488738   1.000000
    3       -9.713220   1.000000
    4       -8.424391   1.000000
    5       -8.408842   1.000000
    6       -8.375093   1.000000
    7       -8.286141   1.000000
    8       -8.249536   1.000000
    9       -8.112677   1.000000
   10       -8.038688   1.000000
   11       -7.981306   1.000000
   12       -7.819379   1.000000
   13       -7.531181   1.000000
   14       -7.122999   1.000000
   15       -7.083855   1.000000
   16       -6.649908   1.000000
   17       -6.597277   1.000000
   18       -6.454418   1.000000
   19       -6.417097   1.000000
   20       -6.397638   1.000000
   21       -5.913851   1.000000
   22       -5.896123   1.000000
   23       -5.804830   1.000000
   24       -5.568991   1.000000
   25       -5.562494   1.000000
   26       -5.439468   1.000000
   27       -5.293880   1.000000
   28       -5.164328   1.000000
   29       -4.933508   1.000000
   30       -4.836067   1.000000
   31       -4.524944   1.000000
   32       -4.360085   1.000000
   33       -3.830265   1.000000
   34       -3.796998   1.000000
   35       -3.707080   1.000000
   36       -3.601592   1.000000
   37       -3.451787   1.000000
   38       -3.245772   1.000000
   39       -3.110073   1.000000
   40       -2.980909   1.000000
   41       -2.886779   1.000000
   42       -2.798258   1.000000
   43       -2.704024   1.000000
   44       -2.539656   1.000000
   45       -2.427530   1.000000
   46       -2.284204   1.000000
   47       -2.255962   1.000000
   48       -2.155447   1.000000
   49       -2.064338   1.000000
   50       -2.005674   1.000000
   51       -1.932373   1.000000
   52       -1.764564   1.000000
   53       -1.746140   1.000000
   54       -1.642666   1.000000
   55       -1.529276   1.000000
   56       -1.499058   1.000000
   57       -1.406041   1.000000
   58       -1.387511   1.000000
   59       -1.319359   1.000000
   60       -1.268574   1.000000
   61       -1.219157   1.000000
   62       -1.146181   1.000000
   63       -1.055137   1.000000
   64       -1.054330   1.000000
   65       -1.028255   1.000000
   66       -0.947834   1.000000
   67       -0.895827   1.000000
   68       -0.860783   1.000000
   69       -0.697986   1.000000
   70       -0.695705   1.000000
   71       -0.586486   1.000000
   72       -0.454417   1.000000
   73       -0.357803   1.000000
   74       -0.295437   1.000000
   75       -0.263703   1.000000
   76       -0.151298   1.000000
   77        0.098195   1.000000
   78        0.281673   1.000000
   79        0.303613   1.000000
   80        0.396749   1.000000
   81        0.560807   1.000000
   82        0.569455   1.000000
   83        0.733438   1.000000
   84        0.811353   1.000000
   85        1.167773   1.000000
   86        1.263773   1.000000
   87        1.446445   1.000000
   88        1.579084   1.000000
   89        1.616490   1.000000
   90        1.689196   1.000000
   91        1.690999   1.000000
   92        1.807916   1.000000
   93        1.821364   1.000000
   94        1.843311   1.000000
   95        2.058812   1.000000
   96        2.226147   1.000000
   97        2.700432   1.013771
   98        2.729454   1.019769