   56   56   85    1
  0.1269428E+02  0.6078000E-09  0.6078000E-09  0.2222000E-08  0.5000000E-15
   1.0000000000000000E-004
  CAR 
 Name                                    
    200     41    132

  0.3742002E-15  0.3742002E-15  0.1262379E-14  0.1234568E-01
    1      -11.184129   1.000000
    2      -10.599657   1.000000
    3       -9.809862   1.000000
    4       -8.871511   1.000000
    5       -8.294163   1.000000
    6       -8.200632   1.000000
    7       -7.822278   1.000000
    8       -7.694625   1.000000
    9       -7.418122   1.000000
   10       -7.408362   1.000000
   11       -7.397070   1.000000
   12       -7.315969   1.000000
   13       -7.295545   1.000000
   14       -7.245026   1.000000
   15       -7.064308   1.000000
   16       -7.044372   1.000000
   17       -6.968648   1.000000
   18       -6.874901   1.000000
   19       -6.639813   1.000000
   20       -6.619945   1.000000
   21       -6.432690   1.000000
   22       -6.111271   1.000000
   23       -5.873145   1.000000
   24       -5.715457   1.000000
   25       -5.579965   1.000000
   26       -5.542443   1.000000
   27       -5.451861   1.000000
   28       -5.377490   1.000000
   29       -5.308186   1.000000
   30       -4.927242   1.000000
   31       -4.655151   1.000000
   32       -4.320325   1.000000
   33       -4.181611   1.000000
   34       -4.144902   1.000000
   35       -4.078577   1.000000
   36       -4.014387   1.000000
   37       -3.779332   1.000000
   38       -3.148408   1.000000
   39       -2.866264   1.000000
   40       -2.797562   1.000000
   41       -2.634083   1.000000
   42       -2.387496   1.000000
   43       -2.377079   1.000000
   44       -2.209923   1.000000
   45       -2.125344   1.000000
   46       -2.083699   1.000000
   47       -2.057980   1.000000
   48       -1.907571   1.000000
   49       -1.688234   1.000000
   50       -1.654862   1.000000
   51       -1.575383   1.000000
   52       -1.553595   1.000000
   53       -1.522083   1.000000
   54       -1.439293   1.000000
   55       -1.322114   1.000000
   56       -1.287876   1.000000
   57       -1.199290   1.000000
   58       -1.135675   1.000000
   59       -1.072876   1.000000
   60       -1.017637   1.000000
   61       -1.005824   1.000000
   62       -0.905096   1.000000
   63       -0.855297   1.000000
   64       -0.772300   1.000000
   65       -0.712434   1.000000
   66       -0.691148   1.000000
   67       -0.529392   1.000000
   68       -0.489590   1.000000
   69       -0.467883   1.000000
   70       -0.373112   1.000000
   71       -0.322349   1.000000
   72       -0.296324   1.000000
   73       -0.262153   1.000000
   74        0.026473   1.000000
   75        0.080562   1.000000
   76        0.167025   1.000000
   77        0.263568   1.000000
   78        0.277726   1.000000
   79        0.372777   1.000000
   80        0.602509   1.000000
   81        0.624967   1.000000
   82        0.814099   1.000000
   83        1.054013   1.000000
   84        1.184628   1.000000
   85        1.384669   1.000000
   86        1.516224   1.000000
   87        1.553467   1.000000
   88        1.685191   1.000000
   89        1.727562   1.000000
   90        1.847006   1.000000
   91        1.915157   1.000000
   92        1.941118   1.000000
   93        1.972733   1.000000
   94        1.978810   1.000000
   95        2.093267   1.000000
   96        2.135013   1.000000
   97        2.430799   1.001874
   98        2.544138   1.013588
   99        2.990430   0.183805
  100        3.071762   0.006022
  101        3.114082  -0.027741
  102        3.272936  -0.013613
  103        3.322509  -0.006345
  104        3.494563  -0.000138
  105        3.530913  -0.000049
  106        3.591612  -0.000008
  107        3.631076  -0.000002
  108        3.867691  -0.000000
  109        3.898917  -0.000000
  110        3.935054  -0.000000
  111        3.947129  -0.000000
  112        3.996961  -0.000000
  113        4.021449  -0.000000
  114        4.044442  -0.000000
  115        4.126718  -0.000000
  116        4.133800  -0.000000
  117        4.166569  -0.000000
  118        4.200209  -0.000000
  119        4.277279  -0.000000
  120        4.331519  -0.000000
  121        4.386082  -0.000000
  122        4.399244  -0.000000
  123        4.409827  -0.000000
  124        4.471636  -0.000000
  125        4.491859  -0.000000
  126        4.613240  -0.000000
  127        4.668871  -0.000000
  128        4.673294  -0.000000
  129        4.806086  -0.000000
  130        4.913848  -0.000000
  131        5.169938  -0.000000
  132        5.255092  -0.000000

  0.1111111E+00  0.3756941E-15  0.1262379E-14  0.2469136E-01
    1      -11.126843   1.000000
    2      -10.547301   1.000000
    3       -9.768211   1.000000
    4       -8.842618   1.000000
    5       -8.264120   1.000000
    6       -8.220953   1.000000
    7       -7.967382   1.000000
    8       -7.962201   1.000000
    9       -7.703859   1.000000
   10       -7.550962   1.000000
   11       -7.521562   1.000000
   12       -7.510397   1.000000
   13       -7.462281   1.000000
   14       -7.445000   1.000000
   15       -6.991103   1.000000
   16       -6.793179   1.000000
   17       -6.733613   1.000000
   18       -6.574310   1.000000
   19       -6.465967   1.000000
   20       -6.419851   1.000000
   21       -6.293207   1.000000
   22       -6.119675   1.000000
   23       -5.804843   1.000000
   24       -5.727114   1.000000
   25       -5.606700   1.000000
   26       -5.449797   1.000000
   27       -5.442687   1.000000
   28       -5.348436   1.000000
   29       -5.269190   1.000000
   30       -4.872490   1.000000
   31       -4.625442   1.000000
   32       -4.146657   1.000000
   33       -4.121611   1.000000
   34       -4.031981   1.000000
   35       -3.946744   1.000000
   36       -3.884709   1.000000
   37       -3.651560   1.000000
   38       -3.136342   1.000000
   39       -2.880164   1.000000
   40       -2.797334   1.000000
   41       -2.658276   1.000000
   42       -2.490674   1.000000
   43       -2.378665   1.000000
   44       -2.304848   1.000000
   45       -2.180847   1.000000
   46       -2.149144   1.000000
   47       -2.079234   1.000000
   48       -2.024470   1.000000
   49       -1.792952   1.000000
   50       -1.672066   1.000000
   51       -1.640937   1.000000
   52       -1.579995   1.000000
   53       -1.522691   1.000000
   54       -1.403456   1.000000
   55       -1.316353   1.000000
   56       -1.292878   1.000000
   57       -1.226078   1.000000
   58       -1.132257   1.000000
   59       -1.085139   1.000000
   60       -1.045881   1.000000
   61       -0.995416   1.000000
   62       -0.977314   1.000000
   63       -0.885563   1.000000
   64       -0.816204   1.000000
   65       -0.740801   1.000000
   66       -0.712806   1.000000
   67       -0.636964   1.000000
   68       -0.564852   1.000000
   69       -0.471553   1.000000
   70       -0.383011   1.000000
   71       -0.351675   1.000000
   72       -0.274916   1.000000
   73       -0.176055   1.000000
   74       -0.115447   1.000000
   75        0.036497   1.000000
   76        0.116943   1.000000
   77        0.218524   1.000000
   78        0.286079   1.000000
   79        0.429863   1.000000
   80        0.511109   1.000000
   81        0.584876   1.000000
   82        0.758382   1.000000
   83        0.871370   1.000000
   84        1.173156   1.000000
   85        1.323234   1.000000
   86        1.410076   1.000000
   87        1.450553   1.000000
   88        1.530539   1.000000
   89        1.640522   1.000000
   90        1.764072   1.000000
   91        1.861910   1.000000
   92        1.870953   1.000000
   93        1.927134   1.000000
   94        1.982512   1.000000
   95        2.130224   1.000000
   96        2.253100   1.000018
   97        2.680643   1.034213
   98        2.741307   0.998802
   99        2.989428   0.187004
  100        3.062881   0.017640
  101        3.115111  -0.028182
  102        3.167306  -0.034795
  103        3.263543  -0.015423
  104        3.348263  -0.004001
  105        3.631779  -0.000002
  106        3.680787  -0.000000
  107        3.796058  -0.000000
  108        3.862823  -0.000000
  109        3.885816  -0.000000
  110        3.905107  -0.000000
  111        3.928703  -0.000000
  112        3.982266  -0.000000
  113        4.013228  -0.000000
  114        4.042673  -0.000000
  115        4.092437  -0.000000
  116        4.129332  -0.000000
  117        4.179027  -0.000000
  118        4.187018  -0.000000
  119        4.246212  -0.000000
  120        4.305644  -0.000000
  121        4.327624  -0.000000
  122        4.348190  -0.000000
  123        4.408045  -0.000000
  124        4.449352  -0.000000
  125        4.471043  -0.000000
  126        4.537298  -0.000000
  127        4.636468  -0.000000
  128        4.674329  -0.000000
  129        4.846851  -0.000000
  130        4.881721  -0.000000
  131        5.112890  -0.000000
  132        5.173000  -0.000000

  0.2222222E+00  0.3503827E-15  0.1262379E-14  0.2469136E-01
    1      -10.956942   1.000000
    2      -10.392550   1.000000
    3       -9.646455   1.000000
    4       -8.765096   1.000000
    5       -8.625287   1.000000
    6       -8.390678   1.000000
    7       -8.329659   1.000000
    8       -8.141948   1.000000
    9       -7.792232   1.000000
   10       -7.783359   1.000000
   11       -7.725837   1.000000
   12       -7.710251   1.000000
   13       -7.643901   1.000000
   14       -7.602251   1.000000
   15       -7.068997   1.000000
   16       -6.720876   1.000000
   17       -6.602393   1.000000
   18       -6.336376   1.000000
   19       -6.290783   1.000000
   20       -6.185966   1.000000
   21       -6.094118   1.000000
   22       -5.760902   1.000000
   23       -5.628580   1.000000
   24       -5.528254   1.000000
   25       -5.460335   1.000000
   26       -5.359451   1.000000
   27       -5.286678   1.000000
   28       -5.250349   1.000000
   29       -4.868506   1.000000
   30       -4.676001   1.000000
   31       -4.502544   1.000000
   32       -3.951044   1.000000
   33       -3.910164   1.000000
   34       -3.844112   1.000000
   35       -3.710518   1.000000
   36       -3.448938   1.000000
   37       -3.263445   1.000000
   38       -3.114571   1.000000
   39       -2.952819   1.000000
   40       -2.916331   1.000000
   41       -2.828501   1.000000
   42       -2.771400   1.000000
   43       -2.666342   1.000000
   44       -2.477764   1.000000
   45       -2.323748   1.000000
   46       -2.183517   1.000000
   47       -2.145591   1.000000
   48       -2.026727   1.000000
   49       -1.846408   1.000000
   50       -1.774960   1.000000
   51       -1.673917   1.000000
   52       -1.606793   1.000000
   53       -1.593729   1.000000
   54       -1.554051   1.000000
   55       -1.459996   1.000000
   56       -1.408461   1.000000
   57       -1.267455   1.000000
   58       -1.181186   1.000000
   59       -1.135926   1.000000
   60       -1.116321   1.000000
   61       -1.069424   1.000000
   62       -1.053559   1.000000
   63       -0.966783   1.000000
   64       -0.922565   1.000000
   65       -0.840222   1.000000
   66       -0.765294   1.000000
   67       -0.730527   1.000000
   68       -0.670520   1.000000
   69       -0.628102   1.000000
   70       -0.508540   1.000000
   71       -0.475754   1.000000
   72       -0.296287   1.000000
   73       -0.239409   1.000000
   74       -0.156563   1.000000
   75       -0.068279   1.000000
   76       -0.009622   1.000000
   77        0.111438   1.000000
   78        0.319463   1.000000
   79        0.391691   1.000000
   80        0.399969   1.000000
   81        0.609057   1.000000
   82        0.725764   1.000000
   83        0.798592   1.000000
   84        0.993835   1.000000
   85        1.061788   1.000000
   86        1.218384   1.000000
   87        1.289401   1.000000
   88        1.406005   1.000000
   89        1.565789   1.000000
   90        1.688042   1.000000
   91        1.753135   1.000000
   92        1.809132   1.000000
   93        1.850752   1.000000
   94        1.901159   1.000000
   95        2.188709   1.000002
   96        2.361249   1.000377
   97        2.617685   1.029620
   98        2.721603   1.017001
   99        2.806085   0.876938
  100        3.070411   0.007677
  101        3.155341  -0.035446
  102        3.365318  -0.002882
  103        3.436947  -0.000601
  104        3.497292  -0.000128
  105        3.616616  -0.000003
  106        3.656863  -0.000001
  107        3.718328  -0.000000
  108        3.737097  -0.000000
  109        3.766905  -0.000000
  110        3.802928  -0.000000
  111        3.856521  -0.000000
  112        3.938864  -0.000000
  113        4.011885  -0.000000
  114        4.031323  -0.000000
  115        4.056227  -0.000000
  116        4.099483  -0.000000
  117        4.125253  -0.000000
  118        4.194219  -0.000000
  119        4.212252  -0.000000
  120        4.246407  -0.000000
  121        4.306954  -0.000000
  122        4.343271  -0.000000
  123        4.406509  -0.000000
  124        4.430625  -0.000000
  125        4.482343  -0.000000
  126        4.562219  -0.000000
  127        4.597276  -0.000000
  128        4.703445  -0.000000
  129        4.743423  -0.000000
  130        4.882223  -0.000000
  131        4.981953  -0.000000
  132        5.118971  -0.000000

  0.3333333E+00  0.3779629E-15  0.1262379E-14  0.2469136E-01
    1      -10.680959   1.000000
    2      -10.142920   1.000000
    3       -9.455119   1.000000
    4       -9.244730   1.000000
    5       -8.885857   1.000000
    6       -8.653304   1.000000
    7       -8.555004   1.000000
    8       -7.980809   1.000000
    9       -7.939770   1.000000
   10       -7.902363   1.000000
   11       -7.884225   1.000000
   12       -7.813317   1.000000
   13       -7.736939   1.000000
   14       -7.647028   1.000000
   15       -7.239569   1.000000
   16       -6.969579   1.000000
   17       -6.906746   1.000000
   18       -6.086326   1.000000
   19       -6.068671   1.000000
   20       -5.886239   1.000000
   21       -5.700799   1.000000
   22       -5.613766   1.000000
   23       -5.475610   1.000000
   24       -5.408174   1.000000
   25       -5.346491   1.000000
   26       -5.208165   1.000000
   27       -4.735755   1.000000
   28       -4.619747   1.000000
   29       -4.393284   1.000000
   30       -4.372836   1.000000
   31       -4.144339   1.000000
   32       -3.704599   1.000000
   33       -3.638874   1.000000
   34       -3.619780   1.000000
   35       -3.458865   1.000000
   36       -3.385807   1.000000
   37       -3.310340   1.000000
   38       -3.251242   1.000000
   39       -3.208023   1.000000
   40       -3.146496   1.000000
   41       -3.038031   1.000000
   42       -2.982820   1.000000
   43       -2.682897   1.000000
   44       -2.415349   1.000000
   45       -2.316514   1.000000
   46       -2.214045   1.000000
   47       -2.190963   1.000000
   48       -2.110853   1.000000
   49       -2.043459   1.000000
   50       -1.924886   1.000000
   51       -1.830020   1.000000
   52       -1.756023   1.000000
   53       -1.699007   1.000000
   54       -1.646586   1.000000
   55       -1.597914   1.000000
   56       -1.531440   1.000000
   57       -1.459027   1.000000
   58       -1.345493   1.000000
   59       -1.293301   1.000000
   60       -1.233076   1.000000
   61       -1.188748   1.000000
   62       -1.139159   1.000000
   63       -1.097552   1.000000
   64       -1.041865   1.000000
   65       -1.017846   1.000000
   66       -0.884007   1.000000
   67       -0.840769   1.000000
   68       -0.739106   1.000000
   69       -0.687005   1.000000
   70       -0.600204   1.000000
   71       -0.442596   1.000000
   72       -0.323575   1.000000
   73       -0.263897   1.000000
   74       -0.204729   1.000000
   75       -0.096671   1.000000
   76       -0.074469   1.000000
   77       -0.019498   1.000000
   78        0.058131   1.000000
   79        0.292681   1.000000
   80        0.425025   1.000000
   81        0.478445   1.000000
   82        0.728379   1.000000
   83        0.801750   1.000000
   84        0.893389   1.000000
   85        1.001966   1.000000
   86        1.231510   1.000000
   87        1.274308   1.000000
   88        1.334186   1.000000
   89        1.521686   1.000000
   90        1.572891   1.000000
   91        1.617093   1.000000
   92        1.764463   1.000000
   93        1.784765   1.000000
   94        1.883052   1.000000
   95        2.100636   1.000000
   96        2.435570   1.002070
   97        2.523828   1.010144
   98        2.577580   1.020541
   99        2.634522   1.032797
  100        2.971088   0.249369
  101        3.148646  -0.035362
  102        3.185443  -0.032334
  103        3.273418  -0.013523
  104        3.356955  -0.003392
  105        3.456727  -0.000370
  106        3.524022  -0.000060
  107        3.625917  -0.000002
  108        3.654719  -0.000001
  109        3.709881  -0.000000
  110        3.771701  -0.000000
  111        3.822996  -0.000000
  112        3.868176  -0.000000
  113        3.901603  -0.000000
  114        4.012698  -0.000000
  115        4.027904  -0.000000
  116        4.124547  -0.000000
  117        4.146237  -0.000000
  118        4.202229  -0.000000
  119        4.270638  -0.000000
  120        4.276465  -0.000000
  121        4.306131  -0.000000
  122        4.339916  -0.000000
  123        4.423116  -0.000000
  124        4.489948  -0.000000
  125        4.520227  -0.000000
  126        4.606516  -0.000000
  127        4.629966  -0.000000
  128        4.681387  -0.000000
  129        4.724634  -0.000000
  130        4.858510  -0.000000
  131        4.964239  -0.000000
  132        5.013829  -0.000000

  0.4444444E+00  0.3698634E-15  0.1262379E-14  0.2469136E-01
    1      -10.321272   1.000000
    2       -9.826905   1.000000
    3       -9.769293   1.000000
    4       -9.352522   1.000000
    5       -9.204950   1.000000
    6       -8.862702   1.000000
    7       -8.534293   1.000000
    8       -8.036497   1.000000
    9       -7.991369   1.000000
   10       -7.938681   1.000000
   11       -7.862772   1.000000
   12       -7.805640   1.000000
   13       -7.701304   1.000000
   14       -7.639598   1.000000
   15       -7.402844   1.000000
   16       -7.354148   1.000000
   17       -6.980923   1.000000
   18       -6.016059   1.000000
   19       -6.002644   1.000000
   20       -5.790153   1.000000
   21       -5.414967   1.000000
   22       -5.322507   1.000000
   23       -5.265397   1.000000
   24       -5.259612   1.000000
   25       -5.228159   1.000000
   26       -5.163508   1.000000
   27       -4.314711   1.000000
   28       -4.105367   1.000000
   29       -3.910856   1.000000
   30       -3.869710   1.000000
   31       -3.827521   1.000000
   32       -3.781735   1.000000
   33       -3.639149   1.000000
   34       -3.583451   1.000000
   35       -3.519281   1.000000
   36       -3.424786   1.000000
   37       -3.405723   1.000000
   38       -3.301267   1.000000
   39       -3.261726   1.000000
   40       -3.197459   1.000000
   41       -3.118391   1.000000
   42       -3.086112   1.000000
   43       -2.954428   1.000000
   44       -2.808760   1.000000
   45       -2.475375   1.000000
   46       -2.330547   1.000000
   47       -2.197838   1.000000
   48       -2.124239   1.000000
   49       -2.032613   1.000000
   50       -1.943618   1.000000
   51       -1.896831   1.000000
   52       -1.819650   1.000000
   53       -1.722382   1.000000
   54       -1.699401   1.000000
   55       -1.629355   1.000000
   56       -1.552268   1.000000
   57       -1.515978   1.000000
   58       -1.466612   1.000000
   59       -1.426537   1.000000
   60       -1.354917   1.000000
   61       -1.264228   1.000000
   62       -1.220895   1.000000
   63       -1.171392   1.000000
   64       -1.122175   1.000000
   65       -1.081468   1.000000
   66       -0.935205   1.000000
   67       -0.880294   1.000000
   68       -0.814949   1.000000
   69       -0.736879   1.000000
   70       -0.668050   1.000000
   71       -0.534368   1.000000
   72       -0.402374   1.000000
   73       -0.287128   1.000000
   74       -0.217205   1.000000
   75       -0.187095   1.000000
   76       -0.138716   1.000000
   77       -0.075994   1.000000
   78        0.070089   1.000000
   79        0.155362   1.000000
   80        0.450166   1.000000
   81        0.539417   1.000000
   82        0.625134   1.000000
   83        0.751747   1.000000
   84        0.935749   1.000000
   85        1.042483   1.000000
   86        1.125393   1.000000
   87        1.318726   1.000000
   88        1.375329   1.000000
   89        1.399438   1.000000
   90        1.545969   1.000000
   91        1.638339   1.000000
   92        1.679377   1.000000
   93        1.865001   1.000000
   94        1.901057   1.000000
   95        2.202106   1.000004
   96        2.367078   1.000436
   97        2.472765   1.004296
   98        2.616425   1.029355
   99        2.645419   1.034330
  100        2.713022   1.022681
  101        2.751356   0.986443
  102        3.000238   0.153735
  103        3.082580  -0.005828
  104        3.211110  -0.027089
  105        3.361857  -0.003085
  106        3.433262  -0.000656
  107        3.544726  -0.000033
  108        3.579472  -0.000011
  109        3.642337  -0.000001
  110        3.689939  -0.000000
  111        3.750666  -0.000000
  112        3.783074  -0.000000
  113        3.840063  -0.000000
  114        3.952309  -0.000000
  115        3.974295  -0.000000
  116        4.073458  -0.000000
  117        4.130291  -0.000000
  118        4.158352  -0.000000
  119        4.223755  -0.000000
  120        4.297590  -0.000000
  121        4.362870  -0.000000
  122        4.388520  -0.000000
  123        4.453275  -0.000000
  124        4.537440  -0.000000
  125        4.641070  -0.000000
  126        4.665186  -0.000000
  127        4.709129  -0.000000
  128        4.750977  -0.000000
  129        4.804168  -0.000000
  130        4.852019  -0.000000
  131        5.077582  -0.000000
  132        5.163646  -0.000000

  0.3742002E-15  0.1111111E+00  0.1262379E-14  0.2469136E-01
    1      -11.126842   1.000000
    2      -10.547282   1.000000
    3       -9.767928   1.000000
    4       -8.836251   1.000000
    5       -8.264050   1.000000
    6       -8.220823   1.000000
    7       -7.967789   1.000000
    8       -7.959230   1.000000
    9       -7.704134   1.000000
   10       -7.551939   1.000000
   11       -7.522205   1.000000
   12       -7.511433   1.000000
   13       -7.463363   1.000000
   14       -7.445396   1.000000
   15       -7.064375   1.000000
   16       -6.792747   1.000000
   17       -6.748230   1.000000
   18       -6.558036   1.000000
   19       -6.469621   1.000000
   20       -6.373540   1.000000
   21       -6.224166   1.000000
   22       -6.100387   1.000000
   23       -5.840690   1.000000
   24       -5.740807   1.000000
   25       -5.601456   1.000000
   26       -5.462204   1.000000
   27       -5.441983   1.000000
   28       -5.349174   1.000000
   29       -5.268745   1.000000
   30       -4.872615   1.000000
   31       -4.646187   1.000000
   32       -4.157889   1.000000
   33       -4.123361   1.000000
   34       -4.043060   1.000000
   35       -3.925742   1.000000
   36       -3.837597   1.000000
   37       -3.677736   1.000000
   38       -3.135594   1.000000
   39       -2.879408   1.000000
   40       -2.790783   1.000000
   41       -2.665637   1.000000
   42       -2.496096   1.000000
   43       -2.376547   1.000000
   44       -2.304987   1.000000
   45       -2.180271   1.000000
   46       -2.141306   1.000000
   47       -2.092477   1.000000
   48       -2.005729   1.000000
   49       -1.834435   1.000000
   50       -1.661184   1.000000
   51       -1.631959   1.000000
   52       -1.568167   1.000000
   53       -1.518056   1.000000
   54       -1.401082   1.000000
   55       -1.313633   1.000000
   56       -1.295271   1.000000
   57       -1.226539   1.000000
   58       -1.129572   1.000000
   59       -1.092068   1.000000
   60       -1.045698   1.000000
   61       -0.999955   1.000000
   62       -0.979874   1.000000
   63       -0.888756   1.000000
   64       -0.788783   1.000000
   65       -0.741599   1.000000
   66       -0.715735   1.000000
   67       -0.644535   1.000000
   68       -0.563243   1.000000
   69       -0.461630   1.000000
   70       -0.409118   1.000000
   71       -0.327023   1.000000
   72       -0.267748   1.000000
   73       -0.210229   1.000000
   74       -0.121311   1.000000
   75        0.031722   1.000000
   76        0.114661   1.000000
   77        0.199534   1.000000
   78        0.276463   1.000000
   79        0.427051   1.000000
   80        0.525469   1.000000
   81        0.615853   1.000000
   82        0.723749   1.000000
   83        0.899522   1.000000
   84        1.156352   1.000000
   85        1.319651   1.000000
   86        1.400565   1.000000
   87        1.472373   1.000000
   88        1.543146   1.000000
   89        1.659897   1.000000
   90        1.761113   1.000000
   91        1.855293   1.000000
   92        1.870402   1.000000
   93        1.927387   1.000000
   94        1.978798   1.000000
   95        2.144202   1.000000
   96        2.252778   1.000018
   97        2.620319   1.030165
   98        2.766449   0.963579
   99        2.982628   0.209297
  100        3.041491   0.053162
  101        3.137132  -0.034299
  102        3.207988  -0.027789
  103        3.240645  -0.020312
  104        3.335088  -0.005092
  105        3.640396  -0.000001
  106        3.714316  -0.000000
  107        3.778636  -0.000000
  108        3.866420  -0.000000
  109        3.886487  -0.000000
  110        3.909306  -0.000000
  111        3.939602  -0.000000
  112        3.982276  -0.000000
  113        4.004834  -0.000000
  114        4.048329  -0.000000
  115        4.096236  -0.000000
  116        4.129021  -0.000000
  117        4.157784  -0.000000
  118        4.185637  -0.000000
  119        4.246029  -0.000000
  120        4.306650  -0.000000
  121        4.323633  -0.000000
  122        4.355505  -0.000000
  123        4.407361  -0.000000
  124        4.440138  -0.000000
  125        4.483222  -0.000000
  126        4.523913  -0.000000
  127        4.626347  -0.000000
  128        4.692424  -0.000000
  129        4.797386  -0.000000
  130        4.952428  -0.000000
  131        5.119977  -0.000000
  132        5.154893  -0.000000

  0.1111111E+00  0.1111111E+00  0.1262379E-14  0.2469136E-01
    1      -11.012448   1.000000
    2      -10.443417   1.000000
    3       -9.685637   1.000000
    4       -8.779161   1.000000
    5       -8.351880   1.000000
    6       -8.266538   1.000000
    7       -8.202354   1.000000
    8       -8.185966   1.000000
    9       -8.092529   1.000000
   10       -7.912121   1.000000
   11       -7.795630   1.000000
   12       -7.594392   1.000000
   13       -7.362095   1.000000
   14       -7.164765   1.000000
   15       -7.070055   1.000000
   16       -6.957594   1.000000
   17       -6.574479   1.000000
   18       -6.487611   1.000000
   19       -6.413751   1.000000
   20       -6.258277   1.000000
   21       -5.942399   1.000000
   22       -5.834147   1.000000
   23       -5.761829   1.000000
   24       -5.600271   1.000000
   25       -5.495958   1.000000
   26       -5.350150   1.000000
   27       -5.253191   1.000000
   28       -5.217456   1.000000
   29       -5.061582   1.000000
   30       -4.803197   1.000000
   31       -4.720441   1.000000
   32       -4.248188   1.000000
   33       -3.879653   1.000000
   34       -3.687362   1.000000
   35       -3.644720   1.000000
   36       -3.603328   1.000000
   37       -3.391935   1.000000
   38       -3.176212   1.000000
   39       -2.970975   1.000000
   40       -2.933757   1.000000
   41       -2.827659   1.000000
   42       -2.744190   1.000000
   43       -2.530423   1.000000
   44       -2.279182   1.000000
   45       -2.144317   1.000000
   46       -2.115325   1.000000
   47       -2.083931   1.000000
   48       -2.021842   1.000000
   49       -1.902485   1.000000
   50       -1.825840   1.000000
   51       -1.702754   1.000000
   52       -1.623028   1.000000
   53       -1.520629   1.000000
   54       -1.470849   1.000000
   55       -1.433364   1.000000
   56       -1.339458   1.000000
   57       -1.315126   1.000000
   58       -1.252946   1.000000
   59       -1.146938   1.000000
   60       -1.017815   1.000000
   61       -0.979847   1.000000
   62       -0.926929   1.000000
   63       -0.921730   1.000000
   64       -0.850696   1.000000
   65       -0.819445   1.000000
   66       -0.778341   1.000000
   67       -0.735538   1.000000
   68       -0.675355   1.000000
   69       -0.578410   1.000000
   70       -0.482254   1.000000
   71       -0.366823   1.000000
   72       -0.322474   1.000000
   73       -0.264572   1.000000
   74       -0.208710   1.000000
   75       -0.065563   1.000000
   76       -0.012451   1.000000
   77        0.133459   1.000000
   78        0.315026   1.000000
   79        0.445793   1.000000
   80        0.502207   1.000000
   81        0.598729   1.000000
   82        0.693859   1.000000
   83        0.850425   1.000000
   84        0.870198   1.000000
   85        1.110702   1.000000
   86        1.237706   1.000000
   87        1.323792   1.000000
   88        1.578054   1.000000
   89        1.642894   1.000000
   90        1.716510   1.000000
   91        1.776917   1.000000
   92        1.780072   1.000000
   93        1.844047   1.000000
   94        1.953826   1.000000
   95        2.022144   1.000000
   96        2.432281   1.001933
   97        2.616399   1.029349
   98        2.790784   0.915064