   56   56   85    1
  0.1322101E+02  0.6042588E-09  0.6042559E-09  0.2341357E-08  0.5000000E-15
   1.0000000000000000E-004
  CAR 
 Name                                    
    198     41    132

  0.3742002E-15  0.3742002E-15  0.1262379E-14  0.1234568E-01
    1      -11.642220   1.000000
    2      -11.067682   1.000000
    3      -10.289172   1.000000
    4       -9.331640   1.000000
    5       -8.820244   1.000000
    6       -8.348887   1.000000
    7       -8.177733   1.000000
    8       -8.068155   1.000000
    9       -7.877096   1.000000
   10       -7.803279   1.000000
   11       -7.796750   1.000000
   12       -7.718904   1.000000
   13       -7.706943   1.000000
   14       -7.627405   1.000000
   15       -7.434009   1.000000
   16       -7.388267   1.000000
   17       -7.317416   1.000000
   18       -7.240150   1.000000
   19       -7.173860   1.000000
   20       -6.963705   1.000000
   21       -6.760451   1.000000
   22       -6.555772   1.000000
   23       -6.377221   1.000000
   24       -6.155158   1.000000
   25       -5.997591   1.000000
   26       -5.939977   1.000000
   27       -5.900385   1.000000
   28       -5.874110   1.000000
   29       -5.719033   1.000000
   30       -5.331160   1.000000
   31       -5.018545   1.000000
   32       -4.832901   1.000000
   33       -4.676750   1.000000
   34       -4.665818   1.000000
   35       -4.568470   1.000000
   36       -4.345343   1.000000
   37       -4.158621   1.000000
   38       -3.334615   1.000000
   39       -3.303636   1.000000
   40       -3.093632   1.000000
   41       -2.941333   1.000000
   42       -2.864996   1.000000
   43       -2.814431   1.000000
   44       -2.621993   1.000000
   45       -2.482163   1.000000
   46       -2.464344   1.000000
   47       -2.171255   1.000000
   48       -2.078913   1.000000
   49       -2.073520   1.000000
   50       -2.043932   1.000000
   51       -1.824986   1.000000
   52       -1.791776   1.000000
   53       -1.764534   1.000000
   54       -1.740176   1.000000
   55       -1.554498   1.000000
   56       -1.551088   1.000000
   57       -1.518692   1.000000
   58       -1.493003   1.000000
   59       -1.478188   1.000000
   60       -1.373558   1.000000
   61       -1.325088   1.000000
   62       -1.295839   1.000000
   63       -1.270571   1.000000
   64       -1.104655   1.000000
   65       -1.025076   1.000000
   66       -0.949243   1.000000
   67       -0.916704   1.000000
   68       -0.829443   1.000000
   69       -0.770667   1.000000
   70       -0.664530   1.000000
   71       -0.620678   1.000000
   72       -0.493202   1.000000
   73       -0.380852   1.000000
   74       -0.329378   1.000000
   75       -0.304160   1.000000
   76       -0.274604   1.000000
   77       -0.258020   1.000000
   78       -0.150148   1.000000
   79       -0.116862   1.000000
   80        0.077372   1.000000
   81        0.383814   1.000000
   82        0.428011   1.000000
   83        0.598928   1.000000
   84        0.788060   1.000000
   85        1.072422   1.000000
   86        1.199424   1.000000
   87        1.255325   1.000000
   88        1.335259   1.000000
   89        1.360063   1.000000
   90        1.461419   1.000000
   91        1.478133   1.000000
   92        1.497931   1.000000
   93        1.516861   1.000000
   94        1.555730   1.000000
   95        1.686600   1.000003
   96        1.743928   1.000018
   97        2.096704   1.027031
   98        2.137656   1.034484
   99        2.650056  -0.035340
  100        2.705062  -0.026389
  101        2.711085  -0.025005
  102        2.820421  -0.005616
  103        2.918776  -0.000744
  104        3.114707  -0.000003
  105        3.118331  -0.000002
  106        3.155004  -0.000001
  107        3.226760  -0.000000
  108        3.375421  -0.000000
  109        3.416957  -0.000000
  110        3.466353  -0.000000
  111        3.512220  -0.000000
  112        3.603148  -0.000000
  113        3.610129  -0.000000
  114        3.648244  -0.000000
  115        3.677271  -0.000000
  116        3.710874  -0.000000
  117        3.762424  -0.000000
  118        3.767835  -0.000000
  119        3.833880  -0.000000
  120        3.859136  -0.000000
  121        3.897625  -0.000000
  122        3.910408  -0.000000
  123        4.020688  -0.000000
  124        4.031296  -0.000000
  125        4.084873  -0.000000
  126        4.167010  -0.000000
  127        4.204418  -0.000000
  128        4.223041  -0.000000
  129        4.597420  -0.000000
  130        4.654587  -0.000000
  131        4.855010  -0.000000
  132        4.898416  -0.000000

  0.1111111E+00  0.3867788E-15  0.1262378E-14  0.2469136E-01
    1      -11.585007   1.000000
    2      -11.014955   1.000000
    3      -10.246513   1.000000
    4       -9.300547   1.000000
    5       -8.784806   1.000000
    6       -8.404909   1.000000
    7       -8.387650   1.000000
    8       -8.289996   1.000000
    9       -8.204927   1.000000
   10       -8.003240   1.000000
   11       -7.980580   1.000000
   12       -7.869351   1.000000
   13       -7.842013   1.000000
   14       -7.706384   1.000000
   15       -7.316362   1.000000
   16       -7.179395   1.000000
   17       -7.142796   1.000000
   18       -6.937647   1.000000
   19       -6.867580   1.000000
   20       -6.846086   1.000000
   21       -6.743662   1.000000
   22       -6.528827   1.000000
   23       -6.234999   1.000000
   24       -6.165880   1.000000
   25       -6.033841   1.000000
   26       -5.923145   1.000000
   27       -5.912748   1.000000
   28       -5.735710   1.000000
   29       -5.658124   1.000000
   30       -5.293027   1.000000
   31       -4.990319   1.000000
   32       -4.638056   1.000000
   33       -4.610878   1.000000
   34       -4.536402   1.000000
   35       -4.396622   1.000000
   36       -4.255866   1.000000
   37       -4.016651   1.000000
   38       -3.330006   1.000000
   39       -3.308979   1.000000
   40       -3.059046   1.000000
   41       -2.945344   1.000000
   42       -2.924917   1.000000
   43       -2.868903   1.000000
   44       -2.685330   1.000000
   45       -2.531326   1.000000
   46       -2.508694   1.000000
   47       -2.394917   1.000000
   48       -2.181902   1.000000
   49       -2.113301   1.000000
   50       -2.022109   1.000000
   51       -1.929791   1.000000
   52       -1.819030   1.000000
   53       -1.783730   1.000000
   54       -1.757764   1.000000
   55       -1.602936   1.000000
   56       -1.590464   1.000000
   57       -1.544547   1.000000
   58       -1.519701   1.000000
   59       -1.464169   1.000000
   60       -1.412349   1.000000
   61       -1.375056   1.000000
   62       -1.303558   1.000000
   63       -1.268775   1.000000
   64       -1.185584   1.000000
   65       -1.085930   1.000000
   66       -0.998098   1.000000
   67       -0.927168   1.000000
   68       -0.896704   1.000000
   69       -0.747332   1.000000
   70       -0.727056   1.000000
   71       -0.653042   1.000000
   72       -0.507558   1.000000
   73       -0.458844   1.000000
   74       -0.396879   1.000000
   75       -0.349248   1.000000
   76       -0.209269   1.000000
   77       -0.179795   1.000000
   78       -0.104607   1.000000
   79        0.007062   1.000000
   80        0.063950   1.000000
   81        0.194063   1.000000
   82        0.404322   1.000000
   83        0.493982   1.000000
   84        0.598080   1.000000
   85        0.974284   1.000000
   86        1.016940   1.000000
   87        1.174633   1.000000
   88        1.302796   1.000000
   89        1.352358   1.000000
   90        1.399476   1.000000
   91        1.432388   1.000000
   92        1.452274   1.000000
   93        1.472633   1.000000
   94        1.604999   1.000000
   95        1.707589   1.000006
   96        1.833890   1.000237
   97        2.322400   0.800807
   98        2.383714   0.566428
   99        2.601494  -0.026147
  100        2.667986  -0.033644
  101        2.737450  -0.018989
  102        2.785059  -0.010019
  103        2.846285  -0.003494
  104        2.952675  -0.000325
  105        3.166582  -0.000000
  106        3.287500  -0.000000
  107        3.361686  -0.000000
  108        3.369257  -0.000000
  109        3.410745  -0.000000
  110        3.471047  -0.000000
  111        3.513253  -0.000000
  112        3.570671  -0.000000
  113        3.596992  -0.000000
  114        3.620975  -0.000000
  115        3.649586  -0.000000
  116        3.696043  -0.000000
  117        3.718720  -0.000000
  118        3.749622  -0.000000
  119        3.813254  -0.000000
  120        3.844366  -0.000000
  121        3.876727  -0.000000
  122        3.921629  -0.000000
  123        3.981760  -0.000000
  124        3.997443  -0.000000
  125        4.099536  -0.000000
  126        4.123939  -0.000000
  127        4.166529  -0.000000
  128        4.222285  -0.000000
  129        4.538260  -0.000000
  130        4.611762  -0.000000
  131        4.739762  -0.000000
  132        4.813391  -0.000000

  0.2222222E+00  0.3825705E-15  0.1262378E-14  0.2469136E-01
    1      -11.415369   1.000000
    2      -10.858932   1.000000
    3      -10.121160   1.000000
    4       -9.222531   1.000000
    5       -9.050938   1.000000
    6       -8.783224   1.000000
    7       -8.684971   1.000000
    8       -8.603332   1.000000
    9       -8.282286   1.000000
   10       -8.242705   1.000000
   11       -8.149325   1.000000
   12       -8.112430   1.000000
   13       -8.013753   1.000000
   14       -7.811988   1.000000
   15       -7.371418   1.000000
   16       -7.138746   1.000000
   17       -7.058563   1.000000
   18       -6.756846   1.000000
   19       -6.731314   1.000000
   20       -6.576240   1.000000
   21       -6.524193   1.000000
   22       -6.174073   1.000000
   23       -6.074906   1.000000
   24       -5.914551   1.000000
   25       -5.847229   1.000000
   26       -5.793122   1.000000
   27       -5.707772   1.000000
   28       -5.593848   1.000000
   29       -5.225564   1.000000
   30       -5.103386   1.000000
   31       -4.881393   1.000000
   32       -4.425757   1.000000
   33       -4.398107   1.000000
   34       -4.265756   1.000000
   35       -4.073394   1.000000
   36       -3.889991   1.000000
   37       -3.637863   1.000000
   38       -3.362910   1.000000
   39       -3.344983   1.000000
   40       -3.207316   1.000000
   41       -3.111736   1.000000
   42       -3.072544   1.000000
   43       -2.922422   1.000000
   44       -2.874324   1.000000
   45       -2.815937   1.000000
   46       -2.649284   1.000000
   47       -2.517126   1.000000
   48       -2.365890   1.000000
   49       -2.150725   1.000000
   50       -2.096109   1.000000
   51       -2.047025   1.000000
   52       -1.911131   1.000000
   53       -1.870936   1.000000
   54       -1.801151   1.000000
   55       -1.767336   1.000000
   56       -1.683585   1.000000
   57       -1.643449   1.000000
   58       -1.585124   1.000000
   59       -1.557232   1.000000
   60       -1.494513   1.000000
   61       -1.451730   1.000000
   62       -1.432578   1.000000
   63       -1.337138   1.000000
   64       -1.287720   1.000000
   65       -1.183727   1.000000
   66       -1.138977   1.000000
   67       -1.064641   1.000000
   68       -0.982441   1.000000
   69       -0.914781   1.000000
   70       -0.874237   1.000000
   71       -0.731126   1.000000
   72       -0.627134   1.000000
   73       -0.528920   1.000000
   74       -0.450217   1.000000
   75       -0.361496   1.000000
   76       -0.247037   1.000000
   77       -0.180563   1.000000
   78       -0.092797   1.000000
   79        0.007215   1.000000
   80        0.078268   1.000000
   81        0.240266   1.000000
   82        0.305484   1.000000
   83        0.415529   1.000000
   84        0.600322   1.000000
   85        0.676120   1.000000
   86        0.785633   1.000000
   87        1.102691   1.000000
   88        1.170947   1.000000
   89        1.216631   1.000000
   90        1.337618   1.000000
   91        1.367666   1.000000
   92        1.394533   1.000000
   93        1.434170   1.000000
   94        1.525409   1.000000
   95        1.825194   1.000188
   96        1.919740   1.001799
   97        2.276518   0.926521
   98        2.405313   0.475275
   99        2.462135   0.248709
  100        2.630510  -0.034640
  101        2.773240  -0.011928
  102        2.964234  -0.000242
  103        3.036115  -0.000032
  104        3.066026  -0.000013
  105        3.185245  -0.000000
  106        3.211081  -0.000000
  107        3.279590  -0.000000
  108        3.309062  -0.000000
  109        3.348903  -0.000000
  110        3.362970  -0.000000
  111        3.419073  -0.000000
  112        3.508948  -0.000000
  113        3.552636  -0.000000
  114        3.569726  -0.000000
  115        3.606381  -0.000000
  116        3.632740  -0.000000
  117        3.711751  -0.000000
  118        3.775220  -0.000000
  119        3.824033  -0.000000
  120        3.851683  -0.000000
  121        3.882450  -0.000000
  122        3.913133  -0.000000
  123        3.971352  -0.000000
  124        4.004103  -0.000000
  125        4.038110  -0.000000
  126        4.120373  -0.000000
  127        4.198513  -0.000000
  128        4.277752  -0.000000
  129        4.290590  -0.000000
  130        4.457237  -0.000000
  131        4.571386  -0.000000
  132        4.691956  -0.000000

  0.3333333E+00  0.3885513E-15  0.1262378E-14  0.2469136E-01
    1      -11.140321   1.000000
    2      -10.606607   1.000000
    3       -9.922196   1.000000
    4       -9.683823   1.000000
    5       -9.324634   1.000000
    6       -9.083391   1.000000
    7       -8.934133   1.000000
    8       -8.501492   1.000000
    9       -8.415560   1.000000
   10       -8.348026   1.000000
   11       -8.289984   1.000000
   12       -8.220718   1.000000
   13       -8.134695   1.000000
   14       -7.850795   1.000000
   15       -7.599415   1.000000
   16       -7.463473   1.000000
   17       -7.309779   1.000000
   18       -6.551531   1.000000
   19       -6.542597   1.000000
   20       -6.232515   1.000000
   21       -6.089001   1.000000
   22       -6.033399   1.000000
   23       -5.866696   1.000000
   24       -5.839094   1.000000
   25       -5.750730   1.000000
   26       -5.499277   1.000000
   27       -5.071780   1.000000
   28       -4.942764   1.000000
   29       -4.816549   1.000000
   30       -4.703487   1.000000
   31       -4.563909   1.000000
   32       -4.175264   1.000000
   33       -4.119190   1.000000
   34       -3.965175   1.000000
   35       -3.850525   1.000000
   36       -3.757643   1.000000
   37       -3.584988   1.000000
   38       -3.561851   1.000000
   39       -3.489659   1.000000
   40       -3.460143   1.000000
   41       -3.411045   1.000000
   42       -3.396311   1.000000
   43       -3.127102   1.000000
   44       -2.795710   1.000000
   45       -2.693152   1.000000
   46       -2.679598   1.000000
   47       -2.517813   1.000000
   48       -2.391617   1.000000
   49       -2.359751   1.000000
   50       -2.299319   1.000000
   51       -2.187691   1.000000
   52       -2.100774   1.000000
   53       -2.060886   1.000000
   54       -2.018398   1.000000
   55       -1.913154   1.000000
   56       -1.865091   1.000000
   57       -1.767905   1.000000
   58       -1.723921   1.000000
   59       -1.683664   1.000000
   60       -1.639503   1.000000
   61       -1.572204   1.000000
   62       -1.541971   1.000000
   63       -1.476393   1.000000
   64       -1.448752   1.000000
   65       -1.405408   1.000000
   66       -1.312377   1.000000
   67       -1.168132   1.000000
   68       -1.063093   1.000000
   69       -0.950613   1.000000
   70       -0.930940   1.000000
   71       -0.805026   1.000000
   72       -0.699679   1.000000
   73       -0.629218   1.000000
   74       -0.516109   1.000000
   75       -0.357375   1.000000
   76       -0.333333   1.000000
   77       -0.225935   1.000000
   78       -0.129542   1.000000
   79        0.000697   1.000000
   80        0.047638   1.000000
   81        0.131740   1.000000
   82        0.373401   1.000000
   83        0.400382   1.000000
   84        0.636167   1.000000
   85        0.661607   1.000000
   86        0.816866   1.000000
   87        1.013215   1.000000
   88        1.098675   1.000000
   89        1.111104   1.000000
   90        1.222365   1.000000
   91        1.270678   1.000000
   92        1.375950   1.000000
   93        1.408643   1.000000
   94        1.536549   1.000000
   95        1.726614   1.000011
   96        2.048261   1.016177
   97        2.165106   1.034994
   98        2.224829   1.006476
   99        2.323582   0.796906
  100        2.536218   0.045927
  101        2.745212  -0.017313
  102        2.787751  -0.009616
  103        2.875663  -0.001938
  104        2.941090  -0.000435
  105        3.044068  -0.000025
  106        3.151107  -0.000001
  107        3.207688  -0.000000
  108        3.249563  -0.000000
  109        3.260398  -0.000000
  110        3.316947  -0.000000
  111        3.407067  -0.000000
  112        3.440739  -0.000000
  113        3.465944  -0.000000
  114        3.505965  -0.000000
  115        3.589150  -0.000000
  116        3.689231  -0.000000
  117        3.717914  -0.000000
  118        3.769413  -0.000000
  119        3.828927  -0.000000
  120        3.852286  -0.000000
  121        3.904121  -0.000000
  122        3.950417  -0.000000
  123        4.003011  -0.000000
  124        4.025293  -0.000000
  125        4.120818  -0.000000
  126        4.177688  -0.000000
  127        4.230258  -0.000000
  128        4.268783  -0.000000
  129        4.316455  -0.000000
  130        4.329220  -0.000000
  131        4.425502  -0.000000
  132        4.586238  -0.000000

  0.4444444E+00  0.3777319E-15  0.1262376E-14  0.2469136E-01
    1      -10.787126   1.000000
    2      -10.287433   1.000000
    3      -10.199585   1.000000
    4       -9.823109   1.000000
    5       -9.626579   1.000000
    6       -9.322169   1.000000
    7       -8.935521   1.000000
    8       -8.510918   1.000000
    9       -8.420747   1.000000
   10       -8.385878   1.000000
   11       -8.282659   1.000000
   12       -8.207216   1.000000
   13       -8.168555   1.000000
   14       -7.871470   1.000000
   15       -7.853289   1.000000
   16       -7.810282   1.000000
   17       -7.358330   1.000000
   18       -6.509915   1.000000
   19       -6.488577   1.000000
   20       -6.152746   1.000000
   21       -5.869799   1.000000
   22       -5.737857   1.000000
   23       -5.730652   1.000000
   24       -5.567060   1.000000
   25       -5.555892   1.000000
   26       -5.302637   1.000000
   27       -4.586347   1.000000
   28       -4.537375   1.000000
   29       -4.301648   1.000000
   30       -4.264000   1.000000
   31       -4.176747   1.000000
   32       -4.095715   1.000000
   33       -4.044322   1.000000
   34       -3.940473   1.000000
   35       -3.890010   1.000000
   36       -3.838569   1.000000
   37       -3.804960   1.000000
   38       -3.747505   1.000000
   39       -3.627712   1.000000
   40       -3.537856   1.000000
   41       -3.485999   1.000000
   42       -3.409990   1.000000
   43       -3.306846   1.000000
   44       -3.130954   1.000000
   45       -2.897572   1.000000
   46       -2.717992   1.000000
   47       -2.548536   1.000000
   48       -2.432536   1.000000
   49       -2.396486   1.000000
   50       -2.338527   1.000000
   51       -2.196928   1.000000
   52       -2.148946   1.000000
   53       -2.096421   1.000000
   54       -2.085481   1.000000
   55       -2.017214   1.000000
   56       -1.967578   1.000000
   57       -1.883933   1.000000
   58       -1.827781   1.000000
   59       -1.798540   1.000000
   60       -1.744981   1.000000
   61       -1.622622   1.000000
   62       -1.602351   1.000000
   63       -1.592928   1.000000
   64       -1.524078   1.000000
   65       -1.512563   1.000000
   66       -1.399105   1.000000
   67       -1.307688   1.000000
   68       -1.229388   1.000000
   69       -1.110388   1.000000
   70       -0.912462   1.000000
   71       -0.819230   1.000000
   72       -0.780090   1.000000
   73       -0.623358   1.000000
   74       -0.481937   1.000000
   75       -0.394841   1.000000
   76       -0.297706   1.000000
   77       -0.264907   1.000000
   78       -0.160960   1.000000
   79       -0.121977   1.000000
   80        0.107061   1.000000
   81        0.156714   1.000000
   82        0.290435   1.000000
   83        0.476613   1.000000
   84        0.590612   1.000000
   85        0.722609   1.000000
   86        0.853842   1.000000
   87        0.941977   1.000000
   88        1.019121   1.000000
   89        1.094681   1.000000
   90        1.178786   1.000000
   91        1.196092   1.000000
   92        1.387865   1.000000
   93        1.431064   1.000000
   94        1.566209   1.000000
   95        1.858951   1.000447
   96        2.060035   1.018671
   97        2.138434   1.034566
   98        2.239674   0.989782
   99        2.285050   0.907094
  100        2.338721   0.744366
  101        2.396323   0.513300
  102        2.558537   0.011151
  103        2.693309  -0.029000
  104        2.850143  -0.003243
  105        2.983718  -0.000144
  106        3.014306  -0.000061
  107        3.135472  -0.000001
  108        3.165583  -0.000000
  109        3.229947  -0.000000
  110        3.250108  -0.000000
  111        3.294789  -0.000000
  112        3.377059  -0.000000
  113        3.394556  -0.000000
  114        3.431312  -0.000000
  115        3.539133  -0.000000
  116        3.627059  -0.000000
  117        3.693155  -0.000000
  118        3.775281  -0.000000
  119        3.805473  -0.000000
  120        3.881037  -0.000000
  121        3.948936  -0.000000
  122        3.994777  -0.000000
  123        4.041314  -0.000000
  124        4.081380  -0.000000
  125        4.177277  -0.000000
  126        4.227663  -0.000000
  127        4.268538  -0.000000
  128        4.324709  -0.000000
  129        4.395201  -0.000000
  130        4.428086  -0.000000
  131        4.531429  -0.000000
  132        4.604256  -0.000000

  0.3742002E-15  0.1111111E+00  0.1262378E-14  0.2469136E-01
    1      -11.585023   1.000000
    2      -11.014946   1.000000
    3      -10.246283   1.000000
    4       -9.294538   1.000000
    5       -8.784627   1.000000
    6       -8.404747   1.000000
    7       -8.387123   1.000000
    8       -8.287401   1.000000
    9       -8.206407   1.000000
   10       -8.003941   1.000000
   11       -7.980657   1.000000
   12       -7.871259   1.000000
   13       -7.842601   1.000000
   14       -7.706775   1.000000
   15       -7.398412   1.000000
   16       -7.193345   1.000000
   17       -7.141802   1.000000
   18       -6.914623   1.000000
   19       -6.889707   1.000000
   20       -6.809298   1.000000
   21       -6.630891   1.000000
   22       -6.521759   1.000000
   23       -6.263667   1.000000
   24       -6.185858   1.000000
   25       -6.033721   1.000000
   26       -5.929705   1.000000
   27       -5.915143   1.000000
   28       -5.746548   1.000000
   29       -5.637964   1.000000
   30       -5.289075   1.000000
   31       -5.053713   1.000000
   32       -4.641873   1.000000
   33       -4.609878   1.000000
   34       -4.520952   1.000000
   35       -4.397047   1.000000
   36       -4.172369   1.000000
   37       -4.059939   1.000000
   38       -3.328233   1.000000
   39       -3.310304   1.000000
   40       -3.063570   1.000000
   41       -2.944086   1.000000
   42       -2.927376   1.000000
   43       -2.872368   1.000000
   44       -2.683775   1.000000
   45       -2.535293   1.000000
   46       -2.504069   1.000000
   47       -2.392165   1.000000
   48       -2.200709   1.000000
   49       -2.102328   1.000000
   50       -2.023896   1.000000
   51       -1.923006   1.000000
   52       -1.822881   1.000000
   53       -1.783564   1.000000
   54       -1.759610   1.000000
   55       -1.607633   1.000000
   56       -1.595905   1.000000
   57       -1.540723   1.000000
   58       -1.491981   1.000000
   59       -1.470119   1.000000
   60       -1.395692   1.000000
   61       -1.356695   1.000000
   62       -1.315856   1.000000
   63       -1.267920   1.000000
   64       -1.190949   1.000000
   65       -1.095221   1.000000
   66       -0.997817   1.000000
   67       -0.932799   1.000000
   68       -0.903985   1.000000
   69       -0.750056   1.000000
   70       -0.724171   1.000000
   71       -0.639819   1.000000
   72       -0.503728   1.000000
   73       -0.472960   1.000000
   74       -0.395526   1.000000
   75       -0.348112   1.000000
   76       -0.249280   1.000000
   77       -0.181594   1.000000
   78       -0.103667   1.000000
   79       -0.030654   1.000000
   80        0.101729   1.000000
   81        0.166565   1.000000
   82        0.411965   1.000000
   83        0.513366   1.000000
   84        0.607633   1.000000
   85        0.973058   1.000000
   86        1.027078   1.000000
   87        1.161259   1.000000
   88        1.301418   1.000000
   89        1.386297   1.000000
   90        1.406112   1.000000
   91        1.430677   1.000000
   92        1.459834   1.000000
   93        1.473714   1.000000
   94        1.582339   1.000000
   95        1.720210   1.000009
   96        1.840165   1.000278
   97        2.264622   0.950552
   98        2.398382   0.504592
   99        2.599109  -0.024941
  100        2.653974  -0.035128
  101        2.752321  -0.015842
  102        2.784592  -0.010090
  103        2.850330  -0.003232
  104        2.931857  -0.000545
  105        3.167945  -0.000000
  106        3.327437  -0.000000
  107        3.357646  -0.000000
  108        3.369447  -0.000000
  109        3.418422  -0.000000
  110        3.474438  -0.000000
  111        3.524374  -0.000000
  112        3.573986  -0.000000
  113        3.598570  -0.000000
  114        3.625412  -0.000000
  115        3.646943  -0.000000
  116        3.696846  -0.000000
  117        3.717306  -0.000000
  118        3.751393  -0.000000
  119        3.798026  -0.000000
  120        3.827350  -0.000000
  121        3.866014  -0.000000
  122        3.923124  -0.000000
  123        3.981424  -0.000000
  124        4.003630  -0.000000
  125        4.097157  -0.000000
  126        4.116413  -0.000000
  127        4.158850  -0.000000
  128        4.243568  -0.000000
  129        4.535895  -0.000000
  130        4.628323  -0.000000
  131        4.730203  -0.000000
  132        4.821792  -0.000000

  0.1111111E+00  0.1111111E+00  0.1262378E-14  0.2469136E-01
    1      -11.472155   1.000000
    2      -10.910452   1.000000
    3      -10.160742   1.000000
    4       -9.234602   1.000000
    5       -8.787336   1.000000
    6       -8.709713   1.000000
    7       -8.576012   1.000000
    8       -8.521315   1.000000
    9       -8.514631   1.000000
   10       -8.359945   1.000000
   11       -8.294744   1.000000
   12       -7.870504   1.000000
   13       -7.690657   1.000000
   14       -7.536669   1.000000
   15       -7.441409   1.000000
   16       -7.330384   1.000000
   17       -6.977631   1.000000
   18       -6.903400   1.000000
   19       -6.812019   1.000000
   20       -6.777822   1.000000
   21       -6.386442   1.000000
   22       -6.214431   1.000000
   23       -6.096450   1.000000
   24       -6.048559   1.000000
   25       -5.848353   1.000000
   26       -5.831913   1.000000
   27       -5.683884   1.000000
   28       -5.624389   1.000000
   29       -5.426855   1.000000
   30       -5.216914   1.000000
   31       -5.140482   1.000000
   32       -4.708838   1.000000
   33       -4.328654   1.000000
   34       -4.142315   1.000000
   35       -4.117856   1.000000
   36       -3.961108   1.000000
   37       -3.812980   1.000000
   38       -3.371599   1.000000
   39       -3.321692   1.000000
   40       -3.193639   1.000000
   41       -3.066122   1.000000
   42       -2.961254   1.000000
   43       -2.926180   1.000000
   44       -2.838871   1.000000
   45       -2.600341   1.000000
   46       -2.561474   1.000000
   47       -2.414489   1.000000
   48       -2.299876   1.000000
   49       -2.266149   1.000000
   50       -2.125993   1.000000
   51       -1.992169   1.000000
   52       -1.947639   1.000000
   53       -1.767738   1.000000
   54       -1.731549   1.000000
   55       -1.709903   1.000000
   56       -1.692550   1.000000
   57       -1.635340   1.000000
   58       -1.613364   1.000000
   59       -1.503121   1.000000
   60       -1.449910   1.000000
   61       -1.411437   1.000000
   62       -1.344032   1.000000
   63       -1.313483   1.000000
   64       -1.293402   1.000000
   65       -1.234407   1.000000
   66       -1.174111   1.000000
   67       -1.068349   1.000000
   68       -0.931713   1.000000
   69       -0.842976   1.000000
   70       -0.792268   1.000000
   71       -0.678725   1.000000
   72       -0.655674   1.000000
   73       -0.506529   1.000000
   74       -0.459546   1.000000
   75       -0.331920   1.000000
   76       -0.264619   1.000000
   77       -0.137689   1.000000
   78       -0.059118   1.000000
   79       -0.009365   1.000000
   80        0.127198   1.000000
   81        0.246299   1.000000
   82        0.269630   1.000000
   83        0.437931   1.000000
   84        0.576143   1.000000
   85        0.603696   1.000000
   86        0.906928   1.000000
   87        1.148535   1.000000
   88        1.245775   1.000000
   89        1.311776   1.000000
   90        1.319708   1.000000
   91        1.386865   1.000000
   92        1.420931   1.000000
   93        1.502486   1.000000
   94        1.576985   1.000000
   95        1.751342   1.000023
   96        1.937409   1.002591
   97        2.236425   0.993837
   98        2.453049   0.282046