   54   54    1    1
  0.1322961E+02  0.6078000E-09  0.6078000E-09  0.2233000E-08  0.5000000E-15
   1.0000000000000000E-004
  CAR 
 Name                                    
    202     25    132

  0.3742002E-15  0.3742002E-15  0.1262379E-14  0.1234568E-01
    1      -11.341972   1.000000
    2      -10.766963   1.000000
    3       -9.938456   1.000000
    4       -8.502505   1.000000
    5       -8.448866   1.000000
    6       -8.096140   1.000000
    7       -8.069116   1.000000
    8       -8.016998   1.000000
    9       -7.869693   1.000000
   10       -7.742792   1.000000
   11       -7.601854   1.000000
   12       -7.538480   1.000000
   13       -7.537998   1.000000
   14       -7.529658   1.000000
   15       -7.203718   1.000000
   16       -7.184135   1.000000
   17       -7.146906   1.000000
   18       -6.951546   1.000000
   19       -6.889559   1.000000
   20       -6.644480   1.000000
   21       -6.075735   1.000000
   22       -5.985813   1.000000
   23       -5.766771   1.000000
   24       -5.705508   1.000000
   25       -5.651069   1.000000
   26       -5.627606   1.000000
   27       -5.593850   1.000000
   28       -5.135627   1.000000
   29       -5.029937   1.000000
   30       -5.012120   1.000000
   31       -4.510805   1.000000
   32       -4.379173   1.000000
   33       -4.368301   1.000000
   34       -4.090484   1.000000
   35       -4.070670   1.000000
   36       -4.011130   1.000000
   37       -3.807604   1.000000
   38       -3.388578   1.000000
   39       -3.211924   1.000000
   40       -3.050390   1.000000
   41       -2.873445   1.000000
   42       -2.741342   1.000000
   43       -2.685585   1.000000
   44       -2.481185   1.000000
   45       -2.463196   1.000000
   46       -2.294797   1.000000
   47       -2.266767   1.000000
   48       -2.123021   1.000000
   49       -2.079756   1.000000
   50       -1.940580   1.000000
   51       -1.823760   1.000000
   52       -1.794796   1.000000
   53       -1.739405   1.000000
   54       -1.665952   1.000000
   55       -1.651100   1.000000
   56       -1.583778   1.000000
   57       -1.515150   1.000000
   58       -1.475634   1.000000
   59       -1.396307   1.000000
   60       -1.356383   1.000000
   61       -1.356260   1.000000
   62       -1.313578   1.000000
   63       -1.161137   1.000000
   64       -0.959881   1.000000
   65       -0.951865   1.000000
   66       -0.864455   1.000000
   67       -0.780641   1.000000
   68       -0.709592   1.000000
   69       -0.679573   1.000000
   70       -0.599215   1.000000
   71       -0.559952   1.000000
   72       -0.481885   1.000000
   73       -0.411218   1.000000
   74       -0.085179   1.000000
   75        0.005851   1.000000
   76        0.013564   1.000000
   77        0.196873   1.000000
   78        0.317156   1.000000
   79        0.405179   1.000000
   80        0.540530   1.000000
   81        0.626284   1.000000
   82        0.637503   1.000000
   83        1.174051   1.000000
   84        1.220199   1.000000
   85        1.386424   1.000000
   86        1.427006   1.000000
   87        1.444795   1.000000
   88        1.570127   1.000000
   89        1.617115   1.000000
   90        1.688428   1.000000
   91        1.761007   1.000000
   92        1.808300   1.000000
   93        1.819261   1.000000
   94        2.015018   1.000000
   95        2.201007   1.000002
   96        2.246483   1.000007
   97        2.330263   1.000092
   98        2.330843   1.000094
   99        2.768861   0.992316
  100        2.844632   0.829360
  101        2.908628   0.592611
  102        3.137380  -0.028271
  103        3.265705  -0.019640
  104        3.407498  -0.001912
  105        3.422534  -0.001386
  106        3.581286  -0.000021
  107        3.603324  -0.000011
  108        3.696955  -0.000000
  109        3.702343  -0.000000
  110        3.718170  -0.000000
  111        3.840710  -0.000000
  112        3.864039  -0.000000
  113        3.986629  -0.000000
  114        4.004508  -0.000000
  115        4.076148  -0.000000
  116        4.127879  -0.000000
  117        4.218870  -0.000000
  118        4.274701  -0.000000
  119        4.407929  -0.000000
  120        4.442406  -0.000000
  121        4.458516  -0.000000
  122        4.519661  -0.000000
  123        4.593051  -0.000000
  124        4.623801  -0.000000
  125        5.198370  -0.000000
  126        5.359468  -0.000000
  127        5.424170  -0.000000
  128        5.760296  -0.000000
  129        6.145760  -0.000000
  130        6.270374  -0.000000
  131        6.346969  -0.000000
  132        6.744195  -0.000000

  0.1111111E+00  0.3687552E-15  0.1262379E-14  0.4938272E-01
    1      -11.284355   1.000000
    2      -10.715097   1.000000
    3       -9.900596   1.000000
    4       -8.484336   1.000000
    5       -8.462252   1.000000
    6       -8.193903   1.000000
    7       -8.150644   1.000000
    8       -8.072666   1.000000
    9       -8.035222   1.000000
   10       -7.936728   1.000000
   11       -7.832422   1.000000
   12       -7.785598   1.000000
   13       -7.665257   1.000000
   14       -7.612859   1.000000
   15       -7.020638   1.000000
   16       -6.962455   1.000000
   17       -6.805131   1.000000
   18       -6.760263   1.000000
   19       -6.650605   1.000000
   20       -6.459089   1.000000
   21       -6.062852   1.000000
   22       -6.035572   1.000000
   23       -5.823257   1.000000
   24       -5.688969   1.000000
   25       -5.683327   1.000000
   26       -5.552517   1.000000
   27       -5.510489   1.000000
   28       -5.170264   1.000000
   29       -5.048765   1.000000
   30       -5.039841   1.000000
   31       -4.389773   1.000000
   32       -4.329740   1.000000
   33       -4.168625   1.000000
   34       -4.056742   1.000000
   35       -3.977685   1.000000
   36       -3.912605   1.000000
   37       -3.653151   1.000000
   38       -3.361310   1.000000
   39       -3.192401   1.000000
   40       -3.020725   1.000000
   41       -2.922163   1.000000
   42       -2.792547   1.000000
   43       -2.688309   1.000000
   44       -2.516901   1.000000
   45       -2.435878   1.000000
   46       -2.388790   1.000000
   47       -2.343718   1.000000
   48       -2.204405   1.000000
   49       -2.162202   1.000000
   50       -2.096414   1.000000
   51       -1.841901   1.000000
   52       -1.792842   1.000000
   53       -1.726398   1.000000
   54       -1.680797   1.000000
   55       -1.637802   1.000000
   56       -1.541625   1.000000
   57       -1.495010   1.000000
   58       -1.426682   1.000000
   59       -1.388780   1.000000
   60       -1.357792   1.000000
   61       -1.336827   1.000000
   62       -1.296239   1.000000
   63       -1.198381   1.000000
   64       -1.014276   1.000000
   65       -0.989021   1.000000
   66       -0.956275   1.000000
   67       -0.889510   1.000000
   68       -0.796681   1.000000
   69       -0.738856   1.000000
   70       -0.627598   1.000000
   71       -0.578286   1.000000
   72       -0.434923   1.000000
   73       -0.338680   1.000000
   74       -0.169540   1.000000
   75       -0.091596   1.000000
   76       -0.020494   1.000000
   77        0.192957   1.000000
   78        0.220819   1.000000
   79        0.232002   1.000000
   80        0.465865   1.000000
   81        0.542368   1.000000
   82        0.596263   1.000000
   83        1.011132   1.000000
   84        1.076792   1.000000
   85        1.169249   1.000000
   86        1.395584   1.000000
   87        1.447746   1.000000
   88        1.494781   1.000000
   89        1.648057   1.000000
   90        1.660346   1.000000
   91        1.736223   1.000000
   92        1.776975   1.000000
   93        1.896092   1.000000
   94        1.954891   1.000000
   95        2.163502   1.000000
   96        2.249706   1.000008
   97        2.551764   1.011073
   98        2.643045   1.030300
   99        2.790286   0.960530
  100        2.831077   0.868957
  101        2.932598   0.491810
  102        3.007050   0.201430
  103        3.251314  -0.022915
  104        3.300501  -0.012613
  105        3.312465  -0.010607
  106        3.608871  -0.000009
  107        3.702184  -0.000000
  108        3.708906  -0.000000
  109        3.781615  -0.000000
  110        3.784275  -0.000000
  111        3.826249  -0.000000
  112        3.868970  -0.000000
  113        3.927277  -0.000000
  114        4.015969  -0.000000
  115        4.042182  -0.000000
  116        4.088132  -0.000000
  117        4.137049  -0.000000
  118        4.147112  -0.000000
  119        4.224156  -0.000000
  120        4.346954  -0.000000
  121        4.381191  -0.000000
  122        4.406078  -0.000000
  123        4.421290  -0.000000
  124        4.516257  -0.000000
  125        4.550895  -0.000000
  126        4.572122  -0.000000
  127        5.011788  -0.000000
  128        5.033074  -0.000000
  129        5.316990  -0.000000
  130        5.857281  -0.000000
  131        6.305452  -0.000000
  132        6.496713  -0.000000

  0.2222222E+00  0.3503827E-15  0.1262379E-14  0.4938272E-01
    1      -11.113684   1.000000
    2      -10.562154   1.000000
    3       -9.790765   1.000000
    4       -8.803495   1.000000
    5       -8.640939   1.000000
    6       -8.551221   1.000000
    7       -8.342424   1.000000
    8       -8.144255   1.000000
    9       -8.048414   1.000000
   10       -8.024170   1.000000
   11       -7.984687   1.000000
   12       -7.888897   1.000000
   13       -7.842899   1.000000
   14       -7.806515   1.000000
   15       -6.824245   1.000000
   16       -6.635600   1.000000
   17       -6.601491   1.000000
   18       -6.520879   1.000000
   19       -6.484107   1.000000
   20       -6.198499   1.000000
   21       -5.977642   1.000000
   22       -5.861178   1.000000
   23       -5.710682   1.000000
   24       -5.675387   1.000000
   25       -5.578921   1.000000
   26       -5.451717   1.000000
   27       -5.341500   1.000000
   28       -5.117822   1.000000
   29       -4.994796   1.000000
   30       -4.845492   1.000000
   31       -4.213345   1.000000
   32       -4.187180   1.000000
   33       -3.946790   1.000000
   34       -3.806745   1.000000
   35       -3.746682   1.000000
   36       -3.671042   1.000000
   37       -3.338095   1.000000
   38       -3.257555   1.000000
   39       -3.170890   1.000000
   40       -3.112439   1.000000
   41       -3.038804   1.000000
   42       -2.935135   1.000000
   43       -2.914535   1.000000
   44       -2.801117   1.000000
   45       -2.568263   1.000000
   46       -2.424676   1.000000
   47       -2.391295   1.000000
   48       -2.273288   1.000000
   49       -2.118558   1.000000
   50       -2.059026   1.000000
   51       -1.899452   1.000000
   52       -1.826247   1.000000
   53       -1.765594   1.000000
   54       -1.721939   1.000000
   55       -1.656935   1.000000
   56       -1.639134   1.000000
   57       -1.581475   1.000000
   58       -1.471041   1.000000
   59       -1.433551   1.000000
   60       -1.369595   1.000000
   61       -1.351547   1.000000
   62       -1.312257   1.000000
   63       -1.273110   1.000000
   64       -1.150082   1.000000
   65       -1.133823   1.000000
   66       -1.016757   1.000000
   67       -1.000505   1.000000
   68       -0.915313   1.000000
   69       -0.843274   1.000000
   70       -0.764745   1.000000
   71       -0.662919   1.000000
   72       -0.586787   1.000000
   73       -0.447287   1.000000
   74       -0.393802   1.000000
   75       -0.341021   1.000000
   76       -0.027488   1.000000
   77        0.061581   1.000000
   78        0.152151   1.000000
   79        0.213018   1.000000
   80        0.347645   1.000000
   81        0.523378   1.000000
   82        0.601568   1.000000
   83        0.734441   1.000000
   84        0.833525   1.000000
   85        1.031562   1.000000
   86        1.142322   1.000000
   87        1.317833   1.000000
   88        1.453862   1.000000
   89        1.501369   1.000000
   90        1.617695   1.000000
   91        1.627323   1.000000
   92        1.809645   1.000000
   93        1.857884   1.000000
   94        1.934127   1.000000
   95        2.088652   1.000000
   96        2.237062   1.000005
   97        2.521395   1.006863
   98        2.593643   1.019201
   99        2.779227   0.978267
  100        2.929810   0.503607
  101        3.081741   0.022261
  102        3.134309  -0.026917
  103        3.242388  -0.024980
  104        3.387691  -0.002864
  105        3.419849  -0.001469
  106        3.535260  -0.000082
  107        3.559844  -0.000040
  108        3.607335  -0.000009
  109        3.648920  -0.000002
  110        3.662924  -0.000001
  111        3.758701  -0.000000
  112        3.844558  -0.000000
  113        3.878468  -0.000000
  114        3.896743  -0.000000
  115        3.954654  -0.000000
  116        4.006553  -0.000000
  117        4.084057  -0.000000
  118        4.125999  -0.000000
  119        4.189000  -0.000000
  120        4.248414  -0.000000
  121        4.284410  -0.000000
  122        4.376800  -0.000000
  123        4.426314  -0.000000
  124        4.462869  -0.000000
  125        4.502175  -0.000000
  126        4.670988  -0.000000
  127        4.703113  -0.000000
  128        4.793325  -0.000000
  129        4.938735  -0.000000
  130        5.063686  -0.000000
  131        5.165226  -0.000000
  132        5.915881  -0.000000

  0.3333333E+00  0.3767071E-15  0.1262379E-14  0.4938272E-01
    1      -10.837183   1.000000
    2      -10.316676   1.000000
    3       -9.622737   1.000000
    4       -9.405801   1.000000
    5       -9.085157   1.000000
    6       -8.803299   1.000000
    7       -8.248687   1.000000
    8       -8.189952   1.000000
    9       -8.152589   1.000000
   10       -8.111650   1.000000
   11       -8.022071   1.000000
   12       -7.963823   1.000000
   13       -7.890965   1.000000
   14       -7.717137   1.000000
   15       -7.178387   1.000000
   16       -6.785666   1.000000
   17       -6.390698   1.000000
   18       -6.293531   1.000000
   19       -6.082818   1.000000
   20       -5.973568   1.000000
   21       -5.811209   1.000000
   22       -5.765363   1.000000
   23       -5.692983   1.000000
   24       -5.529838   1.000000
   25       -5.456959   1.000000
   26       -5.264225   1.000000
   27       -4.941196   1.000000
   28       -4.812716   1.000000
   29       -4.528577   1.000000
   30       -4.423210   1.000000
   31       -4.019902   1.000000
   32       -3.926066   1.000000
   33       -3.813061   1.000000
   34       -3.611627   1.000000
   35       -3.576768   1.000000
   36       -3.529489   1.000000
   37       -3.471573   1.000000
   38       -3.429425   1.000000
   39       -3.342277   1.000000
   40       -3.295906   1.000000
   41       -3.166526   1.000000
   42       -3.135936   1.000000
   43       -2.875015   1.000000
   44       -2.709402   1.000000
   45       -2.595937   1.000000
   46       -2.477582   1.000000
   47       -2.311382   1.000000
   48       -2.275480   1.000000
   49       -2.217798   1.000000
   50       -2.080868   1.000000
   51       -2.068249   1.000000
   52       -2.012427   1.000000
   53       -1.888042   1.000000
   54       -1.870047   1.000000
   55       -1.727501   1.000000
   56       -1.689607   1.000000
   57       -1.638796   1.000000
   58       -1.585214   1.000000
   59       -1.563154   1.000000
   60       -1.499470   1.000000
   61       -1.458950   1.000000
   62       -1.382956   1.000000
   63       -1.343528   1.000000
   64       -1.270514   1.000000
   65       -1.185712   1.000000
   66       -1.109576   1.000000
   67       -1.066070   1.000000
   68       -0.977108   1.000000
   69       -0.953828   1.000000
   70       -0.907563   1.000000
   71       -0.786331   1.000000
   72       -0.680070   1.000000
   73       -0.641495   1.000000
   74       -0.436023   1.000000
   75       -0.408635   1.000000
   76       -0.365807   1.000000
   77       -0.104297   1.000000
   78        0.021086   1.000000
   79        0.247551   1.000000
   80        0.463163   1.000000
   81        0.517685   1.000000
   82        0.587136   1.000000
   83        0.735075   1.000000
   84        0.785408   1.000000
   85        0.899619   1.000000
   86        1.119206   1.000000
   87        1.166421   1.000000
   88        1.306977   1.000000
   89        1.394975   1.000000
   90        1.501978   1.000000
   91        1.581174   1.000000
   92        1.675062   1.000000
   93        1.802401   1.000000
   94        1.850873   1.000000
   95        2.120262   1.000000
   96        2.223421   1.000003
   97        2.302745   1.000042
   98        2.435100   1.001278
   99        2.580798   1.016453
  100        2.852810   0.803381
  101        2.975541   0.315302
  102        3.092156   0.008066
  103        3.161900  -0.034664
  104        3.225313  -0.028826
  105        3.286561  -0.015232
  106        3.306045  -0.011655
  107        3.427192  -0.001251
  108        3.510818  -0.000161
  109        3.590888  -0.000016
  110        3.620137  -0.000006
  111        3.686316  -0.000001
  112        3.725126  -0.000000
  113        3.732040  -0.000000
  114        3.889996  -0.000000
  115        3.909273  -0.000000
  116        3.992659  -0.000000
  117        4.057435  -0.000000
  118        4.088585  -0.000000
  119        4.129453  -0.000000
  120        4.203145  -0.000000
  121        4.345111  -0.000000
  122        4.408164  -0.000000
  123        4.482903  -0.000000
  124        4.528540  -0.000000
  125        4.590954  -0.000000
  126        4.630703  -0.000000
  127        4.771953  -0.000000
  128        4.787885  -0.000000
  129        5.010087  -0.000000
  130        5.230489  -0.000000
  131        5.405221  -0.000000
  132        5.838898  -0.000000

  0.4444444E+00  0.3698634E-15  0.1262379E-14  0.4938272E-01
    1      -10.478710   1.000000
    2      -10.013191   1.000000
    3       -9.917585   1.000000
    4       -9.572521   1.000000
    5       -9.365565   1.000000
    6       -9.059898   1.000000
    7       -8.298145   1.000000
    8       -8.248677   1.000000
    9       -8.183118   1.000000
   10       -8.054657   1.000000
   11       -8.022904   1.000000
   12       -7.923414   1.000000
   13       -7.869482   1.000000
   14       -7.549590   1.000000
   15       -7.474074   1.000000
   16       -7.109938   1.000000
   17       -6.295536   1.000000
   18       -6.188488   1.000000
   19       -5.846417   1.000000
   20       -5.798149   1.000000
   21       -5.720281   1.000000
   22       -5.586449   1.000000
   23       -5.489134   1.000000
   24       -5.471493   1.000000
   25       -5.401067   1.000000
   26       -5.356178   1.000000
   27       -4.362223   1.000000
   28       -4.198982   1.000000
   29       -4.092634   1.000000
   30       -4.019806   1.000000
   31       -4.002380   1.000000
   32       -3.856461   1.000000
   33       -3.822651   1.000000
   34       -3.787204   1.000000
   35       -3.660496   1.000000
   36       -3.562729   1.000000
   37       -3.516449   1.000000
   38       -3.485932   1.000000
   39       -3.395390   1.000000
   40       -3.317523   1.000000
   41       -3.168360   1.000000
   42       -3.145567   1.000000
   43       -3.135277   1.000000
   44       -3.059105   1.000000
   45       -2.638656   1.000000
   46       -2.591877   1.000000
   47       -2.434187   1.000000
   48       -2.314335   1.000000
   49       -2.171100   1.000000
   50       -2.117152   1.000000
   51       -2.021505   1.000000
   52       -1.995431   1.000000
   53       -1.974191   1.000000
   54       -1.847152   1.000000
   55       -1.793440   1.000000
   56       -1.776073   1.000000
   57       -1.694304   1.000000
   58       -1.644611   1.000000
   59       -1.573277   1.000000
   60       -1.563209   1.000000
   61       -1.542847   1.000000
   62       -1.484872   1.000000
   63       -1.423571   1.000000
   64       -1.301026   1.000000
   65       -1.261865   1.000000
   66       -1.201453   1.000000
   67       -1.164305   1.000000
   68       -1.079501   1.000000
   69       -0.951477   1.000000
   70       -0.916222   1.000000
   71       -0.852019   1.000000
   72       -0.741726   1.000000
   73       -0.664054   1.000000
   74       -0.509701   1.000000
   75       -0.439718   1.000000
   76       -0.421976   1.000000
   77       -0.361418   1.000000
   78        0.103205   1.000000
   79        0.307666   1.000000
   80        0.329615   1.000000
   81        0.360689   1.000000
   82        0.694758   1.000000
   83        0.749901   1.000000
   84        0.869844   1.000000
   85        0.903001   1.000000
   86        1.064386   1.000000
   87        1.099664   1.000000
   88        1.223858   1.000000
   89        1.351548   1.000000
   90        1.503781   1.000000
   91        1.570385   1.000000
   92        1.671732   1.000000
   93        1.786821   1.000000
   94        1.942206   1.000000
   95        2.021502   1.000000
   96        2.252593   1.000009
   97        2.323929   1.000077
   98        2.340788   1.000124
   99        2.408900   1.000702
  100        2.502465   1.004938
  101        2.543887   1.009840
  102        2.856598   0.790840
  103        2.955977   0.393829
  104        3.111328  -0.011969
  105        3.184497  -0.035172
  106        3.319410  -0.009548
  107        3.384694  -0.003038
  108        3.411228  -0.001768
  109        3.466084  -0.000506
  110        3.530350  -0.000094
  111        3.574304  -0.000026
  112        3.601807  -0.000011
  113        3.683564  -0.000001
  114        3.800642  -0.000000
  115        3.866943  -0.000000
  116        3.973448  -0.000000
  117        4.039534  -0.000000
  118        4.069543  -0.000000
  119        4.150700  -0.000000
  120        4.208789  -0.000000
  121        4.376694  -0.000000
  122        4.468908  -0.000000
  123        4.504530  -0.000000
  124        4.585818  -0.000000
  125        4.660966  -0.000000
  126        4.683704  -0.000000
  127        4.881074  -0.000000
  128        5.000653  -0.000000
  129        5.205621  -0.000000
  130        5.368095  -0.000000
  131        5.427613  -0.000000
  132        5.671649  -0.000000

  0.1111111E+00  0.1111111E+00  0.1262379E-14  0.2469136E-01
    1      -11.169983   1.000000
    2      -10.612818   1.000000
    3       -9.827226   1.000000
    4       -8.547097   1.000000
    5       -8.530853   1.000000
    6       -8.428445   1.000000
    7       -8.407939   1.000000
    8       -8.254708   1.000000
    9       -8.169829   1.000000
   10       -8.134203   1.000000
   11       -7.950900   1.000000
   12       -7.944468   1.000000
   13       -7.658372   1.000000
   14       -7.244366   1.000000
   15       -7.195484   1.000000
   16       -6.720293   1.000000
   17       -6.718254   1.000000
   18       -6.571244   1.000000
   19       -6.488469   1.000000
   20       -6.133912   1.000000
   21       -6.016255   1.000000
   22       -6.003444   1.000000
   23       -5.792717   1.000000
   24       -5.667609   1.000000
   25       -5.560435   1.000000
   26       -5.463023   1.000000
   27       -5.391413   1.000000
   28       -5.162046   1.000000
   29       -4.983541   1.000000
   30       -4.914923   1.000000
   31       -4.482444   1.000000
   32       -4.166339   1.000000
   33       -3.951213   1.000000
   34       -3.916708   1.000000
   35       -3.785629   1.000000
   36       -3.662085   1.000000
   37       -3.422831   1.000000
   38       -3.354098   1.000000
   39       -3.204164   1.000000
   40       -3.094399   1.000000
   41       -2.986157   1.000000
   42       -2.916656   1.000000
   43       -2.798944   1.000000
   44       -2.610810   1.000000
   45       -2.550186   1.000000
   46       -2.370099   1.000000
   47       -2.357590   1.000000
   48       -2.187158   1.000000
   49       -2.186751   1.000000
   50       -2.090487   1.000000
   51       -2.061500   1.000000
   52       -1.867929   1.000000
   53       -1.804347   1.000000
   54       -1.651452   1.000000
   55       -1.640740   1.000000
   56       -1.588440   1.000000
   57       -1.527888   1.000000
   58       -1.432600   1.000000
   59       -1.423543   1.000000
   60       -1.343393   1.000000
   61       -1.309182   1.000000
   62       -1.263380   1.000000
   63       -1.170393   1.000000
   64       -1.142247   1.000000
   65       -1.132663   1.000000
   66       -1.005660   1.000000
   67       -0.992369   1.000000
   68       -0.844433   1.000000
   69       -0.825537   1.000000
   70       -0.697256   1.000000
   71       -0.573914   1.000000
   72       -0.515005   1.000000
   73       -0.435792   1.000000
   74       -0.385045   1.000000
   75       -0.332963   1.000000
   76       -0.060541   1.000000
   77        0.162215   1.000000
   78        0.177403   1.000000
   79        0.240799   1.000000
   80        0.407383   1.000000
   81        0.466075   1.000000
   82        0.567470   1.000000
   83        0.620392   1.000000
   84        0.932863   1.000000
   85        1.189099   1.000000
   86        1.211284   1.000000
   87        1.449809   1.000000
   88        1.509853   1.000000
   89        1.537822   1.000000
   90        1.572280   1.000000
   91        1.581331   1.000000
   92        1.718125   1.000000
   93        1.845384   1.000000
   94        2.072536   1.000000
   95        2.077509   1.000000
   96        2.252994   1.000009
   97        2.640168   1.029709
   98        2.700599   1.034515
   99        2.734271   1.023152
  100        2.784780   0.969724
  101        3.044641   0.093954
  102        3.146636  -0.031553
  103        3.169485  -0.035307
  104        3.325542  -0.008676
  105        3.406532  -0.001952
  106        3.508432  -0.000172
  107        3.639797  -0.000003
  108        3.659923  -0.000002
  109        3.788438  -0.000000
  110        3.796423  -0.000000
  111        3.803539  -0.000000
  112        3.861771  -0.000000
  113        3.905007  -0.000000
  114        3.938636  -0.000000
  115        4.001583  -0.000000
  116        4.035148  -0.000000
  117        4.076240  -0.000000
  118        4.130148  -0.000000
  119        4.152429  -0.000000
  120        4.194559  -0.000000
  121        4.269788  -0.000000
  122        4.287154  -0.000000
  123        4.389938  -0.000000
  124        4.504814  -0.000000
  125        4.579649  -0.000000
  126        4.659629  -0.000000
  127        4.803991  -0.000000
  128        4.829511  -0.000000
  129        4.895875  -0.000000
  130        5.296700  -0.000000
  131        6.084850  -0.000000
  132        6.644423  -0.000000

  0.2222222E+00  0.1111111E+00  0.1262379E-14  0.4938272E-01
    1      -10.945910   1.000000
    2      -10.413426   1.000000
    3       -9.687285   1.000000
    4       -9.091278   1.000000
    5       -8.835103   1.000000
    6       -8.664197   1.000000
    7       -8.588874   1.000000
    8       -8.451601   1.000000
    9       -8.320660   1.000000
   10       -8.201015   1.000000
   11       -7.843029   1.000000
   12       -7.800186   1.000000
   13       -7.607831   1.000000
   14       -7.406168   1.000000
   15       -6.954882   1.000000
   16       -6.741418   1.000000
   17       -6.651013   1.000000
   18       -6.582125   1.000000
   19       -6.466296   1.000000
   20       -6.140487   1.000000
   21       -5.977477   1.000000
   22       -5.624972   1.000000
   23       -5.516528   1.000000
   24       -5.441188   1.000000
   25       -5.289608   1.000000
   26       -5.218689   1.000000
   27       -5.109844   1.000000
   28       -4.958015   1.000000
   29       -4.728686   1.000000
   30       -4.646445   1.000000
   31       -4.473079   1.000000
   32       -4.145442   1.000000
   33       -3.724908   1.000000
   34       -3.638229   1.000000
   35       -3.553940   1.000000
   36       -3.504465   1.000000
   37       -3.418405   1.000000
   38       -3.371057   1.000000
   39       -3.265215   1.000000
   40       -3.188986   1.000000
   41       -3.025921   1.000000
   42       -2.963667   1.000000
   43       -2.800601   1.000000
   44       -2.725375   1.000000
   45       -2.584333   1.000000
   46       -2.478981   1.000000
   47       -2.431820   1.000000
   48       -2.254992   1.000000
   49       -2.163528   1.000000
   50       -2.096963   1.000000
   51       -2.077521   1.000000
   52       -1.986208   1.000000
   53       -1.951324   1.000000
   54       -1.874908   1.000000
   55       -1.848457   1.000000
   56       -1.696914   1.000000
   57       -1.624897   1.000000
   58       -1.535640   1.000000
   59       -1.452142   1.000000
   60       -1.383399   1.000000
   61       -1.365324   1.000000
   62       -1.315098   1.000000
   63       -1.301553   1.000000
   64       -1.200292   1.000000
   65       -1.165399   1.000000
   66       -1.062179   1.000000
   67       -1.047521   1.000000
   68       -0.980609   1.000000
   69       -0.941115   1.000000
   70       -0.867402   1.000000
   71       -0.705152   1.000000
   72       -0.619101   1.000000
   73       -0.557126   1.000000
   74       -0.542715   1.000000
   75       -0.406464   1.000000
   76       -0.111224   1.000000
   77       -0.061520   1.000000
   78        0.104808   1.000000
   79        0.186411   1.000000
   80        0.330790   1.000000
   81        0.362209   1.000000
   82        0.486257   1.000000
   83        0.824627   1.000000
   84        0.896044   1.000000
   85        1.009149   1.000000
   86        1.134668   1.000000
   87        1.237004   1.000000
   88        1.394150   1.000000
   89        1.440049   1.000000
   90        1.505046   1.000000
   91        1.616721   1.000000
   92        1.661963   1.000000
   93        1.746049   1.000000
   94        1.866086   1.000000
   95        2.156660   1.000000
   96        2.227255   1.000004
   97        2.342233   1.000129
   98        2.488637   1.003827