   50   50   85    1
  0.2005953E+02  0.8733603E-09  0.6079487E-09  0.2183401E-08  0.5000000E-15
   1.0000000000000000E-004
  CAR 
 Name                                    
    186     50    120

  0.3742002E-15  0.3742002E-15  0.1262379E-14  0.1010101E-01
    1      -13.165189   1.000000
    2      -11.861114   1.000000
    3      -11.706939   1.000000
    4      -11.303372   1.000000
    5      -10.718113   1.000000
    6      -10.414278   1.000000
    7      -10.258855   1.000000
    8      -10.163953   1.000000
    9      -10.059649   1.000000
   10       -9.872586   1.000000
   11       -9.864790   1.000000
   12       -9.567304   1.000000
   13       -9.403961   1.000000
   14       -9.346647   1.000000
   15       -9.021256   1.000000
   16       -8.940934   1.000000
   17       -8.356696   1.000000
   18       -8.287706   1.000000
   19       -7.891655   1.000000
   20       -7.698509   1.000000
   21       -7.596408   1.000000
   22       -7.449789   1.000000
   23       -7.371429   1.000000
   24       -7.254414   1.000000
   25       -7.212940   1.000000
   26       -7.202282   1.000000
   27       -6.715305   1.000000
   28       -6.445243   1.000000
   29       -5.796728   1.000000
   30       -5.755633   1.000000
   31       -5.556854   1.000000
   32       -5.421176   1.000000
   33       -5.285606   1.000000
   34       -5.001273   1.000000
   35       -4.903562   1.000000
   36       -4.825083   1.000000
   37       -4.724709   1.000000
   38       -4.481035   1.000000
   39       -4.472507   1.000000
   40       -4.388140   1.000000
   41       -4.250194   1.000000
   42       -4.175128   1.000000
   43       -4.033809   1.000000
   44       -3.985310   1.000000
   45       -3.938952   1.000000
   46       -3.900328   1.000000
   47       -3.831421   1.000000
   48       -3.722044   1.000000
   49       -3.716660   1.000000
   50       -3.636340   1.000000
   51       -3.595341   1.000000
   52       -3.552738   1.000000
   53       -3.315119   1.000000
   54       -3.236759   1.000000
   55       -3.211785   1.000000
   56       -3.184098   1.000000
   57       -3.109911   1.000000
   58       -2.999090   1.000000
   59       -2.976165   1.000000
   60       -2.911037   1.000000
   61       -2.756632   1.000000
   62       -2.704608   1.000000
   63       -2.678890   1.000000
   64       -2.566023   1.000000
   65       -2.512876   1.000000
   66       -2.445622   1.000000
   67       -2.412074   1.000000
   68       -2.266059   1.000000
   69       -2.246836   1.000000
   70       -2.217471   1.000000
   71       -2.154200   1.000000
   72       -2.093085   1.000000
   73       -1.677033   1.000000
   74       -1.517216   1.000000
   75       -1.419751   1.000000
   76       -1.348988   1.000000
   77       -1.292191   1.000000
   78       -1.232718   1.000000
   79       -1.160457   1.000000
   80       -1.109372   1.000000
   81       -0.730892   1.000000
   82       -0.649294   1.000000
   83       -0.483047   1.000000
   84       -0.347675   1.000000
   85       -0.269549   1.000000
   86       -0.079306   1.000000
   87       -0.004030   1.000000
   88        0.048359   1.000000
   89        0.073006   1.000000
   90        0.508477   1.001301
   91        0.533924   1.003696
   92        0.809386   0.111128
   93        0.852152  -0.020844
   94        0.887115  -0.034405
   95        0.955645  -0.008049
   96        1.001579  -0.001399
   97        1.076482  -0.000028
   98        1.220701  -0.000000
   99        1.298021  -0.000000
  100        1.307699  -0.000000
  101        1.321630  -0.000000
  102        1.430444  -0.000000
  103        1.488492  -0.000000
  104        1.496762  -0.000000
  105        1.517157  -0.000000
  106        1.674121  -0.000000
  107        1.866542  -0.000000
  108        1.932781  -0.000000
  109        1.937048  -0.000000
  110        1.980197  -0.000000
  111        2.035846  -0.000000
  112        2.089293  -0.000000
  113        2.122001  -0.000000
  114        2.128711  -0.000000
  115        2.175148  -0.000000
  116        2.278293  -0.000000
  117        2.309755  -0.000000
  118        2.428986  -0.000000
  119        2.483828  -0.000000
  120        2.512489  -0.000000

  0.1111111E+00  0.3694577E-15  0.1266495E-14  0.2020202E-01
    1      -13.140079   1.000000
    2      -11.858478   1.000000
    3      -11.818582   1.000000
    4      -11.222286   1.000000
    5      -10.712731   1.000000
    6      -10.440810   1.000000
    7      -10.246644   1.000000
    8      -10.166285   1.000000
    9      -10.063639   1.000000
   10       -9.865651   1.000000
   11       -9.856962   1.000000
   12       -9.567261   1.000000
   13       -9.397463   1.000000
   14       -9.346331   1.000000
   15       -9.009839   1.000000
   16       -8.922127   1.000000
   17       -8.366523   1.000000
   18       -8.266406   1.000000
   19       -7.892146   1.000000
   20       -7.692705   1.000000
   21       -7.614868   1.000000
   22       -7.508526   1.000000
   23       -7.425706   1.000000
   24       -7.253773   1.000000
   25       -7.206536   1.000000
   26       -7.146166   1.000000
   27       -6.779727   1.000000
   28       -6.474185   1.000000
   29       -5.788725   1.000000
   30       -5.711660   1.000000
   31       -5.517551   1.000000
   32       -5.373128   1.000000
   33       -5.257768   1.000000
   34       -5.076864   1.000000
   35       -4.904005   1.000000
   36       -4.828575   1.000000
   37       -4.731322   1.000000
   38       -4.562914   1.000000
   39       -4.429655   1.000000
   40       -4.397519   1.000000
   41       -4.238597   1.000000
   42       -4.107028   1.000000
   43       -4.010734   1.000000
   44       -3.949002   1.000000
   45       -3.917967   1.000000
   46       -3.881237   1.000000
   47       -3.798326   1.000000
   48       -3.759488   1.000000
   49       -3.707007   1.000000
   50       -3.621596   1.000000
   51       -3.577527   1.000000
   52       -3.534908   1.000000
   53       -3.312885   1.000000
   54       -3.241785   1.000000
   55       -3.211851   1.000000
   56       -3.173189   1.000000
   57       -3.094048   1.000000
   58       -3.030514   1.000000
   59       -2.996538   1.000000
   60       -2.933934   1.000000
   61       -2.763906   1.000000
   62       -2.702246   1.000000
   63       -2.682755   1.000000
   64       -2.576133   1.000000
   65       -2.544987   1.000000
   66       -2.449360   1.000000
   67       -2.423235   1.000000
   68       -2.247862   1.000000
   69       -2.216442   1.000000
   70       -2.207456   1.000000
   71       -2.160711   1.000000
   72       -2.072563   1.000000
   73       -1.754226   1.000000
   74       -1.517299   1.000000
   75       -1.449572   1.000000
   76       -1.385146   1.000000
   77       -1.299793   1.000000
   78       -1.249621   1.000000
   79       -1.171405   1.000000
   80       -1.096509   1.000000
   81       -0.705367   1.000000
   82       -0.625297   1.000000
   83       -0.504109   1.000000
   84       -0.343747   1.000000
   85       -0.295924   1.000000
   86       -0.086985   1.000000
   87        0.005361   1.000000
   88        0.074088   1.000000
   89        0.150333   1.000000
   90        0.465729   1.000160
   91        0.490284   1.000562
   92        0.809244   0.111861
   93        0.819321   0.065040
   94        0.961958  -0.006531
   95        0.985899  -0.002695
   96        1.026594  -0.000436
   97        1.029943  -0.000369
   98        1.239001  -0.000000
   99        1.277395  -0.000000
  100        1.325416  -0.000000
  101        1.334824  -0.000000
  102        1.438763  -0.000000
  103        1.497697  -0.000000
  104        1.515123  -0.000000
  105        1.535179  -0.000000
  106        1.689578  -0.000000
  107        1.901587  -0.000000
  108        1.937244  -0.000000
  109        1.958969  -0.000000
  110        1.981995  -0.000000
  111        2.040892  -0.000000
  112        2.087729  -0.000000
  113        2.128892  -0.000000
  114        2.143591  -0.000000
  115        2.197366  -0.000000
  116        2.271123  -0.000000
  117        2.297499  -0.000000
  118        2.426127  -0.000000
  119        2.465271  -0.000000
  120        2.513705  -0.000000

  0.2222222E+00  0.3681327E-15  0.1265439E-14  0.2020202E-01
    1      -13.065396   1.000000
    2      -12.083338   1.000000
    3      -11.770086   1.000000
    4      -11.155994   1.000000
    5      -10.694207   1.000000
    6      -10.472463   1.000000
    7      -10.216829   1.000000
    8      -10.172346   1.000000
    9      -10.063828   1.000000
   10       -9.850155   1.000000
   11       -9.836763   1.000000
   12       -9.591705   1.000000
   13       -9.385434   1.000000
   14       -9.348012   1.000000
   15       -8.976932   1.000000
   16       -8.865682   1.000000
   17       -8.382102   1.000000
   18       -8.190213   1.000000
   19       -7.898514   1.000000
   20       -7.699346   1.000000
   21       -7.695997   1.000000
   22       -7.622710   1.000000
   23       -7.496559   1.000000
   24       -7.273898   1.000000
   25       -7.232132   1.000000
   26       -7.017356   1.000000
   27       -6.898466   1.000000
   28       -6.520397   1.000000
   29       -5.771760   1.000000
   30       -5.632506   1.000000
   31       -5.473321   1.000000
   32       -5.320122   1.000000
   33       -5.252123   1.000000
   34       -5.167949   1.000000
   35       -4.892830   1.000000
   36       -4.801679   1.000000
   37       -4.733101   1.000000
   38       -4.632402   1.000000
   39       -4.340833   1.000000
   40       -4.296689   1.000000
   41       -4.218780   1.000000
   42       -4.115085   1.000000
   43       -4.015873   1.000000
   44       -3.931360   1.000000
   45       -3.891984   1.000000
   46       -3.834567   1.000000
   47       -3.776384   1.000000
   48       -3.711524   1.000000
   49       -3.656134   1.000000
   50       -3.569861   1.000000
   51       -3.526558   1.000000
   52       -3.506798   1.000000
   53       -3.326111   1.000000
   54       -3.243594   1.000000
   55       -3.209048   1.000000
   56       -3.165044   1.000000
   57       -3.097318   1.000000
   58       -3.064907   1.000000
   59       -3.038347   1.000000
   60       -2.944409   1.000000
   61       -2.751624   1.000000
   62       -2.715392   1.000000
   63       -2.693018   1.000000
   64       -2.604817   1.000000
   65       -2.575449   1.000000
   66       -2.472322   1.000000
   67       -2.458535   1.000000
   68       -2.324408   1.000000
   69       -2.269659   1.000000
   70       -2.107330   1.000000
   71       -2.051466   1.000000
   72       -2.003915   1.000000
   73       -1.916147   1.000000
   74       -1.575849   1.000000
   75       -1.492077   1.000000
   76       -1.462034   1.000000
   77       -1.380109   1.000000
   78       -1.285672   1.000000
   79       -1.207947   1.000000
   80       -0.998686   1.000000
   81       -0.800775   1.000000
   82       -0.581499   1.000000
   83       -0.429689   1.000000
   84       -0.400589   1.000000
   85       -0.293650   1.000000
   86       -0.062003   1.000000
   87        0.044236   1.000000
   88        0.117537   1.000000
   89        0.325280   1.000000
   90        0.382978   1.000001
   91        0.394897   1.000002
   92        0.713049   0.828070
   93        0.906620  -0.027309
   94        0.947352  -0.010420
   95        0.971840  -0.004612
   96        1.053139  -0.000109
   97        1.162099  -0.000000
   98        1.238679  -0.000000
   99        1.278689  -0.000000
  100        1.298215  -0.000000
  101        1.346080  -0.000000
  102        1.494443  -0.000000
  103        1.516903  -0.000000
  104        1.541807  -0.000000
  105        1.586494  -0.000000
  106        1.807563  -0.000000
  107        1.886863  -0.000000
  108        1.963561  -0.000000
  109        1.978544  -0.000000
  110        2.034889  -0.000000
  111        2.057809  -0.000000
  112        2.102103  -0.000000
  113        2.137344  -0.000000
  114        2.183481  -0.000000
  115        2.226427  -0.000000
  116        2.276566  -0.000000
  117        2.307802  -0.000000
  118        2.396515  -0.000000
  119        2.424533  -0.000000
  120        2.494393  -0.000000

  0.3333333E+00  0.3672355E-15  0.1308213E-14  0.2020202E-01
    1      -12.943168   1.000000
    2      -12.335191   1.000000
    3      -11.667316   1.000000
    4      -11.218102   1.000000
    5      -10.655460   1.000000
    6      -10.462198   1.000000
    7      -10.193069   1.000000
    8      -10.179486   1.000000
    9      -10.031910   1.000000
   10       -9.834497   1.000000
   11       -9.816424   1.000000
   12       -9.660317   1.000000
   13       -9.376369   1.000000
   14       -9.352529   1.000000
   15       -8.931503   1.000000
   16       -8.779755   1.000000
   17       -8.385935   1.000000
   18       -8.058274   1.000000
   19       -7.958572   1.000000
   20       -7.826016   1.000000
   21       -7.773485   1.000000
   22       -7.624652   1.000000
   23       -7.529438   1.000000
   24       -7.311890   1.000000
   25       -7.289189   1.000000
   26       -7.166178   1.000000
   27       -6.721697   1.000000
   28       -6.504059   1.000000
   29       -5.773129   1.000000
   30       -5.741221   1.000000
   31       -5.514539   1.000000
   32       -5.444331   1.000000
   33       -5.212139   1.000000
   34       -4.994120   1.000000
   35       -4.819073   1.000000
   36       -4.730641   1.000000
   37       -4.683718   1.000000
   38       -4.584543   1.000000
   39       -4.332549   1.000000
   40       -4.281756   1.000000
   41       -4.130452   1.000000
   42       -4.081234   1.000000
   43       -4.062225   1.000000
   44       -4.033999   1.000000
   45       -3.894224   1.000000
   46       -3.812385   1.000000
   47       -3.709516   1.000000
   48       -3.640377   1.000000
   49       -3.570657   1.000000
   50       -3.532070   1.000000
   51       -3.489976   1.000000
   52       -3.453511   1.000000
   53       -3.353348   1.000000
   54       -3.283971   1.000000
   55       -3.228381   1.000000
   56       -3.157435   1.000000
   57       -3.100185   1.000000
   58       -3.061548   1.000000
   59       -2.972726   1.000000
   60       -2.928637   1.000000
   61       -2.765751   1.000000
   62       -2.718345   1.000000
   63       -2.699938   1.000000
   64       -2.648848   1.000000
   65       -2.621531   1.000000
   66       -2.546898   1.000000
   67       -2.435265   1.000000
   68       -2.391240   1.000000
   69       -2.314188   1.000000
   70       -2.117691   1.000000
   71       -2.009096   1.000000
   72       -1.962380   1.000000
   73       -1.886342   1.000000
   74       -1.682450   1.000000
   75       -1.567825   1.000000
   76       -1.510226   1.000000
   77       -1.450352   1.000000
   78       -1.323606   1.000000
   79       -1.238699   1.000000
   80       -1.026483   1.000000
   81       -0.760647   1.000000
   82       -0.677148   1.000000
   83       -0.527501   1.000000
   84       -0.319688   1.000000
   85       -0.175996   1.000000
   86        0.001459   1.000000
   87        0.111731   1.000000
   88        0.185633   1.000000
   89        0.270603   1.000000
   90        0.304559   1.000000
   91        0.569075   1.011965
   92        0.586592   1.018870
   93        0.890021  -0.033671
   94        0.947052  -0.010514
   95        0.981533  -0.003201
   96        1.105853  -0.000004
   97        1.149176  -0.000000
   98        1.179524  -0.000000
   99        1.271259  -0.000000
  100        1.321828  -0.000000
  101        1.459949  -0.000000
  102        1.557841  -0.000000
  103        1.610020  -0.000000
  104        1.628819  -0.000000
  105        1.651174  -0.000000
  106        1.760028  -0.000000
  107        1.941789  -0.000000
  108        1.970080  -0.000000
  109        2.036350  -0.000000
  110        2.064732  -0.000000
  111        2.103909  -0.000000
  112        2.141216  -0.000000
  113        2.164329  -0.000000
  114        2.213123  -0.000000
  115        2.227958  -0.000000
  116        2.321285  -0.000000
  117        2.341360  -0.000000
  118        2.363609  -0.000000
  119        2.387319  -0.000000
  120        2.444392  -0.000000

  0.4444444E+00  0.3795814E-15  0.1235432E-14  0.2020202E-01
    1      -12.777420   1.000000
    2      -12.569941   1.000000
    3      -11.539689   1.000000
    4      -11.350715   1.000000
    5      -10.622327   1.000000
    6      -10.440997   1.000000
    7      -10.187329   1.000000
    8      -10.184270   1.000000
    9       -9.968227   1.000000
   10       -9.839366   1.000000
   11       -9.805575   1.000000
   12       -9.729630   1.000000
   13       -9.369202   1.000000
   14       -9.360337   1.000000
   15       -8.896519   1.000000
   16       -8.701211   1.000000
   17       -8.375854   1.000000
   18       -8.064284   1.000000
   19       -7.942146   1.000000
   20       -7.912452   1.000000
   21       -7.768149   1.000000
   22       -7.601610   1.000000
   23       -7.572531   1.000000
   24       -7.348134   1.000000
   25       -7.337175   1.000000
   26       -7.309797   1.000000
   27       -6.559063   1.000000
   28       -6.356576   1.000000
   29       -6.051118   1.000000
   30       -5.770473   1.000000
   31       -5.595813   1.000000
   32       -5.443152   1.000000
   33       -5.191590   1.000000
   34       -4.814559   1.000000
   35       -4.724351   1.000000
   36       -4.657106   1.000000
   37       -4.571119   1.000000
   38       -4.536955   1.000000
   39       -4.417412   1.000000
   40       -4.366660   1.000000
   41       -4.147019   1.000000
   42       -4.141295   1.000000
   43       -4.044339   1.000000
   44       -3.962966   1.000000
   45       -3.909718   1.000000
   46       -3.712989   1.000000
   47       -3.697909   1.000000
   48       -3.655965   1.000000
   49       -3.603054   1.000000
   50       -3.499862   1.000000
   51       -3.436024   1.000000
   52       -3.425991   1.000000
   53       -3.370648   1.000000
   54       -3.300867   1.000000
   55       -3.234162   1.000000
   56       -3.139407   1.000000
   57       -3.077340   1.000000
   58       -3.003124   1.000000
   59       -2.941412   1.000000
   60       -2.864363   1.000000
   61       -2.820889   1.000000
   62       -2.750992   1.000000
   63       -2.726816   1.000000
   64       -2.688637   1.000000
   65       -2.630946   1.000000
   66       -2.618207   1.000000
   67       -2.412064   1.000000
   68       -2.380517   1.000000
   69       -2.312273   1.000000
   70       -2.226967   1.000000
   71       -2.026755   1.000000
   72       -1.951932   1.000000
   73       -1.801229   1.000000
   74       -1.688992   1.000000
   75       -1.601836   1.000000
   76       -1.560304   1.000000
   77       -1.535626   1.000000
   78       -1.280490   1.000000
   79       -1.247369   1.000000
   80       -1.162375   1.000000
   81       -0.758192   1.000000
   82       -0.636495   1.000000
   83       -0.601124   1.000000
   84       -0.338321   1.000000
   85       -0.044181   1.000000
   86        0.025763   1.000000
   87        0.133979   1.000000
   88        0.194689   1.000000
   89        0.261130   1.000000
   90        0.411897   1.000006
   91        0.461448   1.000127
   92        0.689390   0.946923
   93        0.840610  -0.001231
   94        0.880780  -0.035368
   95        1.013258  -0.000827
   96        1.042550  -0.000193
   97        1.101809  -0.000006
   98        1.247551  -0.000000
   99        1.297562  -0.000000
  100        1.404055  -0.000000
  101        1.432118  -0.000000
  102        1.579647  -0.000000
  103        1.603412  -0.000000
  104        1.689399  -0.000000
  105        1.753287  -0.000000
  106        1.864070  -0.000000
  107        1.919279  -0.000000
  108        2.032397  -0.000000
  109        2.053667  -0.000000
  110        2.120009  -0.000000
  111        2.146093  -0.000000
  112        2.176488  -0.000000
  113        2.196411  -0.000000
  114        2.236737  -0.000000
  115        2.254452  -0.000000
  116        2.273297  -0.000000
  117        2.290631  -0.000000
  118        2.329941  -0.000000
  119        2.353504  -0.000000
  120        2.386474  -0.000000

  0.3742002E-15  0.9090909E-01  0.1339361E-14  0.2020202E-01
    1      -13.132464   1.000000
    2      -11.832590   1.000000
    3      -11.715763   1.000000
    4      -11.263392   1.000000
    5      -10.698830   1.000000
    6      -10.436166   1.000000
    7      -10.409457   1.000000
    8      -10.382795   1.000000
    9      -10.150891   1.000000
   10       -9.820487   1.000000
   11       -9.741668   1.000000
   12       -9.533671   1.000000
   13       -9.369290   1.000000
   14       -9.340780   1.000000
   15       -9.018918   1.000000
   16       -8.882687   1.000000
   17       -8.339189   1.000000
   18       -8.256316   1.000000
   19       -7.941765   1.000000
   20       -7.824664   1.000000
   21       -7.751182   1.000000
   22       -7.373459   1.000000
   23       -7.202608   1.000000
   24       -7.141838   1.000000
   25       -7.033026   1.000000
   26       -6.998539   1.000000
   27       -6.721044   1.000000
   28       -6.455963   1.000000
   29       -5.825527   1.000000
   30       -5.726556   1.000000
   31       -5.561902   1.000000
   32       -5.414434   1.000000
   33       -5.289897   1.000000
   34       -5.083269   1.000000
   35       -4.866791   1.000000
   36       -4.806314   1.000000
   37       -4.699740   1.000000
   38       -4.494451   1.000000
   39       -4.460700   1.000000
   40       -4.395647   1.000000
   41       -4.277164   1.000000
   42       -4.189101   1.000000
   43       -4.140557   1.000000
   44       -4.043978   1.000000
   45       -3.954258   1.000000
   46       -3.930918   1.000000
   47       -3.877896   1.000000
   48       -3.812594   1.000000
   49       -3.715336   1.000000
   50       -3.639499   1.000000
   51       -3.612927   1.000000
   52       -3.545072   1.000000
   53       -3.356720   1.000000
   54       -3.317379   1.000000
   55       -3.258240   1.000000
   56       -3.191468   1.000000
   57       -3.116045   1.000000
   58       -2.998471   1.000000
   59       -2.962309   1.000000
   60       -2.908401   1.000000
   61       -2.783966   1.000000
   62       -2.676443   1.000000
   63       -2.660513   1.000000
   64       -2.573494   1.000000
   65       -2.484323   1.000000
   66       -2.440247   1.000000
   67       -2.405308   1.000000
   68       -2.324086   1.000000
   69       -2.227612   1.000000
   70       -2.176731   1.000000
   71       -2.089929   1.000000
   72       -2.074867   1.000000
   73       -1.865736   1.000000
   74       -1.494531   1.000000
   75       -1.405752   1.000000
   76       -1.342504   1.000000
   77       -1.286506   1.000000
   78       -1.214204   1.000000
   79       -1.111592   1.000000
   80       -1.079180   1.000000
   81       -0.784912   1.000000
   82       -0.553432   1.000000
   83       -0.500750   1.000000
   84       -0.370048   1.000000
   85       -0.276983   1.000000
   86       -0.129860   1.000000
   87       -0.021580   1.000000
   88        0.001103   1.000000
   89        0.097570   1.000000
   90        0.400393   1.000003
   91        0.543317   1.005222
   92        0.723764   0.756700
   93        0.785222   0.262960
   94        0.811675   0.099628
   95        0.893726  -0.032522
   96        0.988784  -0.002399
   97        1.073577  -0.000034
   98        1.198674  -0.000000
   99        1.209458  -0.000000
  100        1.330284  -0.000000
  101        1.358163  -0.000000
  102        1.500144  -0.000000
  103        1.536630  -0.000000
  104        1.553368  -0.000000
  105        1.678586  -0.000000
  106        1.702018  -0.000000
  107        1.876633  -0.000000
  108        1.903062  -0.000000
  109        1.966473  -0.000000
  110        1.997979  -0.000000
  111        2.042506  -0.000000
  112        2.075892  -0.000000
  113        2.124396  -0.000000
  114        2.146249  -0.000000
  115        2.212723  -0.000000
  116        2.283289  -0.000000
  117        2.310082  -0.000000
  118        2.360760  -0.000000
  119        2.453927  -0.000000
  120        2.505345  -0.000000

  0.1111111E+00  0.9090909E-01  0.1250028E-14  0.2020202E-01
    1      -13.086997   1.000000
    2      -11.917678   1.000000
    3      -11.786690   1.000000
    4      -11.161373   1.000000
    5      -10.688147   1.000000
    6      -10.503333   1.000000
    7      -10.437660   1.000000
    8      -10.330670   1.000000
    9      -10.104517   1.000000
   10       -9.812885   1.000000
   11       -9.712169   1.000000
   12       -9.542807   1.000000
   13       -9.404775   1.000000
   14       -9.366156   1.000000
   15       -8.983584   1.000000
   16       -8.832278   1.000000
   17       -8.352282   1.000000
   18       -8.215674   1.000000
   19       -7.944892   1.000000
   20       -7.884181   1.000000
   21       -7.757789   1.000000
   22       -7.452819   1.000000
   23       -7.257920   1.000000
   24       -7.079848   1.000000
   25       -7.031284   1.000000
   26       -6.976706   1.000000
   27       -6.823581   1.000000
   28       -6.485334   1.000000
   29       -5.835377   1.000000
   30       -5.656707   1.000000
   31       -5.501405   1.000000
   32       -5.321540   1.000000
   33       -5.254241   1.000000
   34       -5.172244   1.000000
   35       -4.960813   1.000000
   36       -4.780720   1.000000
   37       -4.663414   1.000000
   38       -4.623165   1.000000
   39       -4.399221   1.000000
   40       -4.362147   1.000000
   41       -4.274023   1.000000
   42       -4.186398   1.000000
   43       -4.068396   1.000000
   44       -3.999872   1.000000
   45       -3.921510   1.000000
   46       -3.863759   1.000000
   47       -3.844789   1.000000
   48       -3.783720   1.000000
   49       -3.702806   1.000000
   50       -3.631633   1.000000
   51       -3.577267   1.000000
   52       -3.529491   1.000000
   53       -3.373578   1.000000
   54       -3.323623   1.000000
   55       -3.251491   1.000000
   56       -3.180640   1.000000
   57       -3.076312   1.000000
   58       -3.042017   1.000000
   59       -2.992061   1.000000
   60       -2.880699   1.000000
   61       -2.793029   1.000000
   62       -2.713789   1.000000
   63       -2.686967   1.000000
   64       -2.625133   1.000000
   65       -2.519081   1.000000
   66       -2.461638   1.000000
   67       -2.429110   1.000000
   68       -2.273462   1.000000
   69       -2.225587   1.000000
   70       -2.140244   1.000000
   71       -2.092960   1.000000
   72       -2.067303   1.000000
   73       -1.921297   1.000000
   74       -1.515390   1.000000
   75       -1.479986   1.000000
   76       -1.419025   1.000000
   77       -1.328329   1.000000
   78       -1.242275   1.000000
   79       -1.090463   1.000000
   80       -1.024677   1.000000
   81       -0.834357   1.000000
   82       -0.590450   1.000000
   83       -0.464377   1.000000
   84       -0.394768   1.000000
   85       -0.272636   1.000000
   86       -0.162437   1.000000
   87        0.044702   1.000000
   88        0.121042   1.000000
   89        0.157994   1.000000
   90        0.353130   1.000000
   91        0.509604   1.001367
   92        0.725349   0.745327
   93        0.777829   0.318932
   94        0.914873  -0.023520
   95        0.933550  -0.015333
   96        0.991303  -0.002164
   97        1.051378  -0.000120
   98        1.159418  -0.000000
   99        1.171315  -0.000000
  100        1.388093  -0.000000
  101        1.440454  -0.000000
  102        1.485376  -0.000000
  103        1.547931  -0.000000
  104        1.569687  -0.000000
  105        1.661531  -0.000000
  106        1.722792  -0.000000
  107        1.916284  -0.000000
  108        1.948583  -0.000000
  109        1.960268  -0.000000
  110        1.981529  -0.000000
  111        2.054494  -0.000000
  112        2.074037  -0.000000
  113        2.150221  -0.000000
  114        2.185383  -0.000000
  115        2.228606  -0.000000
  116        2.284836  -0.000000
  117        2.307332  -0.000000
  118        2.363932  -0.000000
  119        2.423492  -0.000000
  120        2.488673  -0.000000

  0.2222222E+00  0.9090909E-01  0.1327369E-14  0.2020202E-01
    1      -12.992846   1.000000
    2      -12.164312   1.000000
    3      -11.708012   1.000000
    4      -11.146473   1.000000
    5      -10.661285   1.000000
    6      -10.556416   1.000000
    7      -10.452390   1.000000
    8      -10.274099   1.000000
    9      -10.040164   1.000000
   10       -9.779222   1.000000
   11       -9.661834   1.000000
   12       -9.595902   1.000000
   13       -9.465564   1.000000
   14       -9.402693   1.000000
   15       -8.919134   1.000000
   16       -8.740282   1.000000
   17       -8.362045   1.000000
   18       -8.136041   1.000000
   19       -8.031173   1.000000
   20       -7.885385   1.000000
   21       -7.774513   1.000000
   22       -7.588673   1.000000
   23       -7.351311   1.000000
   24       -7.096360   1.000000
   25       -7.040690   1.000000
   26       -6.957204   1.000000
   27       -6.819510   1.000000
   28       -6.506448   1.000000
   29       -5.856657   1.000000
   30       -5.623479   1.000000
   31       -5.462255   1.000000
   32       -5.386157   1.000000
   33       -5.253741   1.000000
   34       -5.091977   1.000000
   35       -4.954189   1.000000
   36       -4.808107   1.000000
   37       -4.649064   1.000000
   38       -4.589910   1.000000
   39       -4.365176   1.000000
   40       -4.316641   1.000000
   41       -4.207045   1.000000
   42       -4.149226   1.000000
   43       -4.093359   1.000000
   44       -3.984757   1.000000
   45       -3.880996   1.000000
   46       -3.848674   1.000000
   47       -3.793505   1.000000
   48       -3.714061   1.000000