 running on   48 total cores
 distrk:  each k-point on   48 cores,    1 groups
 distr:  one band on    8 cores,    6 groups
 using from now: INCAR     
 vasp.5.4.4.18Apr17-6-g9f103f2a35 (build Dec  7 2020 12:43:57) complex           
 POSCAR found type information on POSCAR  Mo V  B  H 
 POSCAR found :  4 types and      50 ions
 scaLAPACK will be used
 LDA part: xc-table for Pade appr. of Perdew
 POSCAR, INCAR and KPOINTS ok, starting setup
 resort distribution
 resort distribution
 resort distribution
 resort distribution
 resort distribution
 resort distribution
 resort distribution
 resort distribution
 resort distribution
 resort distribution
 resort distribution
 resort distribution
 resort distribution
 resort distribution
 resort distribution
 resort distribution
 resort distribution
 resort distribution
 resort distribution
 resort distribution
 resort distribution
 resort distribution
 resort distribution
 resort distribution
 resort distribution
 resort distribution
 resort distribution
 resort distribution
 resort distribution
 resort distribution
 resort distribution
 resort distribution
 resort distribution
 resort distribution
 resort distribution
 resort distribution
 resort distribution
 resort distribution
 resort distribution
 resort distribution
 resort distribution
 resort distribution
 resort distribution
 resort distribution
 resort distribution
 resort distribution
 resort distribution
 resort distribution
 FFT: planning ...
 WAVECAR not read
 augmentation electrons   186.00418422971850     
 soft         electrons   0.0000000000000000     
 augmentation electrons   186.00418422971850     
 soft         electrons   0.0000000000000000     
 augmentation electrons   186.00418422971850     
 soft         electrons   0.0000000000000000     
 augmentation electrons   186.00418422971850     
 soft         electrons   0.0000000000000000     
 augmentation electrons   186.00418422971850     
 soft         electrons   0.0000000000000000     
 augmentation electrons   186.00418422971850     
 soft         electrons   0.0000000000000000     
 augmentation electrons   186.00418422971850     
 soft         electrons   0.0000000000000000     
 augmentation electrons   186.00418422971850     
 soft         electrons   0.0000000000000000     
 augmentation electrons   186.00418422971850     
 soft         electrons   0.0000000000000000     
 augmentation electrons   186.00418422971850     
 soft         electrons   0.0000000000000000     
 augmentation electrons   186.00418422971850     
 soft         electrons   0.0000000000000000     
 augmentation electrons   186.00418422971850     
 soft         electrons   0.0000000000000000     
 augmentation electrons   186.00418422971850     
 soft         electrons   0.0000000000000000     
 augmentation electrons   186.00418422971850     
 soft         electrons   0.0000000000000000     
 augmentation electrons   186.00418422971850     
 soft         electrons   0.0000000000000000     
 augmentation electrons   186.00418422971850     
 soft         electrons   0.0000000000000000     
 augmentation electrons   186.00418422971850     
 soft         electrons   0.0000000000000000     
 augmentation electrons   186.00418422971850     
 soft         electrons   0.0000000000000000     
 augmentation electrons   186.00418422971850     
 soft         electrons   0.0000000000000000     
 augmentation electrons   186.00418422971850     
 soft         electrons   0.0000000000000000     
 augmentation electrons   186.00418422971850     
 soft         electrons   0.0000000000000000     
 augmentation electrons   186.00418422971850     
 soft         electrons   0.0000000000000000     
 augmentation electrons   186.00418422971850     
 soft         electrons   0.0000000000000000     
 augmentation electrons   186.00418422971850     
 soft         electrons   0.0000000000000000     
 augmentation electrons   186.00418422971850     
 soft         electrons   0.0000000000000000     
 augmentation electrons   186.00418422971850     
 soft         electrons   0.0000000000000000     
 augmentation electrons   186.00418422971850     
 soft         electrons   0.0000000000000000     
 augmentation electrons   186.00418422971850     
 soft         electrons   0.0000000000000000     
 augmentation electrons   186.00418422971850     
 soft         electrons   0.0000000000000000     
 augmentation electrons   186.00418422971850     
 soft         electrons   0.0000000000000000     
 augmentation electrons   186.00418422971850     
 soft         electrons   0.0000000000000000     
 augmentation electrons   186.00418422971850     
 soft         electrons   0.0000000000000000     
 augmentation electrons   186.00418422971850     
 soft         electrons   0.0000000000000000     
 augmentation electrons   186.00418422971850     
 soft         electrons   0.0000000000000000     
 augmentation electrons   186.00418422971850     
 soft         electrons   0.0000000000000000     
 augmentation electrons   186.00418422971850     
 soft         electrons   0.0000000000000000     
 augmentation electrons   186.00418422971850     
 soft         electrons   0.0000000000000000     
 augmentation electrons   186.00418422971850     
 soft         electrons   0.0000000000000000     
 augmentation electrons   186.00418422971850     
 soft         electrons   0.0000000000000000     
 augmentation electrons   186.00418422971850     
 soft         electrons   0.0000000000000000     
 augmentation electrons   186.00418422971850     
 soft         electrons   0.0000000000000000     
 augmentation electrons   186.00418422971850     
 soft         electrons   0.0000000000000000     
 augmentation electrons   186.00418422971850     
 soft         electrons   0.0000000000000000     
 augmentation electrons   186.00418422971850     
 soft         electrons   0.0000000000000000     
 augmentation electrons   186.00418422971850     
 soft         electrons   0.0000000000000000     
 augmentation electrons   186.00418422971850     
 soft         electrons   0.0000000000000000     
 augmentation electrons   186.00418422971850     
 soft         electrons   0.0000000000000000     
 augmentation electrons   186.00418422971850     
 soft         electrons   0.0000000000000000     
 total        electrons   186.00418422971850     
 total        electrons   186.00418422971850     
 total        electrons   186.00418422971850     
 total        electrons   186.00418422971850     
 total        electrons   186.00418422971850     
 total        electrons   186.00418422971850     
 total        electrons   186.00418422971850     
 total        electrons   186.00418422971850     
 total        electrons   186.00418422971850     
 total        electrons   186.00418422971850     
 total        electrons   186.00418422971850     
 total        electrons   186.00418422971850     
 total        electrons   186.00418422971850     
 total        electrons   186.00418422971850     
 total        electrons   186.00418422971850     
 total        electrons   186.00418422971850     
 total        electrons   186.00418422971850     
 total        electrons   186.00418422971850     
 total        electrons   186.00418422971850     
 total        electrons   186.00418422971850     
 total        electrons   186.00418422971850     
 total        electrons   186.00418422971850     
 total        electrons   186.00418422971850     
 total        electrons   186.00418422971850     
 total        electrons   186.00418422971850     
 total        electrons   186.00418422971850     
 total        electrons   186.00418422971850     
 total        electrons   186.00418422971850     
 total        electrons   186.00418422971850     
 total        electrons   186.00418422971850     
 total        electrons   186.00418422971850     
 total        electrons   186.00418422971850     
 total        electrons   186.00418422971850     
 total        electrons   186.00418422971850     
 total        electrons   186.00418422971850     
 total        electrons   186.00418422971850     
 total        electrons   186.00418422971850     
 total        electrons   186.00418422971850     
 total        electrons   186.00418422971850     
 total        electrons   186.00418422971850     
 total        electrons   186.00418422971850     
 total        electrons   186.00418422971850     
 total        electrons   186.00418422971850     
 total        electrons   186.00418422971850     
 total        electrons   186.00418422971850     
 total        electrons   186.00418422971850     
 total        electrons   186.00418422971850     
 total        electrons   186.00418422971850     
 augmentation electrons   484.16221061253600     
 soft         electrons   0.0000000000000000     
 augmentation electrons   484.16221061253600     
 soft         electrons   0.0000000000000000     
 augmentation electrons   484.16221061253600     
 soft         electrons   0.0000000000000000     
 augmentation electrons   484.16221061253600     
 soft         electrons   0.0000000000000000     
 augmentation electrons   484.16221061253600     
 soft         electrons   0.0000000000000000     
 augmentation electrons   484.16221061253600     
 soft         electrons   0.0000000000000000     
 augmentation electrons   484.16221061253600     
 soft         electrons   0.0000000000000000     
 augmentation electrons   484.16221061253600     
 soft         electrons   0.0000000000000000     
 augmentation electrons   484.16221061253600     
 soft         electrons   0.0000000000000000     
 augmentation electrons   484.16221061253600     
 soft         electrons   0.0000000000000000     
 augmentation electrons   484.16221061253600     
 soft         electrons   0.0000000000000000     
 augmentation electrons   484.16221061253600     
 soft         electrons   0.0000000000000000     
 augmentation electrons   484.16221061253600     
 soft         electrons   0.0000000000000000     
 augmentation electrons   484.16221061253600     
 soft         electrons   0.0000000000000000     
 augmentation electrons   484.16221061253600     
 soft         electrons   0.0000000000000000     
 augmentation electrons   484.16221061253600     
 soft         electrons   0.0000000000000000     
 augmentation electrons   484.16221061253600     
 soft         electrons   0.0000000000000000     
 augmentation electrons   484.16221061253600     
 soft         electrons   0.0000000000000000     
 augmentation electrons   484.16221061253600     
 soft         electrons   0.0000000000000000     
 augmentation electrons   484.16221061253600     
 soft         electrons   0.0000000000000000     
 augmentation electrons   484.16221061253600     
 soft         electrons   0.0000000000000000     
 augmentation electrons   484.16221061253600     
 soft         electrons   0.0000000000000000     
 augmentation electrons   484.16221061253600     
 soft         electrons   0.0000000000000000     
 augmentation electrons   484.16221061253600     
 soft         electrons   0.0000000000000000     
 augmentation electrons   484.16221061253600     
 soft         electrons   0.0000000000000000     
 augmentation electrons   484.16221061253600     
 soft         electrons   0.0000000000000000     
 augmentation electrons   484.16221061253600     
 soft         electrons   0.0000000000000000     
 augmentation electrons   484.16221061253600     
 soft         electrons   0.0000000000000000     
 augmentation electrons   484.16221061253600     
 soft         electrons   0.0000000000000000     
 augmentation electrons   484.16221061253600     
 soft         electrons   0.0000000000000000     
 augmentation electrons   484.16221061253600     
 soft         electrons   0.0000000000000000     
 augmentation electrons   484.16221061253600     
 soft         electrons   0.0000000000000000     
 augmentation electrons   484.16221061253600     
 soft         electrons   0.0000000000000000     
 augmentation electrons   484.16221061253600     
 soft         electrons   0.0000000000000000     
 augmentation electrons   484.16221061253600     
 soft         electrons   0.0000000000000000     
 augmentation electrons   484.16221061253600     
 soft         electrons   0.0000000000000000     
 augmentation electrons   484.16221061253600     
 soft         electrons   0.0000000000000000     
 augmentation electrons   484.16221061253600     
 soft         electrons   0.0000000000000000     
 augmentation electrons   484.16221061253600     
 soft         electrons   0.0000000000000000     
 augmentation electrons   484.16221061253600     
 soft         electrons   0.0000000000000000     
 augmentation electrons   484.16221061253600     
 soft         electrons   0.0000000000000000     
 augmentation electrons   484.16221061253600     
 soft         electrons   0.0000000000000000     
 augmentation electrons   484.16221061253600     
 soft         electrons   0.0000000000000000     
 augmentation electrons   484.16221061253600     
 soft         electrons   0.0000000000000000     
 augmentation electrons   484.16221061253600     
 soft         electrons   0.0000000000000000     
 augmentation electrons   484.16221061253600     
 soft         electrons   0.0000000000000000     
 augmentation electrons   484.16221061253600     
 soft         electrons   0.0000000000000000     
 augmentation electrons   484.16221061253600     
 soft         electrons   0.0000000000000000     
 total        electrons   484.16221061253600     
 total        electrons   484.16221061253600     
 total        electrons   484.16221061253600     
 total        electrons   484.16221061253600     
 total        electrons   484.16221061253600     
 total        electrons   484.16221061253600     
 total        electrons   484.16221061253600     
 total        electrons   484.16221061253600     
 total        electrons   484.16221061253600     
 total        electrons   484.16221061253600     
 total        electrons   484.16221061253600     
 total        electrons   484.16221061253600     
 total        electrons   484.16221061253600     
 total        electrons   484.16221061253600     
 total        electrons   484.16221061253600     
 total        electrons   484.16221061253600     
 total        electrons   484.16221061253600     
 total        electrons   484.16221061253600     
 total        electrons   484.16221061253600     
 total        electrons   484.16221061253600     
 total        electrons   484.16221061253600     
 total        electrons   484.16221061253600     
 total        electrons   484.16221061253600     
 total        electrons   484.16221061253600     
 total        electrons   484.16221061253600     
 total        electrons   484.16221061253600     
 total        electrons   484.16221061253600     
 total        electrons   484.16221061253600     
 total        electrons   484.16221061253600     
 total        electrons   484.16221061253600     
 total        electrons   484.16221061253600     
 total        electrons   484.16221061253600     
 total        electrons   484.16221061253600     
 total        electrons   484.16221061253600     
 total        electrons   484.16221061253600     
 total        electrons   484.16221061253600     
 total        electrons   484.16221061253600     
 total        electrons   484.16221061253600     
 total        electrons   484.16221061253600     
 total        electrons   484.16221061253600     
 total        electrons   484.16221061253600     
 total        electrons   484.16221061253600     
 total        electrons   484.16221061253600     
 total        electrons   484.16221061253600     
 total        electrons   484.16221061253600     
 total        electrons   484.16221061253600     
 total        electrons   484.16221061253600     
 total        electrons   484.16221061253600     
 entering main loop
       N       E                     dE             d eps       ncg     rms          rms(c)
DAV:   1     0.195776689965E+04    0.19578E+04   -0.64553E+04 12000   0.131E+03
DAV:   2     0.108522107345E+02   -0.19469E+04   -0.18102E+04 12804   0.336E+02
DAV:   3    -0.438059667235E+03   -0.44891E+03   -0.43400E+03 18276   0.187E+02
DAV:   4    -0.476262783024E+03   -0.38203E+02   -0.37122E+02 19800   0.616E+01
DAV:   5    -0.477805007194E+03   -0.15422E+01   -0.14964E+01 20328   0.132E+01    0.108E+02
RMM:   6    -0.442842493301E+03    0.34963E+02   -0.10421E+03 14403   0.112E+02    0.580E+01
RMM:   7    -0.453501024889E+03   -0.10659E+02   -0.56421E+02 14966   0.914E+01    0.425E+01
RMM:   8    -0.400816416615E+03    0.52685E+02   -0.56944E+01 13231   0.303E+01    0.191E+01
RMM:   9    -0.397956872357E+03    0.28595E+01   -0.25219E+01 12312   0.211E+01    0.167E+01
RMM:  10    -0.396055411162E+03    0.19015E+01   -0.74110E+00 14064   0.960E+00    0.133E+01
RMM:  11    -0.396613128388E+03   -0.55772E+00   -0.40203E+00 16147   0.378E+00    0.127E+01
RMM:  12    -0.396501709614E+03    0.11142E+00   -0.13301E+00 13996   0.364E+00    0.103E+01
RMM:  13    -0.395546770621E+03    0.95494E+00   -0.35134E+00 12053   0.794E+00    0.543E+00
RMM:  14    -0.396090144038E+03   -0.54337E+00   -0.59055E+00 12854   0.789E+00    0.674E+00
RMM:  15    -0.395536590316E+03    0.55355E+00   -0.10077E+00 13401   0.352E+00    0.333E+00
RMM:  16    -0.395355485103E+03    0.18111E+00   -0.33927E-01 12717   0.207E+00    0.127E+00
RMM:  17    -0.395361811857E+03   -0.63268E-02   -0.43877E-01 16041   0.166E+00    0.159E+00
RMM:  18    -0.395343167013E+03    0.18645E-01   -0.10980E-01 14993   0.109E+00    0.109E+00
RMM:  19    -0.395330301182E+03    0.12866E-01   -0.46055E-02 13593   0.708E-01    0.528E-01
RMM:  20    -0.395329716045E+03    0.58514E-03   -0.22205E-02 15455   0.351E-01    0.461E-01
RMM:  21    -0.395326644970E+03    0.30711E-02   -0.82508E-03 14927   0.285E-01    0.295E-01
RMM:  22    -0.395326448630E+03    0.19634E-03   -0.68362E-03 15566   0.218E-01    0.295E-01
RMM:  23    -0.395325669661E+03    0.77897E-03   -0.19392E-03 12629   0.168E-01    0.143E-01
RMM:  24    -0.395325436378E+03    0.23328E-03   -0.25390E-03 15725   0.103E-01    0.168E-01
RMM:  25    -0.395325870690E+03   -0.43431E-03   -0.16364E-03 15584   0.103E-01    0.188E-01
RMM:  26    -0.395325986765E+03   -0.11607E-03   -0.48207E-04 12060   0.897E-02    0.125E-01
RMM:  27    -0.395326142672E+03   -0.15591E-03   -0.55219E-04 12527   0.911E-02    0.525E-02
RMM:  28    -0.395326796721E+03   -0.65405E-03   -0.11187E-03 15415   0.857E-02    0.688E-02
RMM:  29    -0.395327097864E+03   -0.30114E-03   -0.11774E-04 14333   0.290E-02    0.449E-02
RMM:  30    -0.395327593142E+03   -0.49528E-03   -0.11937E-04 13785   0.368E-02    0.137E-02
RMM:  31    -0.395328084929E+03   -0.49179E-03   -0.11940E-04 15970   0.238E-02    0.215E-02
RMM:  32    -0.395328374538E+03   -0.28961E-03   -0.35781E-05 11344   0.228E-02    0.108E-02
RMM:  33    -0.395328595625E+03   -0.22109E-03   -0.40242E-05 11181   0.199E-02    0.182E-02
RMM:  34    -0.395328670500E+03   -0.74875E-04   -0.17974E-05 10929   0.105E-02    0.673E-03
RMM:  35    -0.395328700087E+03   -0.29588E-04   -0.53835E-06  9136   0.479E-03    0.389E-03
RMM:  36    -0.395328712835E+03   -0.12748E-04   -0.30781E-06  8602   0.593E-03    0.175E-03
RMM:  37    -0.395328717345E+03   -0.45096E-05   -0.85661E-07  7290   0.385E-03    0.126E-03
RMM:  38    -0.395328718601E+03   -0.12559E-05   -0.58037E-07  7025   0.321E-03    0.942E-04
RMM:  39    -0.395328719068E+03   -0.46741E-06   -0.26939E-07  6997   0.222E-03
   1 F= -.39532872E+03 E0= -.39532771E+03  d E =-.395329E+03
 curvature:   0.00 expect dE= 0.000E+00 dE for cont linesearch  0.000E+00
 trial: gam= 0.00000 g(F)=  0.444E-01 g(S)=  0.000E+00 ort = 0.000E+00 (trialstep = 0.100E+01)
 search vector abs. value=  0.444E-01
 bond charge predicted
       N       E                     dE             d eps       ncg     rms          rms(c)
DAV:   1    -0.395370331603E+03   -0.41613E-01   -0.71601E-01 13344   0.214E+00    0.292E-01
RMM:   2    -0.395370477311E+03   -0.14571E-03   -0.12824E-02 14016   0.435E-01    0.228E-01
RMM:   3    -0.395371077264E+03   -0.59995E-03   -0.51775E-03 16015   0.199E-01    0.230E-01
RMM:   4    -0.395371895786E+03   -0.81852E-03   -0.33619E-03 13165   0.219E-01    0.359E-01
RMM:   5    -0.395370503934E+03    0.13919E-02   -0.22455E-03 12625   0.202E-01    0.148E-01
RMM:   6    -0.395370266084E+03    0.23785E-03   -0.71458E-04 12947   0.113E-01    0.652E-02
RMM:   7    -0.395370243304E+03    0.22780E-04   -0.28773E-04 13350   0.607E-02    0.455E-02
RMM:   8    -0.395370218340E+03    0.24964E-04   -0.10873E-04 14022   0.332E-02    0.211E-02
RMM:   9    -0.395370217620E+03    0.72020E-06   -0.48243E-05 13184   0.201E-02    0.187E-02
RMM:  10    -0.395370215926E+03    0.16938E-05   -0.20968E-05 11472   0.149E-02    0.110E-02
RMM:  11    -0.395370214851E+03    0.10754E-05   -0.87769E-06  9261   0.948E-03    0.559E-03
RMM:  12    -0.395370215209E+03   -0.35816E-06   -0.39230E-06  8611   0.736E-03
   2 F= -.39537022E+03 E0= -.39536928E+03  d E =-.414961E-01
 ZBRENT: can't locate minimum, use default step
 trial-energy change:   -0.041496  1 .order   -0.041508   -0.044409   -0.038608
 step:   4.0000(harm=  7.6563)  dis= 0.12884  next Energy=  -395.498722 (dE=-0.170E+00)
 bond charge predicted
       N       E                     dE             d eps       ncg     rms          rms(c)
DAV:   1    -0.395463263207E+03   -0.93048E-01   -0.63051E+00 12612   0.634E+00    0.845E-01
RMM:   2    -0.395463282433E+03   -0.19227E-04   -0.96783E-02 13432   0.126E+00    0.625E-01
RMM:   3    -0.395473371034E+03   -0.10089E-01   -0.48279E-02 14358   0.767E-01    0.101E+00
RMM:   4    -0.395469666455E+03    0.37046E-02   -0.24121E-02 12592   0.653E-01    0.717E-01
RMM:   5    -0.395464159101E+03    0.55074E-02   -0.14290E-02 14190   0.397E-01    0.445E-01
RMM:   6    -0.395461639199E+03    0.25199E-02   -0.50260E-03 12302   0.301E-01    0.169E-01
RMM:   7    -0.395461506612E+03    0.13259E-03   -0.24065E-03 14258   0.161E-01    0.117E-01
RMM:   8    -0.395461362542E+03    0.14407E-03   -0.94669E-04 14393   0.954E-02    0.729E-02
RMM:   9    -0.395461334557E+03    0.27985E-04   -0.37692E-04 13864   0.623E-02    0.490E-02
RMM:  10    -0.395461324588E+03    0.99689E-05   -0.18140E-04 14288   0.406E-02    0.266E-02
RMM:  11    -0.395461317275E+03    0.73124E-05   -0.66974E-05 13357   0.222E-02    0.126E-02
RMM:  12    -0.395461322411E+03   -0.51361E-05   -0.32879E-05 12078   0.147E-02    0.186E-02
RMM:  13    -0.395461319502E+03    0.29090E-05   -0.10782E-05  9270   0.132E-02    0.523E-03
RMM:  14    -0.395461321199E+03   -0.16967E-05   -0.79697E-06  9732   0.603E-03    0.451E-03
RMM:  15    -0.395461321708E+03   -0.50852E-06   -0.15345E-06  7654   0.607E-03
   3 F= -.39546132E+03 E0= -.39546053E+03  d E =-.132603E+00
 curvature:  -2.67 expect dE=-0.467E-01 dE for cont linesearch -0.302E-01
 ZBRENT: increasing intervall
 opt :  10.0000  next Energy=  -395.498616 (dE=-0.170E+00)
 bond charge predicted
       N       E                     dE             d eps       ncg     rms          rms(c)
DAV:   1    -0.395516432755E+03   -0.55112E-01   -0.23330E+01 12000   0.121E+01    0.157E+00
RMM:   2    -0.395528639005E+03   -0.12206E-01   -0.34535E-01 12768   0.242E+00    0.132E+00
RMM:   3    -0.395591865021E+03   -0.63226E-01   -0.17805E-01 14015   0.156E+00    0.241E+00
RMM:   4    -0.395526198582E+03    0.65666E-01   -0.79306E-02 13315   0.111E+00    0.889E-01
RMM:   5    -0.395519090069E+03    0.71085E-02   -0.32928E-02 12220   0.770E-01    0.486E-01
RMM:   6    -0.395517316949E+03    0.17731E-02   -0.13299E-02 14984   0.342E-01    0.266E-01
RMM:   7    -0.395516628474E+03    0.68848E-03   -0.51735E-03 13077   0.239E-01    0.176E-01
RMM:   8    -0.395516379992E+03    0.24848E-03   -0.24222E-03 14640   0.144E-01    0.103E-01
RMM:   9    -0.395516424413E+03   -0.44420E-04   -0.13543E-03 14088   0.115E-01    0.929E-02
RMM:  10    -0.395516347116E+03    0.77296E-04   -0.46681E-04 13756   0.646E-02    0.439E-02
RMM:  11    -0.395516359523E+03   -0.12407E-04   -0.25550E-04 13623   0.442E-02    0.416E-02
RMM:  12    -0.395516353484E+03    0.60399E-05   -0.99074E-05 13902   0.314E-02    0.199E-02
RMM:  13    -0.395516351952E+03    0.15314E-05   -0.51987E-05 14192   0.175E-02    0.111E-02
RMM:  14    -0.395516354733E+03   -0.27806E-05   -0.17624E-05 10643   0.114E-02    0.119E-02
RMM:  15    -0.395516354657E+03    0.75870E-07   -0.59492E-06  8843   0.103E-02
   4 F= -.39551635E+03 E0= -.39551557E+03  d E =-.187636E+00
 curvature:  -3.30 expect dE=-0.275E-01 dE for cont linesearch -0.264E-03
 ZBRENT: bracketing found
 ZBRENT: interpolating
 opt :   9.5345  next Energy=  -395.516793 (dE=-0.188E+00)
 bond charge predicted
       N       E                     dE             d eps       ncg     rms          rms(c)
DAV:   1    -0.395516894462E+03   -0.53973E-03   -0.15485E-01 13332   0.999E-01    0.114E-01
RMM:   2    -0.395517057847E+03   -0.16338E-03   -0.19184E-03 12793   0.185E-01    0.118E-01
RMM:   3    -0.395517145015E+03   -0.87169E-04   -0.77342E-04 14261   0.106E-01    0.141E-01
RMM:   4    -0.395517043261E+03    0.10175E-03   -0.58970E-04 12798   0.966E-02    0.971E-02
RMM:   5    -0.395516928972E+03    0.11429E-03   -0.23253E-04 12224   0.697E-02    0.391E-02
RMM:   6    -0.395516916616E+03    0.12355E-04   -0.75943E-05 13817   0.312E-02    0.205E-02
RMM:   7    -0.395516915710E+03    0.90638E-06   -0.40554E-05 13177   0.192E-02    0.159E-02
RMM:   8    -0.395516913278E+03    0.24317E-05   -0.14930E-05 10589   0.144E-02    0.969E-03
RMM:   9    -0.395516913213E+03    0.65718E-07   -0.76307E-06  9259   0.908E-03
   5 F= -.39551691E+03 E0= -.39551613E+03  d E =-.188194E+00
 curvature:  -5.48 expect dE=-0.429E-01 dE for cont linesearch -0.244E-04
 trial: gam= 0.18630 g(F)=  0.783E-02 g(S)=  0.000E+00 ort =-0.445E-03 (trialstep = 0.271E+01)
 search vector abs. value=  0.920E-02
 bond charge predicted
       N       E                     dE             d eps       ncg     rms          rms(c)
DAV:   1    -0.395527234276E+03   -0.10321E-01   -0.11153E+00 12192   0.272E+00    0.317E-01
RMM:   2    -0.395527588513E+03   -0.35424E-03   -0.18390E-02 13009   0.550E-01    0.253E-01
RMM:   3    -0.395529528212E+03   -0.19397E-02   -0.90395E-03 13938   0.382E-01    0.442E-01
RMM:   4    -0.395527521562E+03    0.20066E-02   -0.37792E-03 13143   0.259E-01    0.142E-01
RMM:   5    -0.395527462459E+03    0.59103E-04   -0.12314E-03 14718   0.112E-01    0.137E-01
RMM:   6    -0.395527290126E+03    0.17233E-03   -0.59869E-04 12608   0.946E-02    0.919E-02
RMM:   7    -0.395527201600E+03    0.88526E-04   -0.30948E-04 13839   0.680E-02    0.498E-02
RMM:   8    -0.395527179887E+03    0.21713E-04   -0.14228E-04 13326   0.466E-02    0.322E-02
RMM:   9    -0.395527175598E+03    0.42890E-05   -0.79438E-05 13753   0.315E-02    0.207E-02
RMM:  10    -0.395527172244E+03    0.33543E-05   -0.28791E-05 11478   0.178E-02    0.918E-03
RMM:  11    -0.395527171859E+03    0.38460E-06   -0.10500E-05  9661   0.821E-03    0.557E-03
RMM:  12    -0.395527172723E+03   -0.86370E-06   -0.53032E-06  9042   0.875E-03
   6 F= -.39552717E+03 E0= -.39552644E+03  d E =-.102595E-01
 trial-energy change:   -0.010260  1 .order   -0.010579   -0.020967   -0.000190
 step:   2.7341(harm=  2.7316)  dis= 0.03198  next Energy=  -395.527174 (dE=-0.103E-01)
 bond charge predicted
       N       E                     dE             d eps       ncg     rms          rms(c)
DAV:   1    -0.395527173080E+03   -0.12208E-05   -0.11607E-04 14376   0.320E-02    0.407E-03
RMM:   2    -0.395527173749E+03   -0.66924E-06   -0.41392E-06  8713   0.958E-03    0.616E-03
RMM:   3    -0.395527173597E+03    0.15238E-06   -0.14579E-06  7390   0.678E-03    0.407E-03
RMM:   4    -0.395527173835E+03   -0.23857E-06   -0.58170E-07  6829   0.394E-03    0.386E-03
RMM:   5    -0.395527173739E+03    0.96585E-07   -0.40143E-07  6751   0.335E-03
   7 F= -.39552717E+03 E0= -.39552644E+03  d E =-.102605E-01
 curvature:  -1.61 expect dE=-0.697E-02 dE for cont linesearch -0.192E-12
 trial: gam= 0.53214 g(F)=  0.434E-02 g(S)=  0.000E+00 ort = 0.331E-07 (trialstep = 0.271E+01)
 search vector abs. value=  0.695E-02
 bond charge predicted
       N       E                     dE             d eps       ncg     rms          rms(c)
DAV:   1    -0.395537535386E+03   -0.10362E-01   -0.81027E-01 12012   0.231E+00    0.228E-01
RMM:   2    -0.395538094118E+03   -0.55873E-03   -0.11332E-02 12710   0.453E-01    0.208E-01
RMM:   3    -0.395538671778E+03   -0.57766E-03   -0.42926E-03 13970   0.262E-01    0.268E-01
RMM:   4    -0.395538483234E+03    0.18854E-03   -0.20442E-03 13414   0.177E-01    0.190E-01
RMM:   5    -0.395538103548E+03    0.37969E-03   -0.88257E-04 13471   0.112E-01    0.136E-01
RMM:   6    -0.395537914660E+03    0.18889E-03   -0.52698E-04 12601   0.939E-02    0.619E-02
RMM:   7    -0.395537891105E+03    0.23555E-04   -0.21642E-04 13634   0.532E-02    0.383E-02
RMM:   8    -0.395537875448E+03    0.15656E-04   -0.82042E-05 12479   0.348E-02    0.234E-02
RMM:   9    -0.395537872503E+03    0.29452E-05   -0.43428E-05 12640   0.204E-02    0.129E-02
RMM:  10    -0.395537872534E+03   -0.30284E-07   -0.18795E-05 10727   0.124E-02    0.744E-03
RMM:  11    -0.395537872279E+03    0.25425E-06   -0.56674E-06  8981   0.765E-03
   8 F= -.39553787E+03 E0= -.39553726E+03  d E =-.106985E-01
 trial-energy change:   -0.010699  1 .order   -0.010644   -0.011768   -0.009519
 step:  10.1390(harm= 14.1917)  dis= 0.05215  next Energy=  -395.552028 (dE=-0.249E-01)
 bond charge predicted
       N       E                     dE             d eps       ncg     rms          rms(c)
DAV:   1    -0.395550834336E+03   -0.12962E-01   -0.59551E+00 12000   0.623E+00    0.636E-01
RMM:   2    -0.395557544513E+03   -0.67102E-02   -0.99653E-02 12491   0.139E+00    0.768E-01
RMM:   3    -0.395557427702E+03    0.11681E-03   -0.30025E-02 13960   0.714E-01    0.618E-01
RMM:   4    -0.395561072022E+03   -0.36443E-02   -0.16678E-02 14597   0.415E-01    0.682E-01
RMM:   5    -0.395554956914E+03    0.61151E-02   -0.10080E-02 12672   0.414E-01    0.388E-01
RMM:   6    -0.395553524565E+03    0.14323E-02   -0.56055E-03 13269   0.301E-01    0.168E-01
RMM:   7    -0.395553361298E+03    0.16327E-03   -0.19023E-03 13403   0.163E-01    0.118E-01
RMM:   8    -0.395553205769E+03    0.15553E-03   -0.71343E-04 12435   0.102E-01    0.661E-02
RMM:   9    -0.395553189358E+03    0.16411E-04   -0.39146E-04 14153   0.573E-02    0.397E-02
RMM:  10    -0.395553186288E+03    0.30698E-05   -0.15753E-04 14274   0.383E-02    0.237E-02
RMM:  11    -0.395553185474E+03    0.81405E-06   -0.62910E-05 14313   0.201E-02    0.196E-02
RMM:  12    -0.395553183746E+03    0.17282E-05   -0.18609E-05 10289   0.146E-02    0.110E-02
RMM:  13    -0.395553184943E+03   -0.11971E-05   -0.10160E-05  9949   0.763E-03    0.418E-03
RMM:  14    -0.395553187453E+03   -0.25098E-05   -0.35246E-06  8385   0.681E-03    0.641E-03
RMM:  15    -0.395553188115E+03   -0.66187E-06   -0.18733E-06  7681   0.754E-03
   9 F= -.39555319E+03 E0= -.39555295E+03  d E =-.260144E-01
 curvature:  -9.94 expect dE=-0.352E-01 dE for cont linesearch -0.178E-03
 trial: gam= 0.64783 g(F)=  0.354E-02 g(S)=  0.000E+00 ort = 0.353E-03 (trialstep = 0.420E+01)
 search vector abs. value=  0.691E-02
 bond charge predicted
       N       E                     dE             d eps       ncg     rms          rms(c)
DAV:   1    -0.395554322979E+03   -0.11355E-02   -0.19433E+00 12288   0.354E+00    0.363E-01
RMM:   2    -0.395557356910E+03   -0.30339E-02   -0.31344E-02 12526   0.732E-01    0.401E-01
RMM:   3    -0.395558007261E+03   -0.65035E-03   -0.93717E-03 14033   0.389E-01    0.387E-01
RMM:   4    -0.395558685725E+03   -0.67846E-03   -0.48027E-03 13938   0.234E-01    0.390E-01
RMM:   5    -0.395556689893E+03    0.19958E-02   -0.29204E-03 12188   0.238E-01    0.145E-01
RMM:   6    -0.395556684559E+03    0.53344E-05   -0.15597E-03 13797   0.140E-01    0.110E-01
RMM:   7    -0.395556503673E+03    0.18089E-03   -0.44358E-04 12111   0.924E-02    0.435E-02
RMM:   8    -0.395556492834E+03    0.10839E-04   -0.20046E-04 14419   0.396E-02    0.290E-02
RMM:   9    -0.395556487116E+03    0.57175E-05   -0.66625E-05 13578   0.241E-02    0.146E-02
RMM:  10    -0.395556488763E+03   -0.16463E-05   -0.29963E-05 12943   0.146E-02    0.122E-02
RMM:  11    -0.395556487951E+03    0.81167E-06   -0.78927E-06  9347   0.942E-03
  10 F= -.39555649E+03 E0= -.39555632E+03  d E =-.329984E-02
 trial-energy change:   -0.003300  1 .order   -0.003248   -0.015825    0.009329
 step:   2.6529(harm=  2.6409)  dis= 0.01033  next Energy=  -395.558202 (dE=-0.501E-02)
 bond charge predicted
       N       E                     dE             d eps       ncg     rms          rms(c)
DAV:   1    -0.395557902163E+03   -0.14134E-02   -0.26325E-01 13092   0.130E+00    0.135E-01
RMM:   2    -0.395558342813E+03   -0.44065E-03   -0.44124E-03 12430   0.282E-01    0.155E-01
RMM:   3    -0.395558390916E+03   -0.48104E-04   -0.12580E-03 14183   0.142E-01    0.138E-01
RMM:   4    -0.395558507257E+03   -0.11634E-03   -0.70665E-04 13729   0.900E-02    0.149E-01
RMM:   5    -0.395558227379E+03    0.27988E-03   -0.42463E-04 12152   0.914E-02    0.517E-02
RMM:   6    -0.395558237054E+03   -0.96747E-05   -0.22144E-04 13672   0.525E-02    0.446E-02
RMM:   7    -0.395558205631E+03    0.31423E-04   -0.61281E-05 12029   0.350E-02    0.147E-02
RMM:   8    -0.395558205035E+03    0.59625E-06   -0.28210E-05 12037   0.141E-02    0.115E-02
RMM:   9    -0.395558203956E+03    0.10783E-05   -0.73111E-06  9123   0.911E-03    0.453E-03
RMM:  10    -0.395558204097E+03   -0.14103E-06   -0.30984E-06  8194   0.611E-03
  11 F= -.39555820E+03 E0= -.39555801E+03  d E =-.501598E-02
 curvature:  -2.42 expect dE=-0.159E-02 dE for cont linesearch -0.277E-08
 trial: gam= 0.23213 g(F)=  0.656E-03 g(S)=  0.000E+00 ort = 0.281E-05 (trialstep = 0.389E+01)
 search vector abs. value=  0.103E-02
 bond charge predicted
       N       E                     dE             d eps       ncg     rms          rms(c)
DAV:   1    -0.395559863697E+03   -0.16597E-02   -0.24996E-01 12372   0.127E+00    0.153E-01
RMM:   2    -0.395559964940E+03   -0.10124E-03   -0.38983E-03 12951   0.262E-01    0.122E-01
RMM:   3    -0.395560333966E+03   -0.36903E-03   -0.17817E-03 14417   0.158E-01    0.185E-01
RMM:   4    -0.395560095042E+03    0.23892E-03   -0.85719E-04 12410   0.125E-01    0.136E-01
RMM:   5    -0.395559974214E+03    0.12083E-03   -0.47996E-04 12629   0.938E-02    0.894E-02
RMM:   6    -0.395559916599E+03    0.57615E-04   -0.23826E-04 13410   0.587E-02    0.472E-02
RMM:   7    -0.395559887792E+03    0.28807E-04   -0.93688E-05 12798   0.394E-02    0.270E-02
RMM:   8    -0.395559880171E+03    0.76212E-05   -0.36701E-05 12206   0.232E-02    0.141E-02
RMM:   9    -0.395559880120E+03    0.51288E-07   -0.20544E-05 11060   0.136E-02    0.101E-02
RMM:  10    -0.395559879448E+03    0.67113E-06   -0.79319E-06  9324   0.955E-03
  12 F= -.39555988E+03 E0= -.39555975E+03  d E =-.167535E-02
 trial-energy change:   -0.001675  1 .order   -0.001664   -0.002554   -0.000775
 step:   5.4981(harm=  5.5816)  dis= 0.00435  next Energy=  -395.560041 (dE=-0.184E-02)
 bond charge predicted
       N       E                     dE             d eps       ncg     rms          rms(c)
DAV:   1    -0.395560043900E+03   -0.16378E-03   -0.42833E-02 13224   0.525E-01    0.646E-02
RMM:   2    -0.395560073218E+03   -0.29318E-04   -0.73454E-04 12478   0.120E-01    0.582E-02
RMM:   3    -0.395560116007E+03   -0.42789E-04   -0.32091E-04 14208   0.697E-02    0.733E-02
RMM:   4    -0.395560083413E+03    0.32594E-04   -0.14806E-04 12477   0.513E-02    0.512E-02
RMM:   5    -0.395560074390E+03    0.90232E-05   -0.83794E-05 12681   0.388E-02    0.410E-02
RMM:   6    -0.395560061856E+03    0.12534E-04   -0.46294E-05 13199   0.249E-02    0.225E-02
RMM:   7    -0.395560054841E+03    0.70144E-05   -0.17873E-05 10936   0.176E-02    0.112E-02
RMM:   8    -0.395560053920E+03    0.92176E-06   -0.75720E-06  9040   0.105E-02
  13 F= -.39556005E+03 E0= -.39555994E+03  d E =-.184982E-02
 curvature:  -4.37 expect dE=-0.232E-02 dE for cont linesearch -0.226E-06
 trial: gam= 0.76151 g(F)=  0.532E-03 g(S)=  0.000E+00 ort = 0.730E-05 (trialstep = 0.380E+01)
 search vector abs. value=  0.114E-02
 bond charge predicted
       N       E                     dE             d eps       ncg     rms          rms(c)
DAV:   1    -0.395560799166E+03   -0.74432E-03   -0.26798E-01 12084   0.131E+00    0.170E-01
RMM:   2    -0.395560833364E+03   -0.34197E-04   -0.39332E-03 12450   0.271E-01    0.113E-01
RMM:   3    -0.395561709147E+03   -0.87578E-03   -0.23645E-03 15563   0.154E-01    0.243E-01
RMM:   4    -0.395560941338E+03    0.76781E-03   -0.92492E-04 12390   0.129E-01    0.114E-01
RMM:   5    -0.395560846736E+03    0.94602E-04   -0.59014E-04 13304   0.955E-02    0.658E-02
RMM:   6    -0.395560840575E+03    0.61611E-05   -0.25381E-04 12940   0.619E-02    0.539E-02
RMM:   7    -0.395560800644E+03    0.39930E-04   -0.96301E-05 12704   0.391E-02    0.174E-02
RMM:   8    -0.395560802001E+03   -0.13568E-05   -0.53648E-05 13382   0.176E-02    0.141E-02
RMM:   9    -0.395560801389E+03    0.61209E-06   -0.14082E-05 10402   0.140E-02    0.118E-02
RMM:  10    -0.395560800429E+03    0.96054E-06   -0.70404E-06  9090   0.104E-02
  14 F= -.39556080E+03 E0= -.39556074E+03  d E =-.746509E-03
 trial-energy change:   -0.000747  1 .order   -0.000723   -0.002045    0.000598
 step:   2.9759(harm=  2.9417)  dis= 0.00299  next Energy=  -395.560865 (dE=-0.811E-03)
 bond charge predicted
       N       E                     dE             d eps       ncg     rms          rms(c)
DAV:   1    -0.395560863340E+03   -0.61950E-04   -0.12623E-02 13176   0.285E-01    0.371E-02
RMM:   2    -0.395560867125E+03   -0.37859E-05   -0.19248E-04 12695   0.591E-02    0.258E-02
RMM:   3    -0.395560902554E+03   -0.35428E-04   -0.11959E-04 14261   0.403E-02    0.532E-02
RMM:   4    -0.395560872081E+03    0.30472E-04   -0.47128E-05 12296   0.307E-02    0.260E-02
RMM:   5    -0.395560867919E+03    0.41619E-05   -0.23593E-05 11672   0.197E-02    0.166E-02
RMM:   6    -0.395560866123E+03    0.17964E-05   -0.79978E-06 10008   0.967E-03    0.778E-03
RMM:   7    -0.395560865307E+03    0.81639E-06   -0.35394E-06  8288   0.874E-03
  15 F= -.39556087E+03 E0= -.39556079E+03  d E =-.811387E-03
 curvature:  -3.11 expect dE=-0.257E-03 dE for cont linesearch -0.535E-07
 trial: gam= 0.12789 g(F)=  0.826E-04 g(S)=  0.000E+00 ort = 0.443E-05 (trialstep = 0.364E+01)
 search vector abs. value=  0.102E-03
 bond charge predicted
       N       E                     dE             d eps       ncg     rms          rms(c)
DAV:   1    -0.395561051878E+03   -0.18576E-03   -0.21773E-02 12564   0.378E-01    0.504E-02
RMM:   2    -0.395561103054E+03   -0.51176E-04   -0.41189E-04 12894   0.878E-02    0.639E-02
RMM:   3    -0.395561092227E+03    0.10828E-04   -0.13871E-04 13627   0.512E-02    0.476E-02
RMM:   4    -0.395561125682E+03   -0.33455E-04   -0.12728E-04 14074   0.365E-02    0.635E-02
RMM:   5    -0.395561069018E+03    0.56664E-04   -0.57911E-05 12066   0.341E-02    0.137E-02
RMM:   6    -0.395561069465E+03   -0.44710E-06   -0.25217E-05 12133   0.161E-02    0.105E-02
RMM:   7    -0.395561068719E+03    0.74674E-06   -0.70951E-06  9109   0.990E-03
  16 F= -.39556107E+03 E0= -.39556099E+03  d E =-.203412E-03
 trial-energy change:   -0.000203  1 .order   -0.000200   -0.000303   -0.000098
 step:   5.3680(harm=  5.3680)  dis= 0.00905  next Energy=  -395.561089 (dE=-0.223E-03)
 bond charge predicted
       N       E                     dE             d eps       ncg     rms          rms(c)
DAV:   1    -0.395561087079E+03   -0.17614E-04   -0.49250E-03 13152   0.181E-01    0.248E-02
RMM:   2    -0.395561100396E+03   -0.13317E-04   -0.10177E-04 12585   0.463E-02    0.296E-02
RMM:   3    -0.395561100167E+03    0.22916E-06   -0.34755E-05 13186   0.252E-02    0.253E-02
RMM:   4    -0.395561102127E+03   -0.19598E-05   -0.24689E-05 11733   0.186E-02    0.259E-02
RMM:   5    -0.395561093763E+03    0.83646E-05   -0.11526E-05 10079   0.160E-02    0.784E-03
RMM:   6    -0.395561093987E+03   -0.22437E-06   -0.56907E-06  8918   0.975E-03
  17 F= -.39556109E+03 E0= -.39556102E+03  d E =-.228680E-03
 curvature:  -3.30 expect dE=-0.234E-03 dE for cont linesearch -0.200E-07
 trial: gam= 0.83864 g(F)=  0.708E-04 g(S)=  0.000E+00 ort = 0.788E-06 (trialstep = 0.283E+01)
 search vector abs. value=  0.144E-03
 bond charge predicted
       N       E                     dE             d eps       ncg     rms          rms(c)
DAV:   1    -0.395561213027E+03   -0.11926E-03   -0.18575E-02 12216   0.350E-01    0.421E-02
RMM:   2    -0.395561255563E+03   -0.42536E-04   -0.38257E-04 12118   0.912E-02    0.589E-02
RMM:   3    -0.395561238168E+03    0.17395E-04   -0.10960E-04 14091   0.438E-02    0.384E-02
RMM:   4    -0.395561256928E+03   -0.18760E-04   -0.85570E-05 13183   0.332E-02    0.513E-02
RMM:   5    -0.395561224375E+03    0.32554E-04   -0.45367E-05 12102   0.300E-02    0.113E-02
RMM:   6    -0.395561225126E+03   -0.75163E-06   -0.15797E-05 11307   0.119E-02    0.101E-02
RMM:   7    -0.395561224068E+03    0.10580E-05   -0.50371E-06  8740   0.970E-03    0.558E-03
RMM:   8    -0.395561223834E+03    0.23414E-06   -0.19405E-06  7928   0.539E-03
  18 F= -.39556122E+03 E0= -.39556114E+03  d E =-.129847E-03
 trial-energy change:   -0.000130  1 .order   -0.000129   -0.000202   -0.000055
 step:   3.8853(harm=  3.8853)  dis= 0.00650  next Energy=  -395.561233 (dE=-0.139E-03)
 reached required accuracy - stopping structural energy minimisation
 augmentation electrons   23.762298716755087     
 soft         electrons   162.28776618561568     
 augmentation electrons   23.762298716755087     
 soft         electrons   162.28776618561568     
 total        electrons   186.05006490237076     
 augmentation electrons   23.762298716755087     
 soft         electrons   162.28776618561568     
 augmentation electrons   23.762298716755087     
 soft         electrons   162.28776618561568     
 total        electrons   186.05006490237076     
 augmentation electrons   23.762298716755087     
 soft         electrons   162.28776618561568     
 total        electrons   186.05006490237076     
 augmentation electrons   23.762298716755087     
 soft         electrons   162.28776618561568     
 total        electrons   186.05006490237076     
 augmentation electrons   23.762298716755087     
 soft         electrons   162.28776618561568     
 augmentation electrons   23.762298716755087     
 soft         electrons   162.28776618561568     
 total        electrons   186.05006490237076     
 augmentation electrons   23.762298716755087     
 soft         electrons   162.28776618561568     
 total        electrons   186.05006490237076     
 augmentation electrons   23.762298716755087     
 soft         electrons   162.28776618561568     
 total        electrons   186.05006490237076     
 augmentation electrons   23.762298716755087     
 soft         electrons   162.28776618561568     
 augmentation electrons   23.762298716755087     
 soft         electrons   162.28776618561568     
 total        electrons   186.05006490237076     
 augmentation electrons   23.762298716755087     
 soft         electrons   162.28776618561568     
 total        electrons   186.05006490237076     
 augmentation electrons   23.762298716755087     
 soft         electrons   162.28776618561568     
 total        electrons   186.05006490237076     
 augmentation electrons   23.762298716755087     
 soft         electrons   162.28776618561568     
 total        electrons   186.05006490237076     
 augmentation electrons   23.762298716755087     
 soft         electrons   162.28776618561568     
 total        electrons   186.05006490237076     
 augmentation electrons   23.762298716755087     
 soft         electrons   162.28776618561568     
 total        electrons   186.05006490237076     
 augmentation electrons   23.762298716755087     
 soft         electrons   162.28776618561568     
 total        electrons   186.05006490237076     
 augmentation electrons   23.762298716755087     
 soft         electrons   162.28776618561568     
 total        electrons   186.05006490237076     
 augmentation electrons   23.762298716755087     
 soft         electrons   162.28776618561568     
 total        electrons   186.05006490237076     
 augmentation electrons   23.762298716755087     
 soft         electrons   162.28776618561568     
 total        electrons   186.05006490237076     
 augmentation electrons   23.762298716755087     
 soft         electrons   162.28776618561568     
 total        electrons   186.05006490237076     
 augmentation electrons   23.762298716755087     
 soft         electrons   162.28776618561568     
 total        electrons   186.05006490237076     
 augmentation electrons   23.762298716755087     
 soft         electrons   162.28776618561568     
 total        electrons   186.05006490237076     
 augmentation electrons   23.762298716755087     
 soft         electrons   162.28776618561568     
 total        electrons   186.05006490237076     
 augmentation electrons   23.762298716755087     
 soft         electrons   162.28776618561568     
 total        electrons   186.05006490237076     
 augmentation electrons   23.762298716755087     
 soft         electrons   162.28776618561568     
 total        electrons   186.05006490237076     
 augmentation electrons   23.762298716755087     
 soft         electrons   162.28776618561568     
 total        electrons   186.05006490237076     
 augmentation electrons   23.762298716755087     
 soft         electrons   162.28776618561568     
 total        electrons   186.05006490237076     
 augmentation electrons   23.762298716755087     
 soft         electrons   162.28776618561568     
 total        electrons   186.05006490237076     
 augmentation electrons   23.762298716755087     
 soft         electrons   162.28776618561568     
 total        electrons   186.05006490237076     
 augmentation electrons   23.762298716755087     
 soft         electrons   162.28776618561568     
 total        electrons   186.05006490237076     
 augmentation electrons   23.762298716755087     
 soft         electrons   162.28776618561568     
 total        electrons   186.05006490237076     
 augmentation electrons   23.762298716755087     
 soft         electrons   162.28776618561568     
 total        electrons   186.05006490237076     
 augmentation electrons   23.762298716755087     
 soft         electrons   162.28776618561568     
 total        electrons   186.05006490237076     
 augmentation electrons   23.762298716755087     
 soft         electrons   162.28776618561568     
 total        electrons   186.05006490237076     
 augmentation electrons   23.762298716755087     
 soft         electrons   162.28776618561568     
 total        electrons   186.05006490237076     
 augmentation electrons   23.762298716755087     
 soft         electrons   162.28776618561568     
 total        electrons   186.05006490237076     
 augmentation electrons   23.762298716755087     
 soft         electrons   162.28776618561568     
 total        electrons   186.05006490237076     
 augmentation electrons   23.762298716755087     
 soft         electrons   162.28776618561568     
 total        electrons   186.05006490237076     
 augmentation electrons   23.762298716755087     
 soft         electrons   162.28776618561568     
 total        electrons   186.05006490237076     
 augmentation electrons   23.762298716755087     
 soft         electrons   162.28776618561568     
 total        electrons   186.05006490237076     
 augmentation electrons   23.762298716755087     
 soft         electrons   162.28776618561568     
 total        electrons   186.05006490237076     
 augmentation electrons   23.762298716755087     
 soft         electrons   162.28776618561568     
 total        electrons   186.05006490237076     
 augmentation electrons   23.762298716755087     
 soft         electrons   162.28776618561568     
 total        electrons   186.05006490237076     
 augmentation electrons   23.762298716755087     
 soft         electrons   162.28776618561568     
 total        electrons   186.05006490237076     
 augmentation electrons   23.762298716755087     
 soft         electrons   162.28776618561568     
 total        electrons   186.05006490237076     
 augmentation electrons   23.762298716755087     
 soft         electrons   162.28776618561568     
 total        electrons   186.05006490237076     
 total        electrons   186.05006490237076     
 total        electrons   186.05006490237076     
 total        electrons   186.05006490237076     
 total        electrons   186.05006490237076     
Note: The following floating-point exceptions are signalling: IEEE_OVERFLOW_FLAG
Note: The following floating-point exceptions are signalling: IEEE_OVERFLOW_FLAG
Note: The following floating-point exceptions are signalling: IEEE_OVERFLOW_FLAG
Note: The following floating-point exceptions are signalling: IEEE_OVERFLOW_FLAG
Note: The following floating-point exceptions are signalling: IEEE_OVERFLOW_FLAG
Note: The following floating-point exceptions are signalling: IEEE_OVERFLOW_FLAG
Note: The following floating-point exceptions are signalling: IEEE_OVERFLOW_FLAG
Note: The following floating-point exceptions are signalling: IEEE_OVERFLOW_FLAG
Note: The following floating-point exceptions are signalling: IEEE_OVERFLOW_FLAG
Note: The following floating-point exceptions are signalling: IEEE_OVERFLOW_FLAG
Note: The following floating-point exceptions are signalling: IEEE_OVERFLOW_FLAG
Note: The following floating-point exceptions are signalling: IEEE_OVERFLOW_FLAG
Note: The following floating-point exceptions are signalling: IEEE_OVERFLOW_FLAG
Note: The following floating-point exceptions are signalling: IEEE_OVERFLOW_FLAG
Note: The following floating-point exceptions are signalling: IEEE_OVERFLOW_FLAG
Note: The following floating-point exceptions are signalling: IEEE_OVERFLOW_FLAG
Note: The following floating-point exceptions are signalling: IEEE_OVERFLOW_FLAG
Note: The following floating-point exceptions are signalling: IEEE_OVERFLOW_FLAG
Note: The following floating-point exceptions are signalling: IEEE_OVERFLOW_FLAG
Note: The following floating-point exceptions are signalling: IEEE_OVERFLOW_FLAG
Note: The following floating-point exceptions are signalling: IEEE_OVERFLOW_FLAG
Note: The following floating-point exceptions are signalling: IEEE_OVERFLOW_FLAG
Note: The following floating-point exceptions are signalling: IEEE_OVERFLOW_FLAG
Note: The following floating-point exceptions are signalling: IEEE_OVERFLOW_FLAG
Note: The following floating-point exceptions are signalling: IEEE_OVERFLOW_FLAG
Note: The following floating-point exceptions are signalling: IEEE_OVERFLOW_FLAG
Note: The following floating-point exceptions are signalling: IEEE_OVERFLOW_FLAG
Note: The following floating-point exceptions are signalling: IEEE_OVERFLOW_FLAG
Note: The following floating-point exceptions are signalling: IEEE_OVERFLOW_FLAG
Note: The following floating-point exceptions are signalling: IEEE_OVERFLOW_FLAG
Note: The following floating-point exceptions are signalling: IEEE_OVERFLOW_FLAG
Note: The following floating-point exceptions are signalling: IEEE_OVERFLOW_FLAG
Note: The following floating-point exceptions are signalling: IEEE_OVERFLOW_FLAG
Note: The following floating-point exceptions are signalling: IEEE_OVERFLOW_FLAG
Note: The following floating-point exceptions are signalling: IEEE_OVERFLOW_FLAG
Note: The following floating-point exceptions are signalling: IEEE_OVERFLOW_FLAG
Note: The following floating-point exceptions are signalling: IEEE_OVERFLOW_FLAG
Note: The following floating-point exceptions are signalling: IEEE_OVERFLOW_FLAG
Note: The following floating-point exceptions are signalling: IEEE_OVERFLOW_FLAG
Note: The following floating-point exceptions are signalling: IEEE_OVERFLOW_FLAG
Note: The following floating-point exceptions are signalling: IEEE_OVERFLOW_FLAG
Note: The following floating-point exceptions are signalling: IEEE_OVERFLOW_FLAG
Note: The following floating-point exceptions are signalling: IEEE_OVERFLOW_FLAG
Note: The following floating-point exceptions are signalling: IEEE_OVERFLOW_FLAG
Note: The following floating-point exceptions are signalling: IEEE_OVERFLOW_FLAG
Note: The following floating-point exceptions are signalling: IEEE_OVERFLOW_FLAG
Note: The following floating-point exceptions are signalling: IEEE_OVERFLOW_FLAG
Note: The following floating-point exceptions are signalling: IEEE_OVERFLOW_FLAG
