   51   51    1    1
  0.2316787E+02  0.8645320E-09  0.6085000E-09  0.2593596E-08  0.5000000E-15
   1.0000000000000000E-004
  CAR 
 Name                                    
    191    149    128

  0.3742002E-15  0.3742002E-15  0.3742002E-15  0.3367003E-02
    1      -13.896206   1.000000
    2      -12.637222   1.000000
    3      -12.399034   1.000000
    4      -11.889154   1.000000
    5      -11.622477   1.000000
    6      -11.097218   1.000000
    7      -11.064872   1.000000
    8      -11.048845   1.000000
    9      -10.950758   1.000000
   10      -10.632615   1.000000
   11      -10.584989   1.000000
   12      -10.300309   1.000000
   13      -10.193675   1.000000
   14      -10.163338   1.000000
   15       -9.708650   1.000000
   16       -9.694664   1.000000
   17       -9.121023   1.000000
   18       -9.077334   1.000000
   19       -8.882836   1.000000
   20       -8.536737   1.000000
   21       -8.418074   1.000000
   22       -8.376474   1.000000
   23       -8.342569   1.000000
   24       -8.063887   1.000000
   25       -7.933267   1.000000
   26       -7.914115   1.000000
   27       -7.513999   1.000000
   28       -7.203205   1.000000
   29       -6.943833   1.000000
   30       -6.485154   1.000000
   31       -6.394155   1.000000
   32       -6.386442   1.000000
   33       -6.048210   1.000000
   34       -5.951534   1.000000
   35       -5.895423   1.000000
   36       -5.697542   1.000000
   37       -5.655073   1.000000
   38       -5.407328   1.000000
   39       -5.335230   1.000000
   40       -5.286116   1.000000
   41       -5.102063   1.000000
   42       -5.070109   1.000000
   43       -4.999816   1.000000
   44       -4.953417   1.000000
   45       -4.826638   1.000000
   46       -4.721993   1.000000
   47       -4.617217   1.000000
   48       -4.571289   1.000000
   49       -4.515470   1.000000
   50       -4.492839   1.000000
   51       -4.474393   1.000000
   52       -4.443187   1.000000
   53       -4.358721   1.000000
   54       -4.273077   1.000000
   55       -4.199977   1.000000
   56       -4.070896   1.000000
   57       -4.037959   1.000000
   58       -3.974346   1.000000
   59       -3.914285   1.000000
   60       -3.870519   1.000000
   61       -3.794592   1.000000
   62       -3.668856   1.000000
   63       -3.448063   1.000000
   64       -3.385146   1.000000
   65       -3.366179   1.000000
   66       -3.321580   1.000000
   67       -3.285834   1.000000
   68       -3.254890   1.000000
   69       -3.148641   1.000000
   70       -3.124509   1.000000
   71       -3.049261   1.000000
   72       -3.044413   1.000000
   73       -2.889852   1.000000
   74       -2.629407   1.000000
   75       -2.435492   1.000000
   76       -2.303095   1.000000
   77       -2.181684   1.000000
   78       -2.084979   1.000000
   79       -1.989583   1.000000
   80       -1.864348   1.000000
   81       -1.676744   1.000000
   82       -1.616447   1.000000
   83       -1.609822   1.000000
   84       -1.306717   1.000000
   85       -1.166350   1.000000
   86       -1.036253   1.000000
   87       -0.923850   1.000000
   88       -0.872674   1.000000
   89       -0.819907   1.000000
   90       -0.291355   1.000000
   91       -0.098548   1.000267
   92        0.026883   1.025378
   93        0.114376   0.950870
   94        0.134853   0.853359
   95        0.210308   0.269891
   96        0.244479   0.068683
   97        0.287800  -0.030227
   98        0.524417  -0.000007
   99        0.647589  -0.000000
  100        0.694713  -0.000000
  101        0.705810  -0.000000
  102        0.801561  -0.000000
  103        0.822512  -0.000000
  104        0.903735  -0.000000
  105        1.010411  -0.000000
  106        1.042098  -0.000000
  107        1.281945  -0.000000
  108        1.359939  -0.000000
  109        1.422730  -0.000000
  110        1.454556  -0.000000
  111        1.530004  -0.000000
  112        1.569575  -0.000000
  113        1.592375  -0.000000
  114        1.626936  -0.000000
  115        1.772756  -0.000000
  116        1.776300  -0.000000
  117        1.850320  -0.000000
  118        1.957541  -0.000000
  119        1.990537  -0.000000
  120        2.023903  -0.000000
  121        2.059876  -0.000000
  122        2.105591  -0.000000
  123        2.155892  -0.000000
  124        2.289425  -0.000000
  125        2.436559  -0.000000
  126        2.535652  -0.000000
  127        2.806044  -0.000000
  128        3.855298   0.000000

  0.1111111E+00  0.3729374E-15  0.3860503E-15  0.6734007E-02
    1      -13.869263   1.000000
    2      -12.621334   1.000000
    3      -12.506395   1.000000
    4      -11.836330   1.000000
    5      -11.608943   1.000000
    6      -11.108111   1.000000
    7      -11.056288   1.000000
    8      -11.040706   1.000000
    9      -10.970552   1.000000
   10      -10.629952   1.000000
   11      -10.580766   1.000000
   12      -10.312848   1.000000
   13      -10.185258   1.000000
   14      -10.149012   1.000000
   15       -9.706804   1.000000
   16       -9.682831   1.000000
   17       -9.129702   1.000000
   18       -9.056613   1.000000
   19       -8.889543   1.000000
   20       -8.555720   1.000000
   21       -8.428030   1.000000
   22       -8.377299   1.000000
   23       -8.365823   1.000000
   24       -8.050847   1.000000
   25       -7.968226   1.000000
   26       -7.930813   1.000000
   27       -7.547548   1.000000
   28       -7.272483   1.000000
   29       -6.904039   1.000000
   30       -6.456430   1.000000
   31       -6.371531   1.000000
   32       -6.326203   1.000000
   33       -6.019007   1.000000
   34       -5.965270   1.000000
   35       -5.872772   1.000000
   36       -5.679443   1.000000
   37       -5.660927   1.000000
   38       -5.451322   1.000000
   39       -5.302874   1.000000
   40       -5.242783   1.000000
   41       -5.190646   1.000000
   42       -5.044636   1.000000
   43       -4.969489   1.000000
   44       -4.956008   1.000000
   45       -4.766164   1.000000
   46       -4.681315   1.000000
   47       -4.663854   1.000000
   48       -4.601731   1.000000
   49       -4.507555   1.000000
   50       -4.479996   1.000000
   51       -4.451994   1.000000
   52       -4.405787   1.000000
   53       -4.357282   1.000000
   54       -4.252551   1.000000
   55       -4.185642   1.000000
   56       -4.073966   1.000000
   57       -4.052988   1.000000
   58       -3.998144   1.000000
   59       -3.929908   1.000000
   60       -3.872415   1.000000
   61       -3.772680   1.000000
   62       -3.666519   1.000000
   63       -3.442962   1.000000
   64       -3.428508   1.000000
   65       -3.344999   1.000000
   66       -3.320049   1.000000
   67       -3.270033   1.000000
   68       -3.250276   1.000000
   69       -3.170355   1.000000
   70       -3.114965   1.000000
   71       -3.091579   1.000000
   72       -3.007165   1.000000
   73       -2.904175   1.000000
   74       -2.682733   1.000000
   75       -2.429903   1.000000
   76       -2.306547   1.000000
   77       -2.150672   1.000000
   78       -2.140803   1.000000
   79       -2.021197   1.000000
   80       -1.888941   1.000000
   81       -1.655080   1.000000
   82       -1.635666   1.000000
   83       -1.541732   1.000000
   84       -1.326566   1.000000
   85       -1.176998   1.000000
   86       -1.017017   1.000000
   87       -0.910372   1.000000
   88       -0.850269   1.000000
   89       -0.745003   1.000000
   90       -0.354586   1.000000
   91       -0.160702   1.000007
   92        0.023606   1.023862
   93        0.058918   1.035454
   94        0.133150   0.863068
   95        0.211755   0.259284
   96        0.248907   0.050955
   97        0.350876  -0.018989
   98        0.510596  -0.000017
   99        0.644727  -0.000000
  100        0.668321  -0.000000
  101        0.707927  -0.000000
  102        0.815739  -0.000000
  103        0.866568  -0.000000
  104        0.920564  -0.000000
  105        1.013270  -0.000000
  106        1.066172  -0.000000
  107        1.335860  -0.000000
  108        1.371363  -0.000000
  109        1.403900  -0.000000
  110        1.482809  -0.000000
  111        1.526634  -0.000000
  112        1.578457  -0.000000
  113        1.625615  -0.000000
  114        1.649619  -0.000000
  115        1.752665  -0.000000
  116        1.776344  -0.000000
  117        1.830921  -0.000000
  118        1.955193  -0.000000
  119        1.987924  -0.000000
  120        2.046814  -0.000000
  121        2.061645  -0.000000
  122        2.110393  -0.000000
  123        2.148930  -0.000000
  124        2.264744  -0.000000
  125        2.387548  -0.000000
  126        2.530115  -0.000000
  127        2.544671  -0.000000
  128        3.961808   0.000000

  0.2222222E+00  0.3922785E-15  0.3630220E-15  0.6734007E-02
    1      -13.789234   1.000000
    2      -12.762608   1.000000
    3      -12.530701   1.000000
    4      -11.804336   1.000000
    5      -11.571120   1.000000
    6      -11.144597   1.000000
    7      -11.041575   1.000000
    8      -11.026253   1.000000
    9      -10.955823   1.000000
   10      -10.621572   1.000000
   11      -10.567961   1.000000
   12      -10.370623   1.000000
   13      -10.169551   1.000000
   14      -10.114167   1.000000
   15       -9.701769   1.000000
   16       -9.641244   1.000000
   17       -9.156687   1.000000
   18       -8.993471   1.000000
   19       -8.897427   1.000000
   20       -8.612089   1.000000
   21       -8.519570   1.000000
   22       -8.390553   1.000000
   23       -8.365224   1.000000
   24       -8.083099   1.000000
   25       -8.047880   1.000000
   26       -7.878066   1.000000
   27       -7.673755   1.000000
   28       -7.324606   1.000000
   29       -6.853371   1.000000
   30       -6.405582   1.000000
   31       -6.326970   1.000000
   32       -6.214428   1.000000
   33       -6.069764   1.000000
   34       -5.948947   1.000000
   35       -5.802000   1.000000
   36       -5.712689   1.000000
   37       -5.574660   1.000000
   38       -5.443841   1.000000
   39       -5.364533   1.000000
   40       -5.224853   1.000000
   41       -5.117084   1.000000
   42       -4.985035   1.000000
   43       -4.892977   1.000000
   44       -4.866460   1.000000
   45       -4.809732   1.000000
   46       -4.779839   1.000000
   47       -4.679618   1.000000
   48       -4.547026   1.000000
   49       -4.499590   1.000000
   50       -4.443564   1.000000
   51       -4.400943   1.000000
   52       -4.353965   1.000000
   53       -4.335863   1.000000
   54       -4.246122   1.000000
   55       -4.178321   1.000000
   56       -4.079946   1.000000
   57       -4.031688   1.000000
   58       -4.019496   1.000000
   59       -3.950713   1.000000
   60       -3.844407   1.000000
   61       -3.771080   1.000000
   62       -3.662447   1.000000
   63       -3.498006   1.000000
   64       -3.450461   1.000000
   65       -3.370446   1.000000
   66       -3.324493   1.000000
   67       -3.295991   1.000000
   68       -3.238973   1.000000
   69       -3.218504   1.000000
   70       -3.089801   1.000000
   71       -3.070248   1.000000
   72       -2.984921   1.000000
   73       -2.863859   1.000000
   74       -2.786139   1.000000
   75       -2.425899   1.000000
   76       -2.323940   1.000000
   77       -2.262586   1.000000
   78       -2.126870   1.000000
   79       -2.110922   1.000000
   80       -1.894934   1.000000
   81       -1.746592   1.000000
   82       -1.628285   1.000000
   83       -1.375535   1.000000
   84       -1.311864   1.000000
   85       -1.219503   1.000000
   86       -0.980576   1.000000
   87       -0.863753   1.000000
   88       -0.806864   1.000000
   89       -0.516006   1.000000
   90       -0.476216   1.000000
   91       -0.304327   1.000000
   92       -0.153146   1.000012
   93        0.007121   1.016523
   94        0.159052   0.687747
   95        0.231744   0.130673
   96        0.313959  -0.034216
   97        0.404701  -0.003574
   98        0.508776  -0.000019
   99        0.602425  -0.000000
  100        0.649486  -0.000000
  101        0.708359  -0.000000
  102        0.847633  -0.000000
  103        0.889063  -0.000000
  104        0.974069  -0.000000
  105        1.053058  -0.000000
  106        1.219404  -0.000000
  107        1.321944  -0.000000
  108        1.410312  -0.000000
  109        1.467698  -0.000000
  110        1.510795  -0.000000
  111        1.546241  -0.000000
  112        1.594565  -0.000000
  113        1.664180  -0.000000
  114        1.689794  -0.000000
  115        1.728542  -0.000000
  116        1.772934  -0.000000
  117        1.816109  -0.000000
  118        1.934588  -0.000000
  119        1.978401  -0.000000
  120        2.009069  -0.000000
  121        2.043817  -0.000000
  122        2.059297  -0.000000
  123        2.136269  -0.000000
  124        2.245153  -0.000000
  125        2.288195  -0.000000
  126        2.391542  -0.000000
  127        2.884600  -0.000000
  128        3.872329   0.000000

  0.3333333E+00  0.3713828E-15  0.3468587E-15  0.6734007E-02
    1      -13.658640   1.000000
    2      -13.017196   1.000000
    3      -12.426526   1.000000
    4      -11.882209   1.000000
    5      -11.522979   1.000000
    6      -11.166356   1.000000
    7      -11.028079   1.000000
    8      -11.015600   1.000000
    9      -10.879413   1.000000
   10      -10.608409   1.000000
   11      -10.550244   1.000000
   12      -10.477671   1.000000
   13      -10.160585   1.000000
   14      -10.079226   1.000000
   15       -9.692828   1.000000
   16       -9.560183   1.000000
   17       -9.175838   1.000000
   18       -9.049386   1.000000
   19       -8.783484   1.000000
   20       -8.659373   1.000000
   21       -8.651209   1.000000
   22       -8.389470   1.000000
   23       -8.372808   1.000000
   24       -8.173336   1.000000
   25       -8.127513   1.000000
   26       -7.934625   1.000000
   27       -7.661832   1.000000
   28       -7.255863   1.000000
   29       -6.858368   1.000000
   30       -6.381141   1.000000
   31       -6.313452   1.000000
   32       -6.268519   1.000000
   33       -6.148718   1.000000
   34       -5.902661   1.000000
   35       -5.707510   1.000000
   36       -5.677055   1.000000
   37       -5.464149   1.000000
   38       -5.370964   1.000000
   39       -5.303331   1.000000
   40       -5.147616   1.000000
   41       -5.080410   1.000000
   42       -5.015553   1.000000
   43       -4.959880   1.000000
   44       -4.840652   1.000000
   45       -4.804292   1.000000
   46       -4.718023   1.000000
   47       -4.643870   1.000000
   48       -4.525451   1.000000
   49       -4.493904   1.000000
   50       -4.432757   1.000000
   51       -4.382281   1.000000
   52       -4.328578   1.000000
   53       -4.278265   1.000000
   54       -4.224301   1.000000
   55       -4.136539   1.000000
   56       -4.109719   1.000000
   57       -4.041895   1.000000
   58       -3.979760   1.000000
   59       -3.926776   1.000000
   60       -3.827148   1.000000
   61       -3.778813   1.000000
   62       -3.659710   1.000000
   63       -3.602250   1.000000
   64       -3.523393   1.000000
   65       -3.430967   1.000000
   66       -3.340569   1.000000
   67       -3.320815   1.000000
   68       -3.255591   1.000000
   69       -3.182559   1.000000
   70       -3.101881   1.000000
   71       -3.068204   1.000000
   72       -2.916536   1.000000
   73       -2.816162   1.000000
   74       -2.746091   1.000000
   75       -2.480143   1.000000
   76       -2.400748   1.000000
   77       -2.357044   1.000000
   78       -2.223674   1.000000
   79       -2.143817   1.000000
   80       -1.895868   1.000000
   81       -1.812097   1.000000
   82       -1.613029   1.000000
   83       -1.425127   1.000000
   84       -1.292083   1.000000
   85       -1.067738   1.000000
   86       -0.926720   1.000000
   87       -0.773714   1.000000
   88       -0.689449   1.000000
   89       -0.628041   1.000000
   90       -0.452930   1.000000
   91       -0.354983   1.000000
   92       -0.187433   1.000001
   93       -0.143166   1.000021
   94        0.142381   0.807140
   95        0.239771   0.089693
   96        0.329523  -0.028691
   97        0.436498  -0.000940
   98        0.483564  -0.000085
   99        0.537029  -0.000003
  100        0.699471  -0.000000
  101        0.792367  -0.000000
  102        0.867839  -0.000000
  103        0.988464  -0.000000
  104        1.014275  -0.000000
  105        1.148960  -0.000000
  106        1.169179  -0.000000
  107        1.418817  -0.000000
  108        1.486447  -0.000000
  109        1.527663  -0.000000
  110        1.558145  -0.000000
  111        1.573220  -0.000000
  112        1.614795  -0.000000
  113        1.643440  -0.000000
  114        1.686587  -0.000000
  115        1.721955  -0.000000
  116        1.798271  -0.000000
  117        1.854906  -0.000000
  118        1.903359  -0.000000
  119        1.954332  -0.000000
  120        1.972597  -0.000000
  121        2.046857  -0.000000
  122        2.080576  -0.000000
  123        2.109209  -0.000000
  124        2.146871  -0.000000
  125        2.224825  -0.000000
  126        2.319232  -0.000000
  127        2.490953  -0.000000
  128        3.671785   0.000000

  0.4444444E+00  0.3870091E-15  0.3932070E-15  0.6734007E-02
    1      -13.482800   1.000000
    2      -13.261455   1.000000
    3      -12.309315   1.000000
    4      -12.007404   1.000000
    5      -11.487631   1.000000
    6      -11.170300   1.000000
    7      -11.019819   1.000000
    8      -11.008426   1.000000
    9      -10.780304   1.000000
   10      -10.613011   1.000000
   11      -10.587263   1.000000
   12      -10.530976   1.000000
   13      -10.161035   1.000000
   14      -10.061488   1.000000
   15       -9.682518   1.000000
   16       -9.456409   1.000000
   17       -9.180687   1.000000
   18       -9.165969   1.000000
   19       -8.759393   1.000000
   20       -8.688123   1.000000
   21       -8.595390   1.000000
   22       -8.393739   1.000000
   23       -8.372654   1.000000
   24       -8.249241   1.000000
   25       -8.176535   1.000000
   26       -8.127770   1.000000
   27       -7.488093   1.000000
   28       -7.156242   1.000000
   29       -6.922638   1.000000
   30       -6.479080   1.000000
   31       -6.347148   1.000000
   32       -6.274991   1.000000
   33       -6.228656   1.000000
   34       -5.852950   1.000000
   35       -5.595581   1.000000
   36       -5.522382   1.000000
   37       -5.395785   1.000000
   38       -5.314068   1.000000
   39       -5.279425   1.000000
   40       -5.205116   1.000000
   41       -5.102693   1.000000
   42       -5.021402   1.000000
   43       -4.995601   1.000000
   44       -4.831036   1.000000
   45       -4.736468   1.000000
   46       -4.669396   1.000000
   47       -4.593748   1.000000
   48       -4.533024   1.000000
   49       -4.512767   1.000000
   50       -4.417391   1.000000
   51       -4.365196   1.000000
   52       -4.318396   1.000000
   53       -4.241301   1.000000
   54       -4.225418   1.000000
   55       -4.126543   1.000000
   56       -4.039016   1.000000
   57       -4.020462   1.000000
   58       -3.981429   1.000000
   59       -3.941818   1.000000
   60       -3.807457   1.000000
   61       -3.766369   1.000000
   62       -3.755269   1.000000
   63       -3.636224   1.000000
   64       -3.541209   1.000000
   65       -3.474045   1.000000
   66       -3.420940   1.000000
   67       -3.329418   1.000000
   68       -3.247515   1.000000
   69       -3.160086   1.000000
   70       -3.105951   1.000000
   71       -3.083991   1.000000
   72       -2.820164   1.000000
   73       -2.739470   1.000000
   74       -2.641999   1.000000
   75       -2.582670   1.000000
   76       -2.506453   1.000000
   77       -2.441321   1.000000
   78       -2.287839   1.000000
   79       -2.111074   1.000000
   80       -2.014846   1.000000
   81       -1.799172   1.000000
   82       -1.568137   1.000000
   83       -1.469332   1.000000
   84       -1.304553   1.000000
   85       -0.927977   1.000000
   86       -0.845005   1.000000
   87       -0.769715   1.000000
   88       -0.750546   1.000000
   89       -0.535030   1.000000
   90       -0.488890   1.000000
   91       -0.405460   1.000000
   92       -0.296770   1.000000
   93       -0.059403   1.001694
   94        0.118800   0.933375
   95        0.177271   0.538992
   96        0.322677  -0.031479
   97        0.407408  -0.003220
   98        0.489039  -0.000062
   99        0.687182  -0.000000
  100        0.722851  -0.000000
  101        0.754574  -0.000000
  102        0.848798  -0.000000
  103        0.935963  -0.000000
  104        1.028756  -0.000000
  105        1.313224  -0.000000
  106        1.322594  -0.000000
  107        1.440026  -0.000000
  108        1.537335  -0.000000
  109        1.565730  -0.000000
  110        1.580225  -0.000000
  111        1.604298  -0.000000
  112        1.633176  -0.000000
  113        1.642815  -0.000000
  114        1.703226  -0.000000
  115        1.710276  -0.000000
  116        1.725920  -0.000000
  117        1.846015  -0.000000
  118        1.866635  -0.000000
  119        1.875150  -0.000000
  120        1.919286  -0.000000
  121        1.952063  -0.000000
  122        2.057260  -0.000000
  123        2.095266  -0.000000
  124        2.211216  -0.000000
  125        2.278042  -0.000000
  126        2.318703  -0.000000
  127        2.460079  -0.000000
  128        3.236473   0.000000

  0.3742002E-15  0.9090909E-01  0.3596334E-15  0.6734007E-02
    1      -13.862947   1.000000
    2      -12.608666   1.000000
    3      -12.403259   1.000000
    4      -11.858151   1.000000
    5      -11.602086   1.000000
    6      -11.254681   1.000000
    7      -11.205286   1.000000
    8      -11.054898   1.000000
    9      -10.962643   1.000000
   10      -10.642405   1.000000
   11      -10.571569   1.000000
   12      -10.283244   1.000000
   13      -10.171762   1.000000
   14      -10.073531   1.000000
   15       -9.749576   1.000000
   16       -9.651074   1.000000
   17       -9.129900   1.000000
   18       -9.047794   1.000000
   19       -8.902322   1.000000
   20       -8.627070   1.000000
   21       -8.487729   1.000000
   22       -8.426237   1.000000
   23       -8.097712   1.000000
   24       -7.951327   1.000000
   25       -7.785165   1.000000
   26       -7.755850   1.000000
   27       -7.505633   1.000000
   28       -7.240726   1.000000
   29       -6.910815   1.000000
   30       -6.514693   1.000000
   31       -6.400655   1.000000
   32       -6.366889   1.000000
   33       -6.048662   1.000000
   34       -5.969079   1.000000
   35       -5.876203   1.000000
   36       -5.675450   1.000000
   37       -5.643725   1.000000
   38       -5.464441   1.000000
   39       -5.352791   1.000000
   40       -5.221633   1.000000
   41       -5.156223   1.000000
   42       -5.089768   1.000000
   43       -5.056085   1.000000
   44       -4.980065   1.000000
   45       -4.872555   1.000000
   46       -4.743179   1.000000
   47       -4.684044   1.000000
   48       -4.627643   1.000000
   49       -4.576553   1.000000
   50       -4.522719   1.000000
   51       -4.474612   1.000000
   52       -4.454714   1.000000
   53       -4.342142   1.000000
   54       -4.277196   1.000000
   55       -4.225367   1.000000
   56       -4.110182   1.000000
   57       -4.044188   1.000000
   58       -3.989043   1.000000
   59       -3.896604   1.000000
   60       -3.855422   1.000000
   61       -3.816467   1.000000
   62       -3.673221   1.000000
   63       -3.453014   1.000000
   64       -3.419921   1.000000
   65       -3.361605   1.000000
   66       -3.319531   1.000000
   67       -3.252484   1.000000
   68       -3.218934   1.000000
   69       -3.148057   1.000000
   70       -3.132697   1.000000
   71       -3.030054   1.000000
   72       -2.968593   1.000000
   73       -2.897532   1.000000
   74       -2.817440   1.000000
   75       -2.367938   1.000000
   76       -2.281591   1.000000
   77       -2.162295   1.000000
   78       -2.083435   1.000000
   79       -1.974535   1.000000
   80       -1.879533   1.000000
   81       -1.719916   1.000000
   82       -1.647423   1.000000
   83       -1.491780   1.000000
   84       -1.306006   1.000000
   85       -1.191755   1.000000
   86       -1.031774   1.000000
   87       -0.938528   1.000000
   88       -0.908940   1.000000
   89       -0.852630   1.000000
   90       -0.430435   1.000000
   91       -0.190789   1.000001
   92       -0.048207   1.002690
   93        0.027282   1.025562
   94        0.109937   0.966487
   95        0.144657   0.792146
   96        0.231752   0.130630
   97        0.284967  -0.028038
   98        0.460129  -0.000299
   99        0.534903  -0.000004
  100        0.650829  -0.000000
  101        0.797668  -0.000000
  102        0.850269  -0.000000
  103        0.916825  -0.000000
  104        1.031204  -0.000000
  105        1.073736  -0.000000
  106        1.106919  -0.000000
  107        1.287142  -0.000000
  108        1.321201  -0.000000
  109        1.445864  -0.000000
  110        1.474564  -0.000000
  111        1.527089  -0.000000
  112        1.543041  -0.000000
  113        1.629013  -0.000000
  114        1.644862  -0.000000
  115        1.737658  -0.000000
  116        1.800166  -0.000000
  117        1.840404  -0.000000
  118        1.893888  -0.000000
  119        1.952904  -0.000000
  120        2.032898  -0.000000
  121        2.080171  -0.000000
  122        2.135717  -0.000000
  123        2.157115  -0.000000
  124        2.246793  -0.000000
  125        2.358531  -0.000000
  126        2.382379  -0.000000
  127        2.545080  -0.000000
  128        3.942861   0.000000

  0.1111111E+00  0.9090909E-01  0.4822234E-15  0.6734007E-02
    1      -13.814221   1.000000
    2      -12.615982   1.000000
    3      -12.533178   1.000000
    4      -11.794418   1.000000
    5      -11.577728   1.000000
    6      -11.300346   1.000000
    7      -11.155749   1.000000
    8      -11.074101   1.000000
    9      -10.966460   1.000000
   10      -10.633545   1.000000
   11      -10.523200   1.000000
   12      -10.311937   1.000000
   13      -10.183133   1.000000
   14      -10.087374   1.000000
   15       -9.739785   1.000000
   16       -9.619297   1.000000
   17       -9.141904   1.000000
   18       -9.000954   1.000000
   19       -8.893537   1.000000
   20       -8.684219   1.000000
   21       -8.517824   1.000000
   22       -8.457998   1.000000
   23       -8.118350   1.000000
   24       -7.928342   1.000000
   25       -7.818117   1.000000
   26       -7.778488   1.000000
   27       -7.581973   1.000000
   28       -7.302314   1.000000
   29       -6.862249   1.000000
   30       -6.537481   1.000000
   31       -6.314256   1.000000
   32       -6.270938   1.000000
   33       -6.030665   1.000000
   34       -5.983475   1.000000
   35       -5.851857   1.000000
   36       -5.690948   1.000000
   37       -5.624493   1.000000
   38       -5.450840   1.000000
   39       -5.311159   1.000000
   40       -5.280235   1.000000
   41       -5.144223   1.000000
   42       -5.066023   1.000000
   43       -5.014138   1.000000
   44       -4.968324   1.000000
   45       -4.869020   1.000000
   46       -4.747775   1.000000
   47       -4.672935   1.000000
   48       -4.577930   1.000000
   49       -4.548622   1.000000
   50       -4.504200   1.000000
   51       -4.428814   1.000000
   52       -4.388269   1.000000
   53       -4.352235   1.000000
   54       -4.303125   1.000000
   55       -4.197760   1.000000
   56       -4.128782   1.000000
   57       -4.084904   1.000000
   58       -4.017927   1.000000
   59       -3.880619   1.000000
   60       -3.852369   1.000000
   61       -3.784857   1.000000
   62       -3.653791   1.000000
   63       -3.474580   1.000000
   64       -3.446929   1.000000
   65       -3.414560   1.000000
   66       -3.352044   1.000000
   67       -3.234526   1.000000
   68       -3.206001   1.000000
   69       -3.125955   1.000000
   70       -3.097005   1.000000
   71       -3.048130   1.000000
   72       -3.007411   1.000000
   73       -2.907280   1.000000
   74       -2.840157   1.000000
   75       -2.397600   1.000000
   76       -2.305220   1.000000
   77       -2.171636   1.000000
   78       -2.137213   1.000000
   79       -1.978802   1.000000
   80       -1.916668   1.000000
   81       -1.749010   1.000000
   82       -1.652893   1.000000
   83       -1.411965   1.000000
   84       -1.310787   1.000000
   85       -1.265688   1.000000
   86       -1.009873   1.000000
   87       -0.882260   1.000000
   88       -0.825098   1.000000
   89       -0.734587   1.000000
   90       -0.511721   1.000000
   91       -0.195543   1.000001
   92       -0.116617   1.000102
   93        0.006450   1.016247
   94        0.081870   1.025142
   95        0.167377   0.621349
   96        0.287745  -0.030189
   97        0.320138  -0.032391
   98        0.413979  -0.002482
   99        0.492078  -0.000052
  100        0.686522  -0.000000
  101        0.800788  -0.000000
  102        0.865045  -0.000000
  103        0.932733  -0.000000
  104        1.026793  -0.000000
  105        1.100670  -0.000000
  106        1.122084  -0.000000
  107        1.346344  -0.000000
  108        1.374635  -0.000000
  109        1.408295  -0.000000
  110        1.469273  -0.000000
  111        1.546610  -0.000000
  112        1.568699  -0.000000
  113        1.660749  -0.000000
  114        1.688975  -0.000000
  115        1.745695  -0.000000
  116        1.775724  -0.000000
  117        1.798961  -0.000000
  118        1.901156  -0.000000
  119        1.957349  -0.000000
  120        1.998284  -0.000000
  121        2.074925  -0.000000
  122        2.107208  -0.000000