   48   48    1    1
  0.2461586E+02  0.8645320E-09  0.6085000E-09  0.2593596E-08  0.5000000E-15
   1.0000000000000000E-004
  CAR 
 Name                                    
    178    149    114

  0.3742002E-15  0.3742002E-15  0.3742002E-15  0.3367003E-02
    1      -14.006650   1.000000
    2      -12.767698   1.000000
    3      -12.457361   1.000000
    4      -11.970642   1.000000
    5      -11.632396   1.000000
    6      -11.257901   1.000000
    7      -11.200197   1.000000
    8      -10.911078   1.000000
    9      -10.788075   1.000000
   10      -10.760433   1.000000
   11      -10.648466   1.000000
   12      -10.402761   1.000000
   13      -10.354336   1.000000
   14      -10.193720   1.000000
   15       -9.717584   1.000000
   16       -9.345581   1.000000
   17       -9.186270   1.000000
   18       -9.063817   1.000000
   19       -8.716399   1.000000
   20       -8.565936   1.000000
   21       -8.373056   1.000000
   22       -8.284129   1.000000
   23       -8.052832   1.000000
   24       -7.983937   1.000000
   25       -7.619006   1.000000
   26       -7.550421   1.000000
   27       -7.316271   1.000000
   28       -7.259410   1.000000
   29       -7.076780   1.000000
   30       -6.338411   1.000000
   31       -6.271063   1.000000
   32       -6.194925   1.000000
   33       -6.112636   1.000000
   34       -6.008003   1.000000
   35       -5.882418   1.000000
   36       -5.777819   1.000000
   37       -5.528275   1.000000
   38       -5.423072   1.000000
   39       -5.344967   1.000000
   40       -5.277334   1.000000
   41       -5.131299   1.000000
   42       -4.975102   1.000000
   43       -4.948183   1.000000
   44       -4.905196   1.000000
   45       -4.798507   1.000000
   46       -4.771049   1.000000
   47       -4.604129   1.000000
   48       -4.571216   1.000000
   49       -4.462542   1.000000
   50       -4.331871   1.000000
   51       -4.253662   1.000000
   52       -4.200320   1.000000
   53       -4.135758   1.000000
   54       -4.000327   1.000000
   55       -3.974922   1.000000
   56       -3.950066   1.000000
   57       -3.900872   1.000000
   58       -3.775829   1.000000
   59       -3.718794   1.000000
   60       -3.682026   1.000000
   61       -3.476192   1.000000
   62       -3.458334   1.000000
   63       -3.332050   1.000000
   64       -3.297463   1.000000
   65       -3.219302   1.000000
   66       -3.011755   1.000000
   67       -2.985173   1.000000
   68       -2.842262   1.000000
   69       -2.749411   1.000000
   70       -2.678397   1.000000
   71       -2.559009   1.000000
   72       -2.404457   1.000000
   73       -2.316943   1.000000
   74       -2.223015   1.000000
   75       -1.881522   1.000000
   76       -1.753937   1.000000
   77       -1.670119   1.000000
   78       -1.606709   1.000000
   79       -1.441215   1.000000
   80       -1.428369   1.000000
   81       -1.232298   1.000000
   82       -1.128369   1.000000
   83       -1.046808   1.000000
   84       -0.853021   1.000061
   85       -0.612735   1.011737
   86       -0.487127   1.035387
   87       -0.343918   0.886338
   88       -0.242711   0.520616
   89       -0.051005  -0.016876
   90       -0.008050  -0.034478
   91        0.046386  -0.030975
   92        0.120146  -0.014822
   93        0.178791  -0.006055
   94        0.258185  -0.001265
   95        0.426663  -0.000014
   96        0.457097  -0.000005
   97        0.478773  -0.000002
   98        0.602109  -0.000000
   99        0.627131  -0.000000
  100        0.706925  -0.000000
  101        0.743135  -0.000000
  102        0.820228  -0.000000
  103        0.971278  -0.000000
  104        1.101059  -0.000000
  105        1.144914  -0.000000
  106        1.175161  -0.000000
  107        1.212528  -0.000000
  108        1.231188  -0.000000
  109        1.340200  -0.000000
  110        1.456937  -0.000000
  111        1.526619  -0.000000
  112        1.547771  -0.000000
  113        1.763187  -0.000000
  114        1.877366  -0.000000

  0.1111111E+00  0.3729374E-15  0.3860503E-15  0.6734007E-02
    1      -13.983151   1.000000
    2      -12.768575   1.000000
    3      -12.545831   1.000000
    4      -11.915437   1.000000
    5      -11.610062   1.000000
    6      -11.262650   1.000000
    7      -11.235455   1.000000
    8      -10.917928   1.000000
    9      -10.785511   1.000000
   10      -10.756289   1.000000
   11      -10.641861   1.000000
   12      -10.410785   1.000000
   13      -10.312198   1.000000
   14      -10.167331   1.000000
   15       -9.707824   1.000000
   16       -9.374088   1.000000
   17       -9.183083   1.000000
   18       -9.063460   1.000000
   19       -8.720773   1.000000
   20       -8.604983   1.000000
   21       -8.419554   1.000000
   22       -8.271292   1.000000
   23       -8.066190   1.000000
   24       -7.924897   1.000000
   25       -7.625981   1.000000
   26       -7.581863   1.000000
   27       -7.447028   1.000000
   28       -7.234314   1.000000
   29       -7.019927   1.000000
   30       -6.297455   1.000000
   31       -6.256151   1.000000
   32       -6.157687   1.000000
   33       -6.081908   1.000000
   34       -6.001724   1.000000
   35       -5.866228   1.000000
   36       -5.748898   1.000000
   37       -5.571874   1.000000
   38       -5.439804   1.000000
   39       -5.312052   1.000000
   40       -5.244851   1.000000
   41       -5.160713   1.000000
   42       -5.003549   1.000000
   43       -4.958075   1.000000
   44       -4.920362   1.000000
   45       -4.789469   1.000000
   46       -4.706066   1.000000
   47       -4.615496   1.000000
   48       -4.541672   1.000000
   49       -4.459728   1.000000
   50       -4.337757   1.000000
   51       -4.268051   1.000000
   52       -4.186378   1.000000
   53       -4.124870   1.000000
   54       -4.006127   1.000000
   55       -3.971752   1.000000
   56       -3.949410   1.000000
   57       -3.911499   1.000000
   58       -3.769470   1.000000
   59       -3.729156   1.000000
   60       -3.669794   1.000000
   61       -3.546442   1.000000
   62       -3.430859   1.000000
   63       -3.354654   1.000000
   64       -3.328403   1.000000
   65       -3.235785   1.000000
   66       -2.982272   1.000000
   67       -2.966283   1.000000
   68       -2.828972   1.000000
   69       -2.754576   1.000000
   70       -2.677836   1.000000
   71       -2.570993   1.000000
   72       -2.376113   1.000000
   73       -2.314959   1.000000
   74       -2.220715   1.000000
   75       -1.950100   1.000000
   76       -1.774467   1.000000
   77       -1.673075   1.000000
   78       -1.588809   1.000000
   79       -1.420033   1.000000
   80       -1.364375   1.000000
   81       -1.257077   1.000000
   82       -1.117831   1.000000
   83       -1.043665   1.000000
   84       -0.880795   1.000027
   85       -0.597442   1.014507
   86       -0.469641   1.034731
   87       -0.371941   0.949158
   88       -0.230317   0.468204
   89       -0.069299  -0.000178
   90       -0.024574  -0.030711
   91        0.071899  -0.025439
   92        0.116922  -0.015459
   93        0.205773  -0.003714
   94        0.266143  -0.001059
   95        0.419165  -0.000017
   96        0.445231  -0.000008
   97        0.475726  -0.000003
   98        0.601912  -0.000000
   99        0.613356  -0.000000
  100        0.703276  -0.000000
  101        0.793741  -0.000000
  102        0.831866  -0.000000
  103        0.979118  -0.000000
  104        1.111088  -0.000000
  105        1.164772  -0.000000
  106        1.192557  -0.000000
  107        1.222199  -0.000000
  108        1.252468  -0.000000
  109        1.354202  -0.000000
  110        1.528318  -0.000000
  111        1.548711  -0.000000
  112        1.702442  -0.000000
  113        2.048536  -0.000000
  114        3.816782  -0.000000

  0.2222222E+00  0.3922785E-15  0.3630220E-15  0.6734007E-02
    1      -13.914832   1.000000
    2      -12.867620   1.000000
    3      -12.607016   1.000000
    4      -11.872387   1.000000
    5      -11.553121   1.000000
    6      -11.326115   1.000000
    7      -11.235989   1.000000
    8      -10.935368   1.000000
    9      -10.783956   1.000000
   10      -10.742783   1.000000
   11      -10.624968   1.000000
   12      -10.415910   1.000000
   13      -10.232657   1.000000
   14      -10.096156   1.000000
   15       -9.681764   1.000000
   16       -9.451068   1.000000
   17       -9.163415   1.000000
   18       -9.060225   1.000000
   19       -8.765085   1.000000
   20       -8.654334   1.000000
   21       -8.549827   1.000000
   22       -8.253877   1.000000
   23       -8.084608   1.000000
   24       -7.806810   1.000000
   25       -7.723928   1.000000
   26       -7.608042   1.000000
   27       -7.528268   1.000000
   28       -7.261832   1.000000
   29       -6.965218   1.000000
   30       -6.253768   1.000000
   31       -6.198237   1.000000
   32       -6.108961   1.000000
   33       -5.997643   1.000000
   34       -5.967127   1.000000
   35       -5.839994   1.000000
   36       -5.721112   1.000000
   37       -5.594669   1.000000
   38       -5.485562   1.000000
   39       -5.267740   1.000000
   40       -5.178550   1.000000
   41       -5.127103   1.000000
   42       -5.007934   1.000000
   43       -4.997676   1.000000
   44       -4.924070   1.000000
   45       -4.798043   1.000000
   46       -4.636842   1.000000
   47       -4.618507   1.000000
   48       -4.534535   1.000000
   49       -4.427777   1.000000
   50       -4.340637   1.000000
   51       -4.278496   1.000000
   52       -4.156565   1.000000
   53       -4.125225   1.000000
   54       -4.047261   1.000000
   55       -3.991032   1.000000
   56       -3.929121   1.000000
   57       -3.888178   1.000000
   58       -3.768555   1.000000
   59       -3.733537   1.000000
   60       -3.646945   1.000000
   61       -3.612092   1.000000
   62       -3.500253   1.000000
   63       -3.413154   1.000000
   64       -3.339041   1.000000
   65       -3.253967   1.000000
   66       -2.965714   1.000000
   67       -2.935608   1.000000
   68       -2.826743   1.000000
   69       -2.764858   1.000000
   70       -2.668819   1.000000
   71       -2.570007   1.000000
   72       -2.324352   1.000000
   73       -2.301993   1.000000
   74       -2.228675   1.000000
   75       -2.059243   1.000000
   76       -1.825240   1.000000
   77       -1.665664   1.000000
   78       -1.566061   1.000000
   79       -1.413605   1.000000
   80       -1.350974   1.000000
   81       -1.159516   1.000000
   82       -1.078928   1.000000
   83       -1.047341   1.000000
   84       -0.910720   1.000011
   85       -0.609214   1.012343
   86       -0.425256   1.017308
   87       -0.416631   1.010339
   88       -0.212333   0.393052
   89       -0.086567   0.021978
   90       -0.030045  -0.028712
   91        0.085537  -0.022287
   92        0.151188  -0.009507
   93        0.194641  -0.004570
   94        0.260438  -0.001203
   95        0.370778  -0.000073
   96        0.429712  -0.000012
   97        0.507280  -0.000001
   98        0.627750  -0.000000
   99        0.653908  -0.000000
  100        0.690575  -0.000000
  101        0.810634  -0.000000
  102        0.907460  -0.000000
  103        1.025279  -0.000000
  104        1.110862  -0.000000
  105        1.183069  -0.000000
  106        1.215276  -0.000000
  107        1.273754  -0.000000
  108        1.289266  -0.000000
  109        1.376569  -0.000000
  110        1.486048  -0.000000
  111        1.554867  -0.000000
  112        1.640839  -0.000000
  113        1.767011  -0.000000
  114        2.213135  -0.000000

  0.3333333E+00  0.3713828E-15  0.3468587E-15  0.6734007E-02
    1      -13.810981   1.000000
    2      -13.072025   1.000000
    3      -12.543571   1.000000
    4      -11.924875   1.000000
    5      -11.499274   1.000000
    6      -11.350992   1.000000
    7      -11.222941   1.000000
    8      -10.954220   1.000000
    9      -10.785951   1.000000
   10      -10.723347   1.000000
   11      -10.607088   1.000000
   12      -10.425062   1.000000
   13      -10.160466   1.000000
   14       -9.981049   1.000000
   15       -9.649198   1.000000
   16       -9.557489   1.000000
   17       -9.124519   1.000000
   18       -9.052911   1.000000
   19       -8.884158   1.000000
   20       -8.714561   1.000000
   21       -8.604390   1.000000
   22       -8.255014   1.000000
   23       -8.122248   1.000000
   24       -7.948680   1.000000
   25       -7.644294   1.000000
   26       -7.601558   1.000000
   27       -7.467600   1.000000
   28       -7.255861   1.000000
   29       -6.990729   1.000000
   30       -6.348720   1.000000
   31       -6.208516   1.000000
   32       -6.031966   1.000000
   33       -5.944778   1.000000
   34       -5.876481   1.000000
   35       -5.809848   1.000000
   36       -5.675470   1.000000
   37       -5.529619   1.000000
   38       -5.429164   1.000000
   39       -5.254574   1.000000
   40       -5.166831   1.000000
   41       -5.124300   1.000000
   42       -5.036089   1.000000
   43       -4.989125   1.000000
   44       -4.881179   1.000000
   45       -4.766261   1.000000
   46       -4.619747   1.000000
   47       -4.551098   1.000000
   48       -4.526713   1.000000
   49       -4.459793   1.000000
   50       -4.318880   1.000000
   51       -4.276930   1.000000
   52       -4.196157   1.000000
   53       -4.131235   1.000000
   54       -4.094364   1.000000
   55       -4.017443   1.000000
   56       -3.894009   1.000000
   57       -3.850133   1.000000
   58       -3.798489   1.000000
   59       -3.701490   1.000000
   60       -3.647450   1.000000
   61       -3.608026   1.000000
   62       -3.592714   1.000000
   63       -3.432044   1.000000
   64       -3.344811   1.000000
   65       -3.240998   1.000000
   66       -3.009492   1.000000
   67       -2.976873   1.000000
   68       -2.869873   1.000000
   69       -2.769391   1.000000
   70       -2.638297   1.000000
   71       -2.552943   1.000000
   72       -2.398869   1.000000
   73       -2.267320   1.000000
   74       -2.178010   1.000000
   75       -2.054821   1.000000
   76       -1.862262   1.000000
   77       -1.684574   1.000000
   78       -1.551023   1.000000
   79       -1.439370   1.000000
   80       -1.370738   1.000000
   81       -1.186652   1.000000
   82       -1.097302   1.000000
   83       -0.868878   1.000038
   84       -0.823887   1.000137
   85       -0.609924   1.012219
   86       -0.447459   1.029426
   87       -0.391673   0.981737
   88       -0.228261   0.459532
   89       -0.146328   0.154105
   90       -0.059709  -0.009743
   91        0.015205  -0.035219
   92        0.168138  -0.007250
   93        0.225259  -0.002537
   94        0.333670  -0.000203
   95        0.356219  -0.000110
   96        0.379431  -0.000057
   97        0.530857  -0.000000
   98        0.640229  -0.000000
   99        0.721440  -0.000000
  100        0.762311  -0.000000
  101        0.817890  -0.000000
  102        0.981423  -0.000000
  103        1.086202  -0.000000
  104        1.092357  -0.000000
  105        1.189507  -0.000000
  106        1.215474  -0.000000
  107        1.296640  -0.000000
  108        1.372996  -0.000000
  109        1.439073  -0.000000
  110        1.541683  -0.000000
  111        1.568692  -0.000000
  112        1.574166  -0.000000
  113        1.696420  -0.000000
  114        1.977173  -0.000000

  0.4444444E+00  0.3870091E-15  0.3932070E-15  0.6734007E-02
    1      -13.706407   1.000000
    2      -13.238576   1.000000
    3      -12.468457   1.000000
    4      -12.010408   1.000000
    5      -11.463768   1.000000
    6      -11.348919   1.000000
    7      -11.213975   1.000000
    8      -10.965693   1.000000
    9      -10.787970   1.000000
   10      -10.709327   1.000000
   11      -10.596670   1.000000
   12      -10.434961   1.000000
   13      -10.116866   1.000000
   14       -9.843856   1.000000
   15       -9.678691   1.000000
   16       -9.623390   1.000000
   17       -9.093515   1.000000
   18       -9.030437   1.000000
   19       -8.976104   1.000000
   20       -8.842812   1.000000
   21       -8.508326   1.000000
   22       -8.282855   1.000000
   23       -8.218734   1.000000
   24       -8.014752   1.000000
   25       -7.649958   1.000000
   26       -7.578410   1.000000
   27       -7.336542   1.000000
   28       -7.160074   1.000000
   29       -7.061252   1.000000
   30       -6.564313   1.000000
   31       -6.214533   1.000000
   32       -5.983768   1.000000
   33       -5.916973   1.000000
   34       -5.787257   1.000000
   35       -5.738709   1.000000
   36       -5.581626   1.000000
   37       -5.494887   1.000000
   38       -5.396004   1.000000
   39       -5.324680   1.000000
   40       -5.181625   1.000000
   41       -5.136545   1.000000
   42       -5.029966   1.000000
   43       -4.966799   1.000000
   44       -4.831816   1.000000
   45       -4.694345   1.000000
   46       -4.624335   1.000000
   47       -4.545333   1.000000
   48       -4.467416   1.000000
   49       -4.426434   1.000000
   50       -4.343580   1.000000
   51       -4.313035   1.000000
   52       -4.276455   1.000000
   53       -4.151729   1.000000
   54       -4.092680   1.000000
   55       -4.034219   1.000000
   56       -3.893650   1.000000
   57       -3.845511   1.000000
   58       -3.806031   1.000000
   59       -3.681046   1.000000
   60       -3.645546   1.000000
   61       -3.592953   1.000000
   62       -3.569046   1.000000
   63       -3.445683   1.000000
   64       -3.331187   1.000000
   65       -3.226981   1.000000
   66       -3.066087   1.000000
   67       -3.036830   1.000000
   68       -2.941290   1.000000
   69       -2.765050   1.000000
   70       -2.620353   1.000000
   71       -2.560451   1.000000
   72       -2.460972   1.000000
   73       -2.242402   1.000000
   74       -2.114318   1.000000
   75       -2.022247   1.000000
   76       -1.835255   1.000000
   77       -1.734116   1.000000
   78       -1.557477   1.000000
   79       -1.462034   1.000000
   80       -1.373228   1.000000
   81       -1.266729   1.000000
   82       -1.072039   1.000000
   83       -0.773643   1.000502
   84       -0.724005   1.001568
   85       -0.563826   1.021687
   86       -0.423816   1.016239
   87       -0.365488   0.936442
   88       -0.294744   0.730326
   89       -0.161116   0.200332
   90       -0.134574   0.121072
   91       -0.018278  -0.032526
   92        0.151900  -0.009403
   93        0.201321  -0.004039
   94        0.274261  -0.000880
   95        0.312419  -0.000350
   96        0.484596  -0.000002
   97        0.577907  -0.000000
   98        0.647096  -0.000000
   99        0.774847  -0.000000
  100        0.860899  -0.000000
  101        0.903131  -0.000000
  102        0.988707  -0.000000
  103        1.076508  -0.000000
  104        1.115546  -0.000000
  105        1.186077  -0.000000
  106        1.242762  -0.000000
  107        1.318470  -0.000000
  108        1.400362  -0.000000
  109        1.456790  -0.000000
  110        1.538256  -0.000000
  111        1.576840  -0.000000
  112        1.652247  -0.000000
  113        1.739157  -0.000000
  114        1.928790  -0.000000

  0.3742002E-15  0.9090909E-01  0.3596334E-15  0.6734007E-02
    1      -13.974158   1.000000
    2      -12.743740   1.000000
    3      -12.458265   1.000000
    4      -11.940613   1.000000
    5      -11.610176   1.000000
    6      -11.413639   1.000000
    7      -11.209153   1.000000
    8      -11.145956   1.000000
    9      -10.882087   1.000000
   10      -10.638125   1.000000
   11      -10.563699   1.000000
   12      -10.368476   1.000000
   13      -10.310969   1.000000
   14      -10.122197   1.000000
   15       -9.728915   1.000000
   16       -9.461755   1.000000
   17       -9.127154   1.000000
   18       -8.980890   1.000000
   19       -8.748938   1.000000
   20       -8.560480   1.000000
   21       -8.355554   1.000000
   22       -8.199364   1.000000
   23       -8.072081   1.000000
   24       -7.892505   1.000000
   25       -7.647512   1.000000
   26       -7.390667   1.000000
   27       -7.338446   1.000000
   28       -7.179436   1.000000
   29       -7.040911   1.000000
   30       -6.380893   1.000000
   31       -6.283684   1.000000
   32       -6.170431   1.000000
   33       -6.090555   1.000000
   34       -6.038560   1.000000
   35       -5.874500   1.000000
   36       -5.721154   1.000000
   37       -5.594617   1.000000
   38       -5.422546   1.000000
   39       -5.328095   1.000000
   40       -5.288419   1.000000
   41       -5.154702   1.000000
   42       -5.041064   1.000000
   43       -4.968507   1.000000
   44       -4.895446   1.000000
   45       -4.870705   1.000000
   46       -4.758005   1.000000
   47       -4.690070   1.000000
   48       -4.553754   1.000000
   49       -4.455798   1.000000
   50       -4.407296   1.000000
   51       -4.291565   1.000000
   52       -4.269930   1.000000
   53       -4.159906   1.000000
   54       -4.109118   1.000000
   55       -3.996633   1.000000
   56       -3.952895   1.000000
   57       -3.853568   1.000000
   58       -3.742486   1.000000
   59       -3.684505   1.000000
   60       -3.595690   1.000000
   61       -3.530324   1.000000
   62       -3.454964   1.000000
   63       -3.339138   1.000000
   64       -3.278017   1.000000
   65       -3.210575   1.000000
   66       -3.039980   1.000000
   67       -2.983960   1.000000
   68       -2.842377   1.000000
   69       -2.785850   1.000000
   70       -2.687408   1.000000
   71       -2.479046   1.000000
   72       -2.442057   1.000000
   73       -2.299607   1.000000
   74       -2.197367   1.000000
   75       -1.913395   1.000000
   76       -1.769917   1.000000
   77       -1.671645   1.000000
   78       -1.604709   1.000000
   79       -1.531034   1.000000
   80       -1.391543   1.000000
   81       -1.223639   1.000000
   82       -1.105711   1.000000
   83       -1.052129   1.000000
   84       -0.854367   1.000058
   85       -0.718347   1.001770
   86       -0.506454   1.033630
   87       -0.416089   1.009854
   88       -0.283700   0.688519
   89       -0.161222   0.200681
   90       -0.038617  -0.024718
   91        0.024772  -0.034395
   92        0.082839  -0.022910
   93        0.188330  -0.005121
   94        0.271606  -0.000935
   95        0.404414  -0.000027
   96        0.465960  -0.000004
   97        0.559139  -0.000000
   98        0.631498  -0.000000
   99        0.684511  -0.000000
  100        0.724326  -0.000000
  101        0.778741  -0.000000
  102        0.863882  -0.000000
  103        0.979399  -0.000000
  104        1.081259  -0.000000
  105        1.153201  -0.000000
  106        1.189630  -0.000000
  107        1.237857  -0.000000
  108        1.258200  -0.000000
  109        1.348327  -0.000000
  110        1.470804  -0.000000
  111        1.526641  -0.000000
  112        1.571566  -0.000000
  113        1.688963  -0.000000
  114        1.821738  -0.000000

  0.1111111E+00  0.9090909E-01  0.4822234E-15  0.6734007E-02
    1      -13.931993   1.000000
    2      -12.764725   1.000000
    3      -12.570807   1.000000
    4      -11.871257   1.000000
    5      -11.572057   1.000000
    6      -11.424142   1.000000
    7      -11.274815   1.000000
    8      -11.144877   1.000000
    9      -10.852292   1.000000
   10      -10.624577   1.000000
   11      -10.565291   1.000000
   12      -10.371725   1.000000
   13      -10.260449   1.000000
   14      -10.086524   1.000000
   15       -9.732733   1.000000
   16       -9.476553   1.000000
   17       -9.145817   1.000000
   18       -8.970398   1.000000
   19       -8.765370   1.000000
   20       -8.589618   1.000000
   21       -8.414327   1.000000
   22       -8.235591   1.000000
   23       -8.063302   1.000000
   24       -7.817124   1.000000
   25       -7.698246   1.000000
   26       -7.520528   1.000000
   27       -7.347131   1.000000
   28       -7.171091   1.000000
   29       -6.979686   1.000000
   30       -6.401458   1.000000
   31       -6.222289   1.000000
   32       -6.110361   1.000000
   33       -6.035472   1.000000
   34       -6.013367   1.000000
   35       -5.835744   1.000000
   36       -5.724059   1.000000
   37       -5.609887   1.000000
   38       -5.439835   1.000000
   39       -5.300520   1.000000
   40       -5.242707   1.000000
   41       -5.170645   1.000000
   42       -5.066165   1.000000
   43       -4.965626   1.000000
   44       -4.943043   1.000000
   45       -4.847286   1.000000
   46       -4.714977   1.000000
   47       -4.661977   1.000000
   48       -4.543056   1.000000
   49       -4.443180   1.000000
   50       -4.356077   1.000000
   51       -4.316880   1.000000
   52       -4.290422   1.000000
   53       -4.162182   1.000000
   54       -4.089339   1.000000
   55       -3.995574   1.000000
   56       -3.947697   1.000000
   57       -3.845941   1.000000
   58       -3.751732   1.000000
   59       -3.693938   1.000000
   60       -3.609135   1.000000
   61       -3.579686   1.000000
   62       -3.488826   1.000000
   63       -3.400144   1.000000
   64       -3.299631   1.000000
   65       -3.213015   1.000000
   66       -3.014273   1.000000
   67       -2.929175   1.000000
   68       -2.828538   1.000000
   69       -2.772353   1.000000
   70       -2.685033   1.000000
   71       -2.536853   1.000000
   72       -2.422726   1.000000
   73       -2.291864   1.000000
   74       -2.188261   1.000000
   75       -2.043269   1.000000
   76       -1.781374   1.000000
   77       -1.651646   1.000000
   78       -1.608073   1.000000
   79       -1.426884   1.000000
   80       -1.383977   1.000000
   81       -1.224932   1.000000
   82       -1.100418   1.000000
   83       -1.022658   1.000000
   84       -0.896701   1.000016
   85       -0.689639   1.003173
   86       -0.464595   1.034020
   87       -0.439784   1.026108
   88       -0.276345   0.659640
   89       -0.131810   0.113802
   90       -0.045938  -0.020397
   91        0.000938  -0.035305
   92        0.069157  -0.026069
   93        0.198416  -0.004263
   94        0.281063  -0.000751
   95        0.380249  -0.000056
   96        0.459298  -0.000005
   97        0.550451  -0.000000
   98        0.645073  -0.000000
   99        0.673000  -0.000000
  100        0.756284  -0.000000
  101        0.820302  -0.000000
  102        0.890949  -0.000000
  103        0.989351  -0.000000
  104        1.120415  -0.000000
  105        1.171234  -0.000000
  106        1.189252  -0.000000
  107        1.262511  -0.000000
  108        1.276299  -0.000000
  109        1.348927  -0.000000
  110        1.419998  -0.000000
  111        1.505448  -0.000000
  112        1.578983  -0.000000
  113        1.645659  -0.000000
  114        1.897699  -0.000000

  0.2222222E+00  0.9090909E-01  0.3065600E-15  0.6734007E-02
    1      -13.847712   1.000000
    2      -12.926604   1.000000
    3      -12.565202   1.000000
    4      -11.866416   1.000000
    5      -11.519336   1.000000
    6      -11.437035   1.000000
    7      -11.323080   1.000000
    8      -11.153159   1.000000
    9      -10.794718   1.000000
   10      -10.611799   1.000000
   11      -10.554046   1.000000
   12      -10.379165   1.000000
   13      -10.198908   1.000000
   14      -10.039204   1.000000
   15       -9.724663   1.000000
   16       -9.488404   1.000000
   17       -9.189735   1.000000
   18       -8.968413   1.000000
   19       -8.791087   1.000000
   20       -8.583408   1.000000
   21       -8.520696   1.000000
   22       -8.304916   1.000000
   23       -8.063264   1.000000
   24       -7.885904   1.000000
   25       -7.661774   1.000000
   26       -7.552591   1.000000
   27       -7.328044   1.000000
   28       -7.201432   1.000000
   29       -6.952405   1.000000
   30       -6.409401   1.000000
   31       -6.198341   1.000000
   32       -6.068398   1.000000
   33       -5.985106   1.000000
   34       -5.919397   1.000000
   35       -5.840526   1.000000
   36       -5.689450   1.000000
   37       -5.579970   1.000000
   38       -5.422530   1.000000
   39       -5.288698   1.000000
   40       -5.209841   1.000000
   41       -5.147716   1.000000
   42       -5.049128   1.000000
   43       -5.014038   1.000000
   44       -4.926715   1.000000
   45       -4.815269   1.000000
   46       -4.675492   1.000000
   47       -4.618509   1.000000
   48       -4.547200   1.000000
   49       -4.414173   1.000000
   50       -4.377734   1.000000
   51       -4.328173   1.000000
   52       -4.265193   1.000000
   53       -4.163222   1.000000
   54       -4.079162   1.000000
   55       -3.973224   1.000000
   56       -3.935958   1.000000
   57       -3.849713   1.000000
   58       -3.765773   1.000000
   59       -3.693337   1.000000
   60       -3.639221   1.000000
   61       -3.625843   1.000000
   62       -3.541814   1.000000
   63       -3.451667   1.000000
   64       -3.339193   1.000000
   65       -3.204730   1.000000
   66       -3.032227   1.000000
   67       -2.912877   1.000000
   68       -2.824884   1.000000
   69       -2.747783   1.000000
   70       -2.706938   1.000000
   71       -2.568606   1.000000
   72       -2.363805   1.000000
   73       -2.337085   1.000000
   74       -2.193731   1.000000
   75       -2.097077   1.000000
   76       -1.813516   1.000000
   77       -1.679881   1.000000
   78       -1.577421   1.000000
   79       -1.429163   1.000000
   80       -1.362082   1.000000
   81       -1.157480   1.000000
   82       -1.088852   1.000000
   83       -0.976299   1.000001
   84       -0.869685   1.000037
   85       -0.678045   1.003960
   86       -0.511161   1.032920
   87       -0.388021   0.976404
   88       -0.292795   0.723098
   89       -0.152116   0.171595
   90       -0.028397  -0.029357