   50   50    1    1
  0.2363123E+02  0.8645320E-09  0.6085000E-09  0.2593596E-08  0.5000000E-15
   1.0000000000000000E-004
  CAR 
 Name                                    
    180    149    120

  0.3742002E-15  0.3742002E-15  0.3742002E-15  0.3367003E-02
    1      -13.899992   1.000000
    2      -12.732986   1.000000
    3      -12.346491   1.000000
    4      -11.893473   1.000000
    5      -11.604981   1.000000
    6      -11.179678   1.000000
    7      -11.111193   1.000000
    8      -10.806096   1.000000
    9      -10.667669   1.000000
   10      -10.642538   1.000000
   11      -10.530739   1.000000
   12      -10.442220   1.000000
   13      -10.276949   1.000000
   14      -10.251058   1.000000
   15       -9.716402   1.000000
   16       -9.254864   1.000000
   17       -9.151007   1.000000
   18       -9.085241   1.000000
   19       -8.954524   1.000000
   20       -8.561340   1.000000
   21       -8.351353   1.000000
   22       -8.145454   1.000000
   23       -7.989007   1.000000
   24       -7.894981   1.000000
   25       -7.650814   1.000000
   26       -7.489555   1.000000
   27       -7.405264   1.000000
   28       -7.278999   1.000000
   29       -7.073080   1.000000
   30       -6.570490   1.000000
   31       -6.494328   1.000000
   32       -6.214525   1.000000
   33       -6.129694   1.000000
   34       -5.982847   1.000000
   35       -5.937475   1.000000
   36       -5.791728   1.000000
   37       -5.477721   1.000000
   38       -5.414360   1.000000
   39       -5.341737   1.000000
   40       -5.313006   1.000000
   41       -5.226130   1.000000
   42       -5.156081   1.000000
   43       -4.892227   1.000000
   44       -4.879985   1.000000
   45       -4.735392   1.000000
   46       -4.712790   1.000000
   47       -4.659811   1.000000
   48       -4.594190   1.000000
   49       -4.469648   1.000000
   50       -4.436951   1.000000
   51       -4.292623   1.000000
   52       -4.203807   1.000000
   53       -4.133255   1.000000
   54       -4.016241   1.000000
   55       -3.919347   1.000000
   56       -3.871238   1.000000
   57       -3.834839   1.000000
   58       -3.742610   1.000000
   59       -3.673987   1.000000
   60       -3.616317   1.000000
   61       -3.588232   1.000000
   62       -3.572437   1.000000
   63       -3.409397   1.000000
   64       -3.346090   1.000000
   65       -3.229588   1.000000
   66       -3.183927   1.000000
   67       -3.029911   1.000000
   68       -2.849210   1.000000
   69       -2.809188   1.000000
   70       -2.687294   1.000000
   71       -2.618463   1.000000
   72       -2.444207   1.000000
   73       -2.292157   1.000000
   74       -2.140067   1.000000
   75       -2.099274   1.000000
   76       -1.735696   1.000000
   77       -1.651892   1.000000
   78       -1.599637   1.000000
   79       -1.469211   1.000000
   80       -1.356929   1.000000
   81       -1.320477   1.000000
   82       -1.040548   1.000000
   83       -0.986095   1.000000
   84       -0.723612   1.000029
   85       -0.531651   1.003419
   86       -0.347608   1.034245
   87       -0.234380   0.977144
   88       -0.142825   0.738463
   89       -0.023266   0.256761
   90        0.030572   0.093248
   91        0.148259  -0.034749
   92        0.179265  -0.034355
   93        0.250016  -0.019936
   94        0.269378  -0.015796
   95        0.517445  -0.000090
   96        0.532052  -0.000060
   97        0.567879  -0.000021
   98        0.581642  -0.000013
   99        0.615371  -0.000004
  100        0.768959  -0.000000
  101        0.812606  -0.000000
  102        0.865204  -0.000000
  103        0.946287  -0.000000
  104        1.141564  -0.000000
  105        1.241352  -0.000000
  106        1.248213  -0.000000
  107        1.286633  -0.000000
  108        1.322562  -0.000000
  109        1.430087  -0.000000
  110        1.493491  -0.000000
  111        1.558192  -0.000000
  112        1.614088  -0.000000
  113        1.757531  -0.000000
  114        1.821601  -0.000000
  115        1.834102  -0.000000
  116        1.943677  -0.000000
  117        1.979973  -0.000000
  118        2.023976  -0.000000
  119        2.226832  -0.000000
  120        3.889594  -0.000000

  0.1111111E+00  0.3729374E-15  0.3860503E-15  0.6734007E-02
    1      -13.876033   1.000000
    2      -12.723314   1.000000
    3      -12.450759   1.000000
    4      -11.841631   1.000000
    5      -11.581289   1.000000
    6      -11.221635   1.000000
    7      -11.109111   1.000000
    8      -10.808952   1.000000
    9      -10.665660   1.000000
   10      -10.644556   1.000000
   11      -10.523293   1.000000
   12      -10.430757   1.000000
   13      -10.240233   1.000000
   14      -10.219735   1.000000
   15       -9.722128   1.000000
   16       -9.308171   1.000000
   17       -9.123639   1.000000
   18       -9.087245   1.000000
   19       -8.950292   1.000000
   20       -8.599725   1.000000
   21       -8.380957   1.000000
   22       -8.134369   1.000000
   23       -7.955882   1.000000
   24       -7.883840   1.000000
   25       -7.741144   1.000000
   26       -7.483773   1.000000
   27       -7.429680   1.000000
   28       -7.274143   1.000000
   29       -7.046927   1.000000
   30       -6.545397   1.000000
   31       -6.484871   1.000000
   32       -6.175964   1.000000
   33       -6.096594   1.000000
   34       -5.995718   1.000000
   35       -5.926076   1.000000
   36       -5.771246   1.000000
   37       -5.514879   1.000000
   38       -5.459630   1.000000
   39       -5.337756   1.000000
   40       -5.269919   1.000000
   41       -5.164490   1.000000
   42       -5.107357   1.000000
   43       -5.017700   1.000000
   44       -4.887441   1.000000
   45       -4.781376   1.000000
   46       -4.734683   1.000000
   47       -4.636172   1.000000
   48       -4.536339   1.000000
   49       -4.486995   1.000000
   50       -4.396400   1.000000
   51       -4.284750   1.000000
   52       -4.177973   1.000000
   53       -4.125099   1.000000
   54       -4.015691   1.000000
   55       -3.926945   1.000000
   56       -3.864844   1.000000
   57       -3.838112   1.000000
   58       -3.765256   1.000000
   59       -3.676756   1.000000
   60       -3.632190   1.000000
   61       -3.606491   1.000000
   62       -3.551334   1.000000
   63       -3.431419   1.000000
   64       -3.330712   1.000000
   65       -3.283946   1.000000
   66       -3.169445   1.000000
   67       -3.042207   1.000000
   68       -2.833016   1.000000
   69       -2.806512   1.000000
   70       -2.682913   1.000000
   71       -2.601666   1.000000
   72       -2.417996   1.000000
   73       -2.263393   1.000000
   74       -2.133462   1.000000
   75       -2.085070   1.000000
   76       -1.747351   1.000000
   77       -1.674431   1.000000
   78       -1.603395   1.000000
   79       -1.460293   1.000000
   80       -1.313763   1.000000
   81       -1.274129   1.000000
   82       -1.061791   1.000000
   83       -0.996006   1.000000
   84       -0.765343   1.000008
   85       -0.507842   1.005309
   86       -0.335100   1.035305
   87       -0.266836   1.014018
   88       -0.135699   0.711989
   89       -0.044983   0.339522
   90        0.005370   0.161373
   91        0.144462  -0.034244
   92        0.174546  -0.034836
   93        0.285076  -0.012802
   94        0.290513  -0.011853
   95        0.450721  -0.000519
   96        0.466787  -0.000348
   97        0.558960  -0.000027
   98        0.611168  -0.000005
   99        0.648732  -0.000001
  100        0.768918  -0.000000
  101        0.810676  -0.000000
  102        0.932788  -0.000000
  103        0.955973  -0.000000
  104        1.186518  -0.000000
  105        1.258496  -0.000000
  106        1.263173  -0.000000
  107        1.301391  -0.000000
  108        1.322045  -0.000000
  109        1.422478  -0.000000
  110        1.495908  -0.000000
  111        1.542633  -0.000000
  112        1.608206  -0.000000
  113        1.752164  -0.000000
  114        1.808137  -0.000000
  115        1.867121  -0.000000
  116        1.922532  -0.000000
  117        1.980857  -0.000000
  118        2.128150  -0.000000
  119        2.224423  -0.000000
  120        3.845121  -0.000000

  0.2222222E+00  0.3922785E-15  0.3630220E-15  0.6734007E-02
    1      -13.806192   1.000000
    2      -12.772915   1.000000
    3      -12.566106   1.000000
    4      -11.818256   1.000000
    5      -11.529718   1.000000
    6      -11.281526   1.000000
    7      -11.098756   1.000000
    8      -10.819584   1.000000
    9      -10.664601   1.000000
   10      -10.642359   1.000000
   11      -10.505728   1.000000
   12      -10.400954   1.000000
   13      -10.164020   1.000000
   14      -10.136012   1.000000
   15       -9.741241   1.000000
   16       -9.414817   1.000000
   17       -9.086411   1.000000
   18       -9.076418   1.000000
   19       -8.916968   1.000000
   20       -8.697849   1.000000
   21       -8.477362   1.000000
   22       -8.122402   1.000000
   23       -8.003983   1.000000
   24       -7.899330   1.000000
   25       -7.726026   1.000000
   26       -7.484144   1.000000
   27       -7.448796   1.000000
   28       -7.287867   1.000000
   29       -7.017567   1.000000
   30       -6.491379   1.000000
   31       -6.466001   1.000000
   32       -6.114449   1.000000
   33       -6.063390   1.000000
   34       -5.994708   1.000000
   35       -5.866299   1.000000
   36       -5.754585   1.000000
   37       -5.546442   1.000000
   38       -5.494580   1.000000
   39       -5.380393   1.000000
   40       -5.237819   1.000000
   41       -5.097408   1.000000
   42       -5.067181   1.000000
   43       -4.995458   1.000000
   44       -4.898036   1.000000
   45       -4.842841   1.000000
   46       -4.795634   1.000000
   47       -4.645854   1.000000
   48       -4.532710   1.000000
   49       -4.445889   1.000000
   50       -4.367125   1.000000
   51       -4.256365   1.000000
   52       -4.143786   1.000000
   53       -4.087344   1.000000
   54       -4.019285   1.000000
   55       -3.953013   1.000000
   56       -3.871199   1.000000
   57       -3.850532   1.000000
   58       -3.780037   1.000000
   59       -3.697004   1.000000
   60       -3.640265   1.000000
   61       -3.607164   1.000000
   62       -3.524063   1.000000
   63       -3.463734   1.000000
   64       -3.428244   1.000000
   65       -3.274551   1.000000
   66       -3.152316   1.000000
   67       -3.089195   1.000000
   68       -2.830458   1.000000
   69       -2.785157   1.000000
   70       -2.657486   1.000000
   71       -2.559955   1.000000
   72       -2.365451   1.000000
   73       -2.202998   1.000000
   74       -2.134073   1.000000
   75       -2.022697   1.000000
   76       -1.835063   1.000000
   77       -1.673055   1.000000
   78       -1.573982   1.000000
   79       -1.448479   1.000000
   80       -1.288101   1.000000
   81       -1.130204   1.000000
   82       -1.076683   1.000000
   83       -0.964920   1.000000
   84       -0.870768   1.000000
   85       -0.511572   1.004967
   86       -0.329993   1.035451
   87       -0.311439   1.034178
   88       -0.144234   0.743592
   89       -0.078136   0.476461
   90       -0.023039   0.255939
   91        0.085805  -0.001228
   92        0.184920  -0.033630
   93        0.259927  -0.017764
   94        0.300720  -0.010198
   95        0.425388  -0.000943
   96        0.437590  -0.000710
   97        0.533887  -0.000057
   98        0.643294  -0.000002
   99        0.744394  -0.000000
  100        0.761229  -0.000000
  101        0.805661  -0.000000
  102        1.012896  -0.000000
  103        1.033991  -0.000000
  104        1.218780  -0.000000
  105        1.263120  -0.000000
  106        1.282864  -0.000000
  107        1.347609  -0.000000
  108        1.376460  -0.000000
  109        1.416839  -0.000000
  110        1.491705  -0.000000
  111        1.521103  -0.000000
  112        1.602636  -0.000000
  113        1.717655  -0.000000
  114        1.748484  -0.000000
  115        1.806921  -0.000000
  116        1.874389  -0.000000
  117        2.015405  -0.000000
  118        2.074966  -0.000000
  119        2.261903  -0.000000
  120        3.845302  -0.000000

  0.3333333E+00  0.3713828E-15  0.3468587E-15  0.6734007E-02
    1      -13.699177   1.000000
    2      -12.970295   1.000000
    3      -12.510845   1.000000
    4      -11.897117   1.000000
    5      -11.491096   1.000000
    6      -11.281186   1.000000
    7      -11.085547   1.000000
    8      -10.834642   1.000000
    9      -10.664858   1.000000
   10      -10.631139   1.000000
   11      -10.488183   1.000000
   12      -10.369231   1.000000
   13      -10.096643   1.000000
   14      -10.011738   1.000000
   15       -9.775739   1.000000
   16       -9.537838   1.000000
   17       -9.047641   1.000000
   18       -9.037961   1.000000
   19       -8.831580   1.000000
   20       -8.810814   1.000000
   21       -8.623690   1.000000
   22       -8.237328   1.000000
   23       -8.087622   1.000000
   24       -7.915647   1.000000
   25       -7.554651   1.000000
   26       -7.510968   1.000000
   27       -7.395945   1.000000
   28       -7.267075   1.000000
   29       -7.044449   1.000000
   30       -6.456870   1.000000
   31       -6.442987   1.000000
   32       -6.254749   1.000000
   33       -6.030597   1.000000
   34       -5.883229   1.000000
   35       -5.813165   1.000000
   36       -5.725099   1.000000
   37       -5.551381   1.000000
   38       -5.495591   1.000000
   39       -5.371839   1.000000
   40       -5.232253   1.000000
   41       -5.110375   1.000000
   42       -5.036219   1.000000
   43       -4.973835   1.000000
   44       -4.922294   1.000000
   45       -4.848153   1.000000
   46       -4.735308   1.000000
   47       -4.644276   1.000000
   48       -4.510686   1.000000
   49       -4.414063   1.000000
   50       -4.365208   1.000000
   51       -4.272989   1.000000
   52       -4.140564   1.000000
   53       -4.104726   1.000000
   54       -4.016964   1.000000
   55       -4.006282   1.000000
   56       -3.913285   1.000000
   57       -3.818950   1.000000
   58       -3.788416   1.000000
   59       -3.676584   1.000000
   60       -3.654357   1.000000
   61       -3.570159   1.000000
   62       -3.517919   1.000000
   63       -3.492616   1.000000
   64       -3.469436   1.000000
   65       -3.256830   1.000000
   66       -3.186370   1.000000
   67       -3.094141   1.000000
   68       -2.865350   1.000000
   69       -2.784776   1.000000
   70       -2.619598   1.000000
   71       -2.517695   1.000000
   72       -2.346379   1.000000
   73       -2.180794   1.000000
   74       -2.081722   1.000000
   75       -1.999486   1.000000
   76       -1.848716   1.000000
   77       -1.635836   1.000000
   78       -1.560683   1.000000
   79       -1.429246   1.000000
   80       -1.275089   1.000000
   81       -1.115412   1.000000
   82       -1.036067   1.000000
   83       -0.959625   1.000000
   84       -0.765978   1.000008
   85       -0.538338   1.003002
   86       -0.383360   1.027727
   87       -0.351202   1.033785
   88       -0.246173   0.993141
   89       -0.148126   0.757557
   90       -0.054400   0.377480
   91       -0.009888   0.210001
   92        0.195123  -0.031985
   93        0.234620  -0.023454
   94        0.398609  -0.001703
   95        0.425741  -0.000935
   96        0.473339  -0.000295
   97        0.528958  -0.000065
   98        0.675591  -0.000001
   99        0.745719  -0.000000
  100        0.817265  -0.000000
  101        0.852432  -0.000000
  102        1.081433  -0.000000
  103        1.110096  -0.000000
  104        1.186040  -0.000000
  105        1.257300  -0.000000
  106        1.295926  -0.000000
  107        1.363790  -0.000000
  108        1.412956  -0.000000
  109        1.439295  -0.000000
  110        1.511325  -0.000000
  111        1.541293  -0.000000
  112        1.630715  -0.000000
  113        1.659101  -0.000000
  114        1.688984  -0.000000
  115        1.744135  -0.000000
  116        1.799221  -0.000000
  117        1.837104  -0.000000
  118        2.058297  -0.000000
  119        2.151598  -0.000000
  120        2.232506  -0.000000

  0.4444444E+00  0.3870091E-15  0.3932070E-15  0.6734007E-02
    1      -13.588964   1.000000
    2      -13.142598   1.000000
    3      -12.428721   1.000000
    4      -12.002062   1.000000
    5      -11.463751   1.000000
    6      -11.267829   1.000000
    7      -11.076816   1.000000
    8      -10.844880   1.000000
    9      -10.665303   1.000000
   10      -10.620521   1.000000
   11      -10.477722   1.000000
   12      -10.350284   1.000000
   13      -10.046270   1.000000
   14       -9.893308   1.000000
   15       -9.811286   1.000000
   16       -9.649257   1.000000
   17       -9.011209   1.000000
   18       -8.968623   1.000000
   19       -8.907773   1.000000
   20       -8.772078   1.000000
   21       -8.676915   1.000000
   22       -8.445011   1.000000
   23       -8.098924   1.000000
   24       -7.902323   1.000000
   25       -7.522356   1.000000
   26       -7.453560   1.000000
   27       -7.394536   1.000000
   28       -7.137807   1.000000
   29       -7.067977   1.000000
   30       -6.516644   1.000000
   31       -6.431441   1.000000
   32       -6.409953   1.000000
   33       -5.988755   1.000000
   34       -5.843733   1.000000
   35       -5.741234   1.000000
   36       -5.643988   1.000000
   37       -5.553412   1.000000
   38       -5.487066   1.000000
   39       -5.369201   1.000000
   40       -5.240353   1.000000
   41       -5.158126   1.000000
   42       -5.050531   1.000000
   43       -5.006818   1.000000
   44       -4.894337   1.000000
   45       -4.815458   1.000000
   46       -4.662156   1.000000
   47       -4.579690   1.000000
   48       -4.481356   1.000000
   49       -4.396773   1.000000
   50       -4.376750   1.000000
   51       -4.254976   1.000000
   52       -4.236322   1.000000
   53       -4.157156   1.000000
   54       -4.078587   1.000000
   55       -3.993422   1.000000
   56       -3.944819   1.000000
   57       -3.790899   1.000000
   58       -3.758263   1.000000
   59       -3.692064   1.000000
   60       -3.660856   1.000000
   61       -3.544632   1.000000
   62       -3.495120   1.000000
   63       -3.481049   1.000000
   64       -3.451589   1.000000
   65       -3.288013   1.000000
   66       -3.198105   1.000000
   67       -3.074798   1.000000
   68       -2.904929   1.000000
   69       -2.801268   1.000000
   70       -2.598190   1.000000
   71       -2.500876   1.000000
   72       -2.366679   1.000000
   73       -2.173359   1.000000
   74       -2.062383   1.000000
   75       -1.994135   1.000000
   76       -1.742257   1.000000
   77       -1.631871   1.000000
   78       -1.569564   1.000000
   79       -1.426437   1.000000
   80       -1.252200   1.000000
   81       -1.181798   1.000000
   82       -0.991707   1.000000
   83       -0.853013   1.000000
   84       -0.662012   1.000169
   85       -0.575583   1.001386
   86       -0.521255   1.004162
   87       -0.364620   1.031603
   88       -0.308830   1.033732
   89       -0.227509   0.966344
   90       -0.034576   0.298924
   91       -0.004894   0.193506
   92        0.195503  -0.031917
   93        0.223612  -0.025996
   94        0.292198  -0.011568
   95        0.401683  -0.001595
   96        0.535172  -0.000055
   97        0.609933  -0.000005
   98        0.697721  -0.000000
   99        0.745687  -0.000000
  100        0.911715  -0.000000
  101        0.986259  -0.000000
  102        1.073487  -0.000000
  103        1.129756  -0.000000
  104        1.162200  -0.000000
  105        1.269437  -0.000000
  106        1.307441  -0.000000
  107        1.344618  -0.000000
  108        1.401332  -0.000000
  109        1.442126  -0.000000
  110        1.507075  -0.000000
  111        1.541635  -0.000000
  112        1.593880  -0.000000
  113        1.632228  -0.000000
  114        1.698909  -0.000000
  115        1.769179  -0.000000
  116        1.821053  -0.000000
  117        1.881331  -0.000000
  118        2.034624  -0.000000
  119        2.072559  -0.000000
  120        2.170457  -0.000000

  0.3742002E-15  0.9090909E-01  0.3596334E-15  0.6734007E-02
    1      -13.867178   1.000000
    2      -12.706086   1.000000
    3      -12.350620   1.000000
    4      -11.863762   1.000000
    5      -11.581626   1.000000
    6      -11.284303   1.000000
    7      -11.173237   1.000000
    8      -11.022640   1.000000
    9      -10.791629   1.000000
   10      -10.553684   1.000000
   11      -10.520753   1.000000
   12      -10.303117   1.000000
   13      -10.237824   1.000000
   14      -10.189618   1.000000
   15       -9.722111   1.000000
   16       -9.394734   1.000000
   17       -9.095775   1.000000
   18       -8.973275   1.000000
   19       -8.888506   1.000000
   20       -8.523376   1.000000
   21       -8.387834   1.000000
   22       -8.107767   1.000000
   23       -7.980434   1.000000
   24       -7.849856   1.000000
   25       -7.675418   1.000000
   26       -7.508200   1.000000
   27       -7.322854   1.000000
   28       -7.128798   1.000000
   29       -7.041379   1.000000
   30       -6.567528   1.000000
   31       -6.492772   1.000000
   32       -6.212845   1.000000
   33       -6.132669   1.000000
   34       -5.991512   1.000000
   35       -5.917370   1.000000
   36       -5.812299   1.000000
   37       -5.552366   1.000000
   38       -5.391728   1.000000
   39       -5.343389   1.000000
   40       -5.283696   1.000000
   41       -5.209091   1.000000
   42       -5.146876   1.000000
   43       -4.966313   1.000000
   44       -4.919377   1.000000
   45       -4.783454   1.000000
   46       -4.743413   1.000000
   47       -4.695154   1.000000
   48       -4.625054   1.000000
   49       -4.515260   1.000000
   50       -4.408089   1.000000
   51       -4.305519   1.000000
   52       -4.264524   1.000000
   53       -4.153263   1.000000
   54       -4.076077   1.000000
   55       -4.011190   1.000000
   56       -3.892250   1.000000
   57       -3.842662   1.000000
   58       -3.746896   1.000000
   59       -3.675756   1.000000
   60       -3.609631   1.000000
   61       -3.561845   1.000000
   62       -3.474609   1.000000
   63       -3.428484   1.000000
   64       -3.349805   1.000000
   65       -3.255615   1.000000
   66       -3.139268   1.000000
   67       -3.051900   1.000000
   68       -2.887670   1.000000
   69       -2.839233   1.000000
   70       -2.691013   1.000000
   71       -2.610505   1.000000
   72       -2.337506   1.000000
   73       -2.325836   1.000000
   74       -2.090266   1.000000
   75       -2.000274   1.000000
   76       -1.753288   1.000000
   77       -1.687200   1.000000
   78       -1.607074   1.000000
   79       -1.518510   1.000000
   80       -1.428839   1.000000
   81       -1.267855   1.000000
   82       -1.056561   1.000000
   83       -0.970892   1.000000
   84       -0.729910   1.000024
   85       -0.639963   1.000301
   86       -0.391121   1.025971
   87       -0.311508   1.034189
   88       -0.241811   0.987590
   89       -0.092194   0.535901
   90        0.036902   0.078636
   91        0.089992  -0.005550
   92        0.148489  -0.034775
   93        0.251812  -0.019535
   94        0.331409  -0.006216
   95        0.454544  -0.000472
   96        0.500670  -0.000144
   97        0.576801  -0.000016
   98        0.658924  -0.000001
   99        0.712605  -0.000000
  100        0.824786  -0.000000
  101        0.853455  -0.000000
  102        0.916117  -0.000000
  103        1.006919  -0.000000
  104        1.144719  -0.000000
  105        1.223144  -0.000000
  106        1.258868  -0.000000
  107        1.304092  -0.000000
  108        1.353609  -0.000000
  109        1.419642  -0.000000
  110        1.471475  -0.000000
  111        1.551876  -0.000000
  112        1.614538  -0.000000
  113        1.696490  -0.000000
  114        1.753385  -0.000000
  115        1.820947  -0.000000
  116        1.861174  -0.000000
  117        1.936736  -0.000000
  118        1.981282  -0.000000
  119        2.141334  -0.000000
  120        2.283437  -0.000000

  0.1111111E+00  0.9090909E-01  0.4822234E-15  0.6734007E-02
    1      -13.824146   1.000000
    2      -12.699457   1.000000
    3      -12.496951   1.000000
    4      -11.803607   1.000000
    5      -11.542089   1.000000
    6      -11.295363   1.000000
    7      -11.238724   1.000000
    8      -11.022497   1.000000
    9      -10.759191   1.000000
   10      -10.543563   1.000000
   11      -10.499066   1.000000
   12      -10.292139   1.000000
   13      -10.190434   1.000000
   14      -10.162748   1.000000
   15       -9.747454   1.000000
   16       -9.412316   1.000000
   17       -9.108977   1.000000
   18       -8.949368   1.000000
   19       -8.900224   1.000000
   20       -8.571345   1.000000
   21       -8.404118   1.000000
   22       -8.152320   1.000000
   23       -7.959715   1.000000
   24       -7.840663   1.000000
   25       -7.747513   1.000000
   26       -7.519711   1.000000
   27       -7.333845   1.000000
   28       -7.105203   1.000000
   29       -7.024752   1.000000
   30       -6.580999   1.000000
   31       -6.451941   1.000000
   32       -6.152727   1.000000
   33       -6.102010   1.000000
   34       -5.981157   1.000000
   35       -5.902868   1.000000
   36       -5.787295   1.000000
   37       -5.588970   1.000000
   38       -5.434219   1.000000
   39       -5.323582   1.000000
   40       -5.252222   1.000000
   41       -5.175280   1.000000
   42       -5.097401   1.000000
   43       -4.995720   1.000000
   44       -4.938993   1.000000
   45       -4.857581   1.000000
   46       -4.786658   1.000000
   47       -4.665671   1.000000
   48       -4.621089   1.000000
   49       -4.487990   1.000000
   50       -4.350087   1.000000
   51       -4.293467   1.000000
   52       -4.230551   1.000000
   53       -4.153697   1.000000
   54       -4.063266   1.000000
   55       -4.006463   1.000000
   56       -3.882870   1.000000
   57       -3.856513   1.000000
   58       -3.752151   1.000000
   59       -3.725709   1.000000
   60       -3.622958   1.000000
   61       -3.556051   1.000000
   62       -3.496660   1.000000
   63       -3.443393   1.000000
   64       -3.373108   1.000000
   65       -3.294665   1.000000
   66       -3.135848   1.000000
   67       -3.053049   1.000000
   68       -2.875701   1.000000
   69       -2.774613   1.000000
   70       -2.678166   1.000000
   71       -2.623221   1.000000
   72       -2.340682   1.000000
   73       -2.292848   1.000000
   74       -2.087530   1.000000
   75       -2.007130   1.000000
   76       -1.782835   1.000000
   77       -1.702080   1.000000
   78       -1.590966   1.000000
   79       -1.468743   1.000000
   80       -1.327777   1.000000
   81       -1.239362   1.000000
   82       -1.090505   1.000000
   83       -0.969016   1.000000
   84       -0.797120   1.000003
   85       -0.596535   1.000865
   86       -0.394657   1.025158
   87       -0.338805   1.035087
   88       -0.213647   0.941083
   89       -0.126278   0.675710
   90        0.013491   0.137709
   91        0.084069   0.000669
   92        0.144397  -0.034234
   93        0.260857  -0.017565
   94        0.358542  -0.003811
   95        0.435491  -0.000746
   96        0.468254  -0.000336
   97        0.549123  -0.000036
   98        0.665153  -0.000001
   99        0.745210  -0.000000
  100        0.813732  -0.000000
  101        0.844493  -0.000000
  102        0.944720  -0.000000
  103        1.055372  -0.000000
  104        1.175757  -0.000000
  105        1.251564  -0.000000
  106        1.290886  -0.000000
  107        1.331658  -0.000000
  108        1.358369  -0.000000
  109        1.408357  -0.000000
  110        1.481732  -0.000000
  111        1.532272  -0.000000
  112        1.601330  -0.000000
  113        1.684887  -0.000000
  114        1.724470  -0.000000
  115        1.800139  -0.000000
  116        1.872319  -0.000000
  117        1.934032  -0.000000
  118        2.033495  -0.000000
  119        2.226294  -0.000000
  120        3.752780  -0.000000

  0.2222222E+00  0.9090909E-01  0.3065600E-15  0.6734007E-02
    1      -13.737785   1.000000
    2      -12.824234   1.000000
    3      -12.531446   1.000000
    4      -11.823196   1.000000
    5      -11.495871   1.000000
    6      -11.313769   1.000000
    7      -11.269285   1.000000
    8      -11.027312   1.000000
    9      -10.702561   1.000000
   10      -10.528184   1.000000
   11      -10.469298   1.000000
   12      -10.281969   1.000000
   13      -10.129122   1.000000
   14      -10.107596   1.000000
   15       -9.792140   1.000000
   16       -9.430933   1.000000
   17       -9.148038   1.000000
   18       -8.919807   1.000000
   19       -8.872821   1.000000
   20       -8.636204   1.000000
   21       -8.458705   1.000000
   22       -8.220541   1.000000
   23       -8.076773   1.000000
   24       -7.903955   1.000000
   25       -7.608786   1.000000
   26       -7.519504   1.000000
   27       -7.313630   1.000000
   28       -7.107017   1.000000
   29       -7.021312   1.000000
   30       -6.598434   1.000000
   31       -6.400699   1.000000
   32       -6.157316   1.000000
   33       -6.057879   1.000000
   34       -5.955344   1.000000
   35       -5.835975   1.000000
   36       -5.785703   1.000000
   37       -5.563097   1.000000
   38       -5.473102   1.000000
   39       -5.348261   1.000000
   40       -5.255133   1.000000
   41       -5.143231   1.000000
   42       -5.059209   1.000000
   43       -4.972169   1.000000
   44       -4.927500   1.000000
   45       -4.896373   1.000000
   46       -4.800005   1.000000
   47       -4.675186   1.000000
   48       -4.577020   1.000000