 running on   48 total cores
 distrk:  each k-point on   48 cores,    1 groups
 distr:  one band on    8 cores,    6 groups
 using from now: INCAR     
 vasp.5.4.4.18Apr17-6-g9f103f2a35 (build Dec  7 2020 12:43:57) complex           
 POSCAR found type information on POSCAR  Mo V  B  H 
 POSCAR found :  4 types and      50 ions
 scaLAPACK will be used

 ----------------------------------------------------------------------------- 
|                                                                             |
|  ADVICE TO THIS USER RUNNING 'VASP/VAMP'   (HEAR YOUR MASTER'S VOICE ...):  |
|                                                                             |
|      You enforced a specific xc-type in the INCAR file,                     |
|      a different type was found on the POTCAR file                          |
|          I HOPE YOU KNOW, WHAT YOU ARE  DOING                               |
|                                                                             |
 ----------------------------------------------------------------------------- 

 LDA part: xc-table for Pade appr. of Perdew
 POSCAR, INCAR and KPOINTS ok, starting setup
 resort distribution
 resort distribution
 resort distribution
 resort distribution
 resort distribution
 resort distribution
 resort distribution
 resort distribution
 resort distribution
 resort distribution
 resort distribution
 resort distribution
 resort distribution
 resort distribution
 resort distribution
 resort distribution
 resort distribution
 resort distribution
 resort distribution
 resort distribution
 resort distribution
 resort distribution
 resort distribution
 resort distribution
 resort distribution
 resort distribution
 resort distribution
 resort distribution
 resort distribution
 resort distribution
 resort distribution
 resort distribution
 resort distribution
 resort distribution
 resort distribution
 resort distribution
 resort distribution
 resort distribution
 resort distribution
 resort distribution
 resort distribution
 resort distribution
 resort distribution
 resort distribution
 resort distribution
 resort distribution
 resort distribution
 resort distribution
 FFT: planning ...
 WAVECAR not read
 augmentation electrons   180.07800091216154     
 soft         electrons   0.0000000000000000     
 augmentation electrons   180.07800091216154     
 soft         electrons   0.0000000000000000     
 augmentation electrons   180.07800091216154     
 soft         electrons   0.0000000000000000     
 augmentation electrons   180.07800091216154     
 soft         electrons   0.0000000000000000     
 augmentation electrons   180.07800091216154     
 soft         electrons   0.0000000000000000     
 augmentation electrons   180.07800091216154     
 soft         electrons   0.0000000000000000     
 augmentation electrons   180.07800091216154     
 soft         electrons   0.0000000000000000     
 augmentation electrons   180.07800091216154     
 soft         electrons   0.0000000000000000     
 augmentation electrons   180.07800091216154     
 soft         electrons   0.0000000000000000     
 augmentation electrons   180.07800091216154     
 soft         electrons   0.0000000000000000     
 augmentation electrons   180.07800091216154     
 soft         electrons   0.0000000000000000     
 augmentation electrons   180.07800091216154     
 soft         electrons   0.0000000000000000     
 augmentation electrons   180.07800091216154     
 soft         electrons   0.0000000000000000     
 augmentation electrons   180.07800091216154     
 soft         electrons   0.0000000000000000     
 augmentation electrons   180.07800091216154     
 soft         electrons   0.0000000000000000     
 augmentation electrons   180.07800091216154     
 soft         electrons   0.0000000000000000     
 augmentation electrons   180.07800091216154     
 soft         electrons   0.0000000000000000     
 augmentation electrons   180.07800091216154     
 soft         electrons   0.0000000000000000     
 augmentation electrons   180.07800091216154     
 soft         electrons   0.0000000000000000     
 augmentation electrons   180.07800091216154     
 soft         electrons   0.0000000000000000     
 augmentation electrons   180.07800091216154     
 soft         electrons   0.0000000000000000     
 augmentation electrons   180.07800091216154     
 soft         electrons   0.0000000000000000     
 augmentation electrons   180.07800091216154     
 soft         electrons   0.0000000000000000     
 augmentation electrons   180.07800091216154     
 soft         electrons   0.0000000000000000     
 augmentation electrons   180.07800091216154     
 soft         electrons   0.0000000000000000     
 augmentation electrons   180.07800091216154     
 soft         electrons   0.0000000000000000     
 augmentation electrons   180.07800091216154     
 soft         electrons   0.0000000000000000     
 augmentation electrons   180.07800091216154     
 soft         electrons   0.0000000000000000     
 augmentation electrons   180.07800091216154     
 soft         electrons   0.0000000000000000     
 augmentation electrons   180.07800091216154     
 soft         electrons   0.0000000000000000     
 augmentation electrons   180.07800091216154     
 soft         electrons   0.0000000000000000     
 augmentation electrons   180.07800091216154     
 soft         electrons   0.0000000000000000     
 augmentation electrons   180.07800091216154     
 soft         electrons   0.0000000000000000     
 augmentation electrons   180.07800091216154     
 soft         electrons   0.0000000000000000     
 augmentation electrons   180.07800091216154     
 soft         electrons   0.0000000000000000     
 augmentation electrons   180.07800091216154     
 soft         electrons   0.0000000000000000     
 augmentation electrons   180.07800091216154     
 soft         electrons   0.0000000000000000     
 augmentation electrons   180.07800091216154     
 soft         electrons   0.0000000000000000     
 augmentation electrons   180.07800091216154     
 soft         electrons   0.0000000000000000     
 augmentation electrons   180.07800091216154     
 soft         electrons   0.0000000000000000     
 augmentation electrons   180.07800091216154     
 soft         electrons   0.0000000000000000     
 augmentation electrons   180.07800091216154     
 soft         electrons   0.0000000000000000     
 augmentation electrons   180.07800091216154     
 soft         electrons   0.0000000000000000     
 augmentation electrons   180.07800091216154     
 soft         electrons   0.0000000000000000     
 augmentation electrons   180.07800091216154     
 soft         electrons   0.0000000000000000     
 augmentation electrons   180.07800091216154     
 soft         electrons   0.0000000000000000     
 augmentation electrons   180.07800091216154     
 soft         electrons   0.0000000000000000     
 augmentation electrons   180.07800091216154     
 soft         electrons   0.0000000000000000     
 total        electrons   180.07800091216154     
 total        electrons   180.07800091216154     
 total        electrons   180.07800091216154     
 total        electrons   180.07800091216154     
 total        electrons   180.07800091216154     
 total        electrons   180.07800091216154     
 total        electrons   180.07800091216154     
 total        electrons   180.07800091216154     
 total        electrons   180.07800091216154     
 total        electrons   180.07800091216154     
 total        electrons   180.07800091216154     
 total        electrons   180.07800091216154     
 total        electrons   180.07800091216154     
 total        electrons   180.07800091216154     
 total        electrons   180.07800091216154     
 total        electrons   180.07800091216154     
 total        electrons   180.07800091216154     
 total        electrons   180.07800091216154     
 total        electrons   180.07800091216154     
 total        electrons   180.07800091216154     
 total        electrons   180.07800091216154     
 total        electrons   180.07800091216154     
 total        electrons   180.07800091216154     
 total        electrons   180.07800091216154     
 total        electrons   180.07800091216154     
 total        electrons   180.07800091216154     
 total        electrons   180.07800091216154     
 total        electrons   180.07800091216154     
 total        electrons   180.07800091216154     
 total        electrons   180.07800091216154     
 total        electrons   180.07800091216154     
 total        electrons   180.07800091216154     
 total        electrons   180.07800091216154     
 total        electrons   180.07800091216154     
 total        electrons   180.07800091216154     
 total        electrons   180.07800091216154     
 total        electrons   180.07800091216154     
 total        electrons   180.07800091216154     
 total        electrons   180.07800091216154     
 total        electrons   180.07800091216154     
 total        electrons   180.07800091216154     
 total        electrons   180.07800091216154     
 total        electrons   180.07800091216154     
 total        electrons   180.07800091216154     
 total        electrons   180.07800091216154     
 total        electrons   180.07800091216154     
 total        electrons   180.07800091216154     
 total        electrons   180.07800091216154     
 augmentation electrons   1106.0944788596130     
 soft         electrons   0.0000000000000000     
 augmentation electrons   1106.0944788596130     
 soft         electrons   0.0000000000000000     
 augmentation electrons   1106.0944788596130     
 soft         electrons   0.0000000000000000     
 augmentation electrons   1106.0944788596130     
 soft         electrons   0.0000000000000000     
 augmentation electrons   1106.0944788596130     
 soft         electrons   0.0000000000000000     
 augmentation electrons   1106.0944788596130     
 soft         electrons   0.0000000000000000     
 augmentation electrons   1106.0944788596130     
 soft         electrons   0.0000000000000000     
 augmentation electrons   1106.0944788596130     
 soft         electrons   0.0000000000000000     
 augmentation electrons   1106.0944788596130     
 soft         electrons   0.0000000000000000     
 augmentation electrons   1106.0944788596130     
 soft         electrons   0.0000000000000000     
 augmentation electrons   1106.0944788596130     
 soft         electrons   0.0000000000000000     
 augmentation electrons   1106.0944788596130     
 soft         electrons   0.0000000000000000     
 augmentation electrons   1106.0944788596130     
 soft         electrons   0.0000000000000000     
 augmentation electrons   1106.0944788596130     
 soft         electrons   0.0000000000000000     
 augmentation electrons   1106.0944788596130     
 soft         electrons   0.0000000000000000     
 augmentation electrons   1106.0944788596130     
 soft         electrons   0.0000000000000000     
 augmentation electrons   1106.0944788596130     
 soft         electrons   0.0000000000000000     
 augmentation electrons   1106.0944788596130     
 soft         electrons   0.0000000000000000     
 augmentation electrons   1106.0944788596130     
 soft         electrons   0.0000000000000000     
 augmentation electrons   1106.0944788596130     
 soft         electrons   0.0000000000000000     
 augmentation electrons   1106.0944788596130     
 soft         electrons   0.0000000000000000     
 augmentation electrons   1106.0944788596130     
 soft         electrons   0.0000000000000000     
 augmentation electrons   1106.0944788596130     
 soft         electrons   0.0000000000000000     
 augmentation electrons   1106.0944788596130     
 soft         electrons   0.0000000000000000     
 augmentation electrons   1106.0944788596130     
 soft         electrons   0.0000000000000000     
 augmentation electrons   1106.0944788596130     
 soft         electrons   0.0000000000000000     
 augmentation electrons   1106.0944788596130     
 soft         electrons   0.0000000000000000     
 augmentation electrons   1106.0944788596130     
 soft         electrons   0.0000000000000000     
 augmentation electrons   1106.0944788596130     
 soft         electrons   0.0000000000000000     
 augmentation electrons   1106.0944788596130     
 soft         electrons   0.0000000000000000     
 augmentation electrons   1106.0944788596130     
 soft         electrons   0.0000000000000000     
 augmentation electrons   1106.0944788596130     
 soft         electrons   0.0000000000000000     
 augmentation electrons   1106.0944788596130     
 soft         electrons   0.0000000000000000     
 augmentation electrons   1106.0944788596130     
 soft         electrons   0.0000000000000000     
 augmentation electrons   1106.0944788596130     
 soft         electrons   0.0000000000000000     
 augmentation electrons   1106.0944788596130     
 soft         electrons   0.0000000000000000     
 augmentation electrons   1106.0944788596130     
 soft         electrons   0.0000000000000000     
 augmentation electrons   1106.0944788596130     
 soft         electrons   0.0000000000000000     
 augmentation electrons   1106.0944788596130     
 soft         electrons   0.0000000000000000     
 augmentation electrons   1106.0944788596130     
 soft         electrons   0.0000000000000000     
 augmentation electrons   1106.0944788596130     
 soft         electrons   0.0000000000000000     
 augmentation electrons   1106.0944788596130     
 soft         electrons   0.0000000000000000     
 augmentation electrons   1106.0944788596130     
 soft         electrons   0.0000000000000000     
 augmentation electrons   1106.0944788596130     
 soft         electrons   0.0000000000000000     
 augmentation electrons   1106.0944788596130     
 soft         electrons   0.0000000000000000     
 augmentation electrons   1106.0944788596130     
 soft         electrons   0.0000000000000000     
 augmentation electrons   1106.0944788596130     
 soft         electrons   0.0000000000000000     
 augmentation electrons   1106.0944788596130     
 soft         electrons   0.0000000000000000     
 total        electrons   1106.0944788596130     
 total        electrons   1106.0944788596130     
 total        electrons   1106.0944788596130     
 total        electrons   1106.0944788596130     
 total        electrons   1106.0944788596130     
 total        electrons   1106.0944788596130     
 total        electrons   1106.0944788596130     
 total        electrons   1106.0944788596130     
 total        electrons   1106.0944788596130     
 total        electrons   1106.0944788596130     
 total        electrons   1106.0944788596130     
 total        electrons   1106.0944788596130     
 total        electrons   1106.0944788596130     
 total        electrons   1106.0944788596130     
 total        electrons   1106.0944788596130     
 total        electrons   1106.0944788596130     
 total        electrons   1106.0944788596130     
 total        electrons   1106.0944788596130     
 total        electrons   1106.0944788596130     
 total        electrons   1106.0944788596130     
 total        electrons   1106.0944788596130     
 total        electrons   1106.0944788596130     
 total        electrons   1106.0944788596130     
 total        electrons   1106.0944788596130     
 total        electrons   1106.0944788596130     
 total        electrons   1106.0944788596130     
 total        electrons   1106.0944788596130     
 total        electrons   1106.0944788596130     
 total        electrons   1106.0944788596130     
 total        electrons   1106.0944788596130     
 total        electrons   1106.0944788596130     
 total        electrons   1106.0944788596130     
 total        electrons   1106.0944788596130     
 total        electrons   1106.0944788596130     
 total        electrons   1106.0944788596130     
 total        electrons   1106.0944788596130     
 total        electrons   1106.0944788596130     
 total        electrons   1106.0944788596130     
 total        electrons   1106.0944788596130     
 total        electrons   1106.0944788596130     
 total        electrons   1106.0944788596130     
 total        electrons   1106.0944788596130     
 total        electrons   1106.0944788596130     
 total        electrons   1106.0944788596130     
 total        electrons   1106.0944788596130     
 total        electrons   1106.0944788596130     
 total        electrons   1106.0944788596130     
 total        electrons   1106.0944788596130     
 entering main loop
       N       E                     dE             d eps       ncg     rms          rms(c)
DAV:   1     0.149132930535E+04    0.14913E+04   -0.64230E+04 35760   0.120E+03
DAV:   2    -0.186318247236E+03   -0.16776E+04   -0.15689E+04 44736   0.284E+02
DAV:   3    -0.416697213617E+03   -0.23038E+03   -0.22151E+03 50232   0.127E+02
DAV:   4    -0.432998560851E+03   -0.16301E+02   -0.15811E+02 58752   0.376E+01
DAV:   5    -0.433674564479E+03   -0.67600E+00   -0.66362E+00 60660   0.708E+00    0.109E+02
RMM:   6    -0.398562094864E+03    0.35112E+02   -0.75757E+02 57640   0.885E+01    0.575E+01
RMM:   7    -0.418277591429E+03   -0.19715E+02   -0.24757E+02 40473   0.743E+01    0.400E+01
RMM:   8    -0.374656285421E+03    0.43621E+02   -0.74207E+01 47933   0.233E+01    0.266E+01
RMM:   9    -0.371951650712E+03    0.27046E+01   -0.41205E+01 54273   0.144E+01    0.209E+01
RMM:  10    -0.364448817553E+03    0.75028E+01   -0.10844E+01 48909   0.101E+01    0.162E+01
RMM:  11    -0.363266078571E+03    0.11827E+01   -0.45597E+00 40791   0.898E+00    0.131E+01
RMM:  12    -0.363147165166E+03    0.11891E+00   -0.21050E+00 55638   0.248E+00    0.120E+01
RMM:  13    -0.362994152139E+03    0.15301E+00   -0.58031E-01 43180   0.251E+00    0.109E+01
RMM:  14    -0.362512576378E+03    0.48158E+00   -0.14032E+00 41634   0.444E+00    0.725E+00
RMM:  15    -0.361988254475E+03    0.52432E+00   -0.22025E+00 41313   0.600E+00    0.301E+00
RMM:  16    -0.361975729203E+03    0.12525E-01   -0.75839E-01 53445   0.200E+00    0.205E+00
RMM:  17    -0.361980629933E+03   -0.49007E-02   -0.15701E-01 45946   0.122E+00    0.190E+00
RMM:  18    -0.361951145019E+03    0.29485E-01   -0.11969E-01 42840   0.127E+00    0.111E+00
RMM:  19    -0.361935106990E+03    0.16038E-01   -0.49057E-02 44417   0.746E-01    0.518E-01
RMM:  20    -0.361935237135E+03   -0.13014E-03   -0.35152E-02 52960   0.410E-01    0.488E-01
RMM:  21    -0.361931684623E+03    0.35525E-02   -0.87228E-03 53176   0.222E-01    0.157E-01
RMM:  22    -0.361931278729E+03    0.40589E-03   -0.37462E-03 53905   0.126E-01    0.122E-01
RMM:  23    -0.361931690855E+03   -0.41213E-03   -0.92954E-04 51269   0.774E-02    0.499E-02
RMM:  24    -0.361933035799E+03   -0.13449E-02   -0.13122E-03 43418   0.118E-01    0.136E-01
RMM:  25    -0.361933381426E+03   -0.34563E-03   -0.35042E-04 47851   0.518E-02    0.613E-02
RMM:  26    -0.361934490571E+03   -0.11091E-02   -0.52029E-04 42082   0.494E-02    0.452E-02
RMM:  27    -0.361934819220E+03   -0.32865E-03   -0.28126E-04 42951   0.713E-02    0.461E-02
RMM:  28    -0.361934907693E+03   -0.88473E-04   -0.89043E-05 41600   0.388E-02    0.255E-02
RMM:  29    -0.361935063010E+03   -0.15532E-03   -0.75861E-05 51317   0.179E-02    0.142E-02
RMM:  30    -0.361935116126E+03   -0.53116E-04   -0.16413E-05 38034   0.843E-03    0.734E-03
RMM:  31    -0.361935176743E+03   -0.60618E-04   -0.78042E-06 34655   0.568E-03    0.846E-03
RMM:  32    -0.361935237826E+03   -0.61083E-04   -0.58975E-06 33817   0.573E-03    0.391E-03
RMM:  33    -0.361935280228E+03   -0.42402E-04   -0.27372E-06 32473   0.379E-03    0.352E-03
RMM:  34    -0.361935325409E+03   -0.45182E-04   -0.29624E-06 32462   0.328E-03    0.443E-03
RMM:  35    -0.361935358523E+03   -0.33113E-04   -0.22603E-06 31550   0.316E-03    0.228E-03
RMM:  36    -0.361935378890E+03   -0.20367E-04   -0.24940E-06 31945   0.396E-03    0.361E-03
RMM:  37    -0.361935383661E+03   -0.47711E-05   -0.64253E-07 26151   0.310E-03    0.108E-03
RMM:  38    -0.361935390145E+03   -0.64840E-05   -0.61753E-07 21606   0.143E-03    0.709E-04
RMM:  39    -0.361935391872E+03   -0.17275E-05   -0.28627E-07 19330   0.177E-03    0.324E-04
RMM:  40    -0.361935392906E+03   -0.10341E-05   -0.22443E-07 17045   0.109E-03    0.452E-04
RMM:  41    -0.361935393539E+03   -0.63224E-06   -0.13849E-07 16233   0.115E-03
   1 F= -.36193539E+03 E0= -.36193709E+03  d E =0.509363E-02
 augmentation electrons   18.709384370251740     
 soft         electrons   161.42278331631272     
 augmentation electrons   18.709384370251740     
 soft         electrons   161.42278331631272     
 augmentation electrons   18.709384370251740     
 soft         electrons   161.42278331631272     
 augmentation electrons   18.709384370251740     
 soft         electrons   161.42278331631272     
 augmentation electrons   18.709384370251740     
 soft         electrons   161.42278331631272     
 augmentation electrons   18.709384370251740     
 soft         electrons   161.42278331631272     
 augmentation electrons   18.709384370251740     
 soft         electrons   161.42278331631272     
 augmentation electrons   18.709384370251740     
 soft         electrons   161.42278331631272     
 augmentation electrons   18.709384370251740     
 soft         electrons   161.42278331631272     
 augmentation electrons   18.709384370251740     
 soft         electrons   161.42278331631272     
 augmentation electrons   18.709384370251740     
 soft         electrons   161.42278331631272     
 augmentation electrons   18.709384370251740     
 soft         electrons   161.42278331631272     
 augmentation electrons   18.709384370251740     
 soft         electrons   161.42278331631272     
 augmentation electrons   18.709384370251740     
 soft         electrons   161.42278331631272     
 augmentation electrons   18.709384370251740     
 soft         electrons   161.42278331631272     
 augmentation electrons   18.709384370251740     
 soft         electrons   161.42278331631272     
 augmentation electrons   18.709384370251740     
 soft         electrons   161.42278331631272     
 augmentation electrons   18.709384370251740     
 soft         electrons   161.42278331631272     
 augmentation electrons   18.709384370251740     
 soft         electrons   161.42278331631272     
 augmentation electrons   18.709384370251740     
 soft         electrons   161.42278331631272     
 augmentation electrons   18.709384370251740     
 soft         electrons   161.42278331631272     
 augmentation electrons   18.709384370251740     
 soft         electrons   161.42278331631272     
 augmentation electrons   18.709384370251740     
 soft         electrons   161.42278331631272     
 augmentation electrons   18.709384370251740     
 soft         electrons   161.42278331631272     
 augmentation electrons   18.709384370251740     
 soft         electrons   161.42278331631272     
 augmentation electrons   18.709384370251740     
 augmentation electrons   18.709384370251740     
 soft         electrons   161.42278331631272     
 augmentation electrons   18.709384370251740     
 soft         electrons   161.42278331631272     
 augmentation electrons   18.709384370251740     
 soft         electrons   161.42278331631272     
 augmentation electrons   18.709384370251740     
 soft         electrons   161.42278331631272     
 augmentation electrons   18.709384370251740     
 soft         electrons   161.42278331631272     
 augmentation electrons   18.709384370251740     
 soft         electrons   161.42278331631272     
 augmentation electrons   18.709384370251740     
 soft         electrons   161.42278331631272     
 augmentation electrons   18.709384370251740     
 soft         electrons   161.42278331631272     
 augmentation electrons   18.709384370251740     
 soft         electrons   161.42278331631272     
 augmentation electrons   18.709384370251740     
 soft         electrons   161.42278331631272     
 augmentation electrons   18.709384370251740     
 soft         electrons   161.42278331631272     
 augmentation electrons   18.709384370251740     
 soft         electrons   161.42278331631272     
 augmentation electrons   18.709384370251740     
 soft         electrons   161.42278331631272     
 augmentation electrons   18.709384370251740     
 soft         electrons   161.42278331631272     
 augmentation electrons   18.709384370251740     
 soft         electrons   161.42278331631272     
 augmentation electrons   18.709384370251740     
 soft         electrons   161.42278331631272     
 augmentation electrons   18.709384370251740     
 soft         electrons   161.42278331631272     
 augmentation electrons   18.709384370251740     
 soft         electrons   161.42278331631272     
 augmentation electrons   18.709384370251740     
 soft         electrons   161.42278331631272     
 augmentation electrons   18.709384370251740     
 soft         electrons   161.42278331631272     
 augmentation electrons   18.709384370251740     
 soft         electrons   161.42278331631272     
 augmentation electrons   18.709384370251740     
 soft         electrons   161.42278331631272     
 soft         electrons   161.42278331631272     
 total        electrons   180.13216768656446     
 total        electrons   180.13216768656446     
 total        electrons   180.13216768656446     
 total        electrons   180.13216768656446     
 total        electrons   180.13216768656446     
 total        electrons   180.13216768656446     
 total        electrons   180.13216768656446     
 total        electrons   180.13216768656446     
 total        electrons   180.13216768656446     
 total        electrons   180.13216768656446     
 total        electrons   180.13216768656446     
 total        electrons   180.13216768656446     
 total        electrons   180.13216768656446     
 total        electrons   180.13216768656446     
 total        electrons   180.13216768656446     
 total        electrons   180.13216768656446     
 total        electrons   180.13216768656446     
 total        electrons   180.13216768656446     
 total        electrons   180.13216768656446     
 total        electrons   180.13216768656446     
 total        electrons   180.13216768656446     
 total        electrons   180.13216768656446     
 total        electrons   180.13216768656446     
 total        electrons   180.13216768656446     
 total        electrons   180.13216768656446     
 total        electrons   180.13216768656446     
 total        electrons   180.13216768656446     
 total        electrons   180.13216768656446     
 total        electrons   180.13216768656446     
 total        electrons   180.13216768656446     
 total        electrons   180.13216768656446     
 total        electrons   180.13216768656446     
 total        electrons   180.13216768656446     
 total        electrons   180.13216768656446     
 total        electrons   180.13216768656446     
 total        electrons   180.13216768656446     
 total        electrons   180.13216768656446     
 total        electrons   180.13216768656446     
 total        electrons   180.13216768656446     
 total        electrons   180.13216768656446     
 total        electrons   180.13216768656446     
 total        electrons   180.13216768656446     
 total        electrons   180.13216768656446     
 total        electrons   180.13216768656446     
 total        electrons   180.13216768656446     
 total        electrons   180.13216768656446     
 total        electrons   180.13216768656446     
 total        electrons   180.13216768656446     
Note: The following floating-point exceptions are signalling: IEEE_OVERFLOW_FLAG
Note: The following floating-point exceptions are signalling: IEEE_OVERFLOW_FLAG
Note: The following floating-point exceptions are signalling: IEEE_OVERFLOW_FLAG
Note: The following floating-point exceptions are signalling: IEEE_OVERFLOW_FLAG
Note: The following floating-point exceptions are signalling: IEEE_OVERFLOW_FLAG
Note: The following floating-point exceptions are signalling: IEEE_OVERFLOW_FLAG
Note: The following floating-point exceptions are signalling: IEEE_OVERFLOW_FLAG
Note: The following floating-point exceptions are signalling: IEEE_OVERFLOW_FLAG
Note: The following floating-point exceptions are signalling: IEEE_OVERFLOW_FLAG
Note: The following floating-point exceptions are signalling: IEEE_OVERFLOW_FLAG
Note: The following floating-point exceptions are signalling: IEEE_OVERFLOW_FLAG
Note: The following floating-point exceptions are signalling: IEEE_OVERFLOW_FLAG
Note: The following floating-point exceptions are signalling: IEEE_OVERFLOW_FLAG
Note: The following floating-point exceptions are signalling: IEEE_OVERFLOW_FLAG
Note: The following floating-point exceptions are signalling: IEEE_OVERFLOW_FLAG
Note: The following floating-point exceptions are signalling: IEEE_OVERFLOW_FLAG
Note: The following floating-point exceptions are signalling: IEEE_OVERFLOW_FLAG
Note: The following floating-point exceptions are signalling: IEEE_OVERFLOW_FLAG
Note: The following floating-point exceptions are signalling: IEEE_OVERFLOW_FLAG
Note: The following floating-point exceptions are signalling: IEEE_OVERFLOW_FLAG
Note: The following floating-point exceptions are signalling: IEEE_OVERFLOW_FLAG
Note: The following floating-point exceptions are signalling: IEEE_OVERFLOW_FLAG
Note: The following floating-point exceptions are signalling: IEEE_OVERFLOW_FLAG
Note: The following floating-point exceptions are signalling: IEEE_OVERFLOW_FLAG
Note: The following floating-point exceptions are signalling: IEEE_OVERFLOW_FLAG
Note: The following floating-point exceptions are signalling: IEEE_OVERFLOW_FLAG
Note: The following floating-point exceptions are signalling: IEEE_OVERFLOW_FLAG
Note: The following floating-point exceptions are signalling: IEEE_OVERFLOW_FLAG
Note: The following floating-point exceptions are signalling: IEEE_OVERFLOW_FLAG
Note: The following floating-point exceptions are signalling: IEEE_OVERFLOW_FLAG
Note: The following floating-point exceptions are signalling: IEEE_OVERFLOW_FLAG
Note: The following floating-point exceptions are signalling: IEEE_OVERFLOW_FLAG
Note: The following floating-point exceptions are signalling: IEEE_OVERFLOW_FLAG
Note: The following floating-point exceptions are signalling: IEEE_OVERFLOW_FLAG
Note: The following floating-point exceptions are signalling: IEEE_OVERFLOW_FLAG
Note: The following floating-point exceptions are signalling: IEEE_OVERFLOW_FLAG
Note: The following floating-point exceptions are signalling: IEEE_OVERFLOW_FLAG
Note: The following floating-point exceptions are signalling: IEEE_OVERFLOW_FLAG
Note: The following floating-point exceptions are signalling: IEEE_OVERFLOW_FLAG
Note: The following floating-point exceptions are signalling: IEEE_OVERFLOW_FLAG
Note: The following floating-point exceptions are signalling: IEEE_OVERFLOW_FLAG
Note: The following floating-point exceptions are signalling: IEEE_OVERFLOW_FLAG
Note: The following floating-point exceptions are signalling: IEEE_OVERFLOW_FLAG
Note: The following floating-point exceptions are signalling: IEEE_OVERFLOW_FLAG
Note: The following floating-point exceptions are signalling: IEEE_OVERFLOW_FLAG
Note: The following floating-point exceptions are signalling: IEEE_OVERFLOW_FLAG
Note: The following floating-point exceptions are signalling: IEEE_OVERFLOW_FLAG
Note: The following floating-point exceptions are signalling: IEEE_OVERFLOW_FLAG
