 running on    4 total cores
 distrk:  each k-point on    4 cores,    1 groups
 distr:  one band on    2 cores,    2 groups
 using from now: INCAR     
 vasp.5.4.4.18Apr17-6-g9f103f2a35 (build Dec  7 2020 12:43:57) complex           
 POSCAR found type information on POSCAR  Mo B 
 POSCAR found :  2 types and       3 ions
 scaLAPACK will be used
 LDA part: xc-table for Pade appr. of Perdew
 POSCAR, INCAR and KPOINTS ok, starting setup
 FFT: planning ...
 WAVECAR not read
 augmentation electrons   12.018373587906812     
 augmentation electrons   12.018373587906812     
 soft         electrons   0.0000000000000000     
 augmentation electrons   12.018373587906812     
 soft         electrons   0.0000000000000000     
 soft         electrons   0.0000000000000000     
 augmentation electrons   12.018373587906812     
 soft         electrons   0.0000000000000000     
 total        electrons   12.018373587906812     
 total        electrons   12.018373587906812     
 total        electrons   12.018373587906812     
 total        electrons   12.018373587906812     
 augmentation electrons   169.75791458332097     
 soft         electrons   0.0000000000000000     
 augmentation electrons   169.75791458332097     
 soft         electrons   0.0000000000000000     
 augmentation electrons   169.75791458332097     
 augmentation electrons   169.75791458332097     
 soft         electrons   0.0000000000000000     
 soft         electrons   0.0000000000000000     
 total        electrons   169.75791458332097     
 total        electrons   169.75791458332097     
 total        electrons   169.75791458332097     
 total        electrons   169.75791458332097     
 entering main loop
       N       E                     dE             d eps       ncg     rms          rms(c)
DAV:   1     0.349194751041E+02    0.34919E+02   -0.57127E+03  4320   0.105E+03
DAV:   2    -0.217895136163E+02   -0.56709E+02   -0.53801E+02  5162   0.219E+02
DAV:   3    -0.239736891582E+02   -0.21842E+01   -0.20915E+01  6044   0.379E+01
DAV:   4    -0.240009608190E+02   -0.27272E-01   -0.26670E-01  5510   0.320E+00
DAV:   5    -0.240013618045E+02   -0.40099E-03   -0.40045E-03  5586   0.292E-01    0.352E+01
RMM:   6    -0.199675393907E+02    0.40338E+01   -0.13888E+01  4336   0.236E+01    0.849E+00
RMM:   7    -0.200039156358E+02   -0.36376E-01   -0.46631E-01  4332   0.452E+00    0.514E+00
RMM:   8    -0.200677553935E+02   -0.63840E-01   -0.49605E-01  4320   0.814E+00    0.298E+00
RMM:   9    -0.200189225839E+02    0.48833E-01   -0.11516E-01  4320   0.251E+00    0.445E-01
RMM:  10    -0.200181595972E+02    0.76299E-03   -0.55938E-03  4378   0.617E-01    0.326E-01
RMM:  11    -0.200170165543E+02    0.11430E-02   -0.20759E-03  4322   0.367E-01    0.712E-02
RMM:  12    -0.200170713175E+02   -0.54763E-04   -0.20387E-04  4350   0.133E-01    0.263E-02
RMM:  13    -0.200170841693E+02   -0.12852E-04   -0.68469E-05  4333   0.707E-02    0.237E-02
RMM:  14    -0.200170774733E+02    0.66960E-05   -0.22910E-05  4310   0.382E-02    0.433E-03
RMM:  15    -0.200170770939E+02    0.37941E-06   -0.92998E-07  2806   0.956E-03
   1 F= -.20017077E+02 E0= -.20016670E+02  d E =-.200171E+02
 curvature:   0.00 expect dE= 0.000E+00 dE for cont linesearch  0.000E+00
 trial: gam= 0.00000 g(F)=  0.881E-45 g(S)=  0.101E+01 ort = 0.000E+00 (trialstep = 0.100E+01)
 search vector abs. value=  0.101E+01
 bond charge predicted
       N       E                     dE             d eps       ncg     rms          rms(c)
DAV:   1    -0.204299447904E+02   -0.41287E+00   -0.24805E+01  4364   0.476E+01    0.149E+01
RMM:   2    -0.199413788397E+02    0.48857E+00   -0.13097E+00  4320   0.790E+00    0.578E+00
RMM:   3    -0.198694160119E+02    0.71963E-01   -0.10988E-01  4320   0.245E+00    0.379E+00
RMM:   4    -0.198612547096E+02    0.81613E-02   -0.69334E-02  4320   0.200E+00    0.519E-01
RMM:   5    -0.198625190158E+02   -0.12643E-02   -0.69628E-03  4343   0.563E-01    0.179E-01
RMM:   6    -0.198620489145E+02    0.47010E-03   -0.51378E-03  4322   0.610E-01    0.105E-01
RMM:   7    -0.198619099519E+02    0.13896E-03   -0.26020E-04  4323   0.159E-01    0.269E-02
RMM:   8    -0.198619182052E+02   -0.82533E-05   -0.37446E-05  4353   0.500E-02    0.152E-02
RMM:   9    -0.198619282325E+02   -0.10027E-04   -0.30733E-05  4302   0.703E-02    0.283E-03
RMM:  10    -0.198619287524E+02   -0.51990E-06   -0.49160E-06  3598   0.139E-02
   2 F= -.19861929E+02 E0= -.19861847E+02  d E =0.155148E+00
 trial-energy change:    0.155148  1 .order    0.075251   -1.012831    1.163334
 step:   0.4121(harm=  0.4654)  dis= 0.00000  next Energy=   -20.220157 (dE=-0.203E+00)
 bond charge predicted
       N       E                     dE             d eps       ncg     rms          rms(c)
DAV:   1    -0.203945535849E+02   -0.53263E+00   -0.89208E+00  4350   0.300E+01    0.836E+00
RMM:   2    -0.202321427772E+02    0.16241E+00   -0.26230E-01  4320   0.387E+00    0.290E+00
RMM:   3    -0.202113516219E+02    0.20791E-01   -0.33104E-02  4320   0.137E+00    0.139E+00
RMM:   4    -0.202094260728E+02    0.19255E-02   -0.17722E-02  4320   0.105E+00    0.249E-01
RMM:   5    -0.202100082294E+02   -0.58216E-03   -0.11398E-03  4358   0.364E-01    0.622E-02
RMM:   6    -0.202100100048E+02   -0.17754E-05   -0.10385E-03  4322   0.301E-01    0.735E-02
RMM:   7    -0.202099457457E+02    0.64259E-04   -0.13391E-04  4322   0.117E-01    0.188E-02
RMM:   8    -0.202099463314E+02   -0.58562E-06   -0.12468E-05  4237   0.274E-02    0.498E-03
RMM:   9    -0.202099473755E+02   -0.10441E-05   -0.17587E-06  3076   0.166E-02    0.231E-03
RMM:  10    -0.202099472939E+02    0.81592E-07   -0.10143E-06  2745   0.736E-03
   3 F= -.20209947E+02 E0= -.20209714E+02  d E =-.192870E+00
 curvature:  -0.23 expect dE=-0.806E-02 dE for cont linesearch -0.168E-03
 ZBRENT: interpolating
 opt :   0.4013  next Energy=   -20.210093 (dE=-0.193E+00)
 bond charge predicted
       N       E                     dE             d eps       ncg     rms          rms(c)
DAV:   1    -0.202101765229E+02   -0.22915E-03   -0.29779E-03  4674   0.546E-01    0.173E-01
RMM:   2    -0.202101259653E+02    0.50558E-04   -0.93333E-05  4319   0.718E-02    0.653E-02
RMM:   3    -0.202101215239E+02    0.44414E-05   -0.11116E-05  4320   0.259E-02    0.333E-02
RMM:   4    -0.202101229307E+02   -0.14068E-05   -0.58955E-06  4229   0.199E-02    0.523E-03
RMM:   5    -0.202101233193E+02   -0.38863E-06   -0.33043E-07  2424   0.711E-03
   4 F= -.20210123E+02 E0= -.20209886E+02  d E =-.193046E+00
 curvature:  -0.20 expect dE=-0.653E-02 dE for cont linesearch -0.147E-05
 trial: gam= 0.03481 g(F)=  0.533E-43 g(S)=  0.325E-01 ort =-0.273E-02 (trialstep = 0.880E+00)
 search vector abs. value=  0.336E-01
 bond charge predicted
       N       E                     dE             d eps       ncg     rms          rms(c)
DAV:   1    -0.202355972027E+02   -0.25474E-01   -0.84060E-01  4360   0.771E+00    0.441E-01
RMM:   2    -0.202319107320E+02    0.36865E-02   -0.20020E-02  4328   0.123E+00    0.434E-01
RMM:   3    -0.202315971402E+02    0.31359E-03   -0.70362E-04  4350   0.179E-01    0.255E-01
RMM:   4    -0.202316719828E+02   -0.74843E-04   -0.43173E-04  4320   0.206E-01    0.493E-02
RMM:   5    -0.202318033314E+02   -0.13135E-03   -0.29938E-04  4320   0.169E-01    0.667E-02
RMM:   6    -0.202318119438E+02   -0.86124E-05   -0.55419E-05  4321   0.738E-02    0.204E-02
RMM:   7    -0.202318310396E+02   -0.19096E-04   -0.33460E-05  4319   0.764E-02    0.970E-03
RMM:   8    -0.202318308874E+02    0.15214E-06   -0.46922E-06  3459   0.214E-02
   5 F= -.20231831E+02 E0= -.20231803E+02  d E =-.217076E-01
 trial-energy change:   -0.021708  1 .order   -0.022143   -0.028553   -0.015733
 step:   1.9606(harm=  1.9606)  dis= 0.00000  next Energy=   -20.241921 (dE=-0.318E-01)
 bond charge predicted
       N       E                     dE             d eps       ncg     rms          rms(c)
DAV:   1    -0.202494578948E+02   -0.17627E-01   -0.12848E+00  4380   0.943E+00    0.490E-01
RMM:   2    -0.202469786045E+02    0.24793E-02   -0.24115E-02  4325   0.142E+00    0.468E-01
RMM:   3    -0.202473029383E+02   -0.32433E-03   -0.95198E-04  4363   0.248E-01    0.286E-01
RMM:   4    -0.202484061401E+02   -0.11032E-02   -0.84548E-04  4320   0.368E-01    0.945E-02
RMM:   5    -0.202489889782E+02   -0.58284E-03   -0.95924E-04  4320   0.352E-01    0.933E-02
RMM:   6    -0.202490666896E+02   -0.77711E-04   -0.20133E-04  4322   0.160E-01    0.237E-02
RMM:   7    -0.202491005377E+02   -0.33848E-04   -0.87681E-05  4323   0.126E-01    0.115E-02
RMM:   8    -0.202491003156E+02    0.22214E-06   -0.75311E-06  3682   0.196E-02
   6 F= -.20249100E+02 E0= -.20249093E+02  d E =-.389770E-01
 curvature:  -1.01 expect dE=-0.652E-02 dE for cont linesearch -0.389E-02
 ZBRENT: increasing intervall
 opt :   4.1212  next Energy=   -20.259478 (dE=-0.494E-01)
 bond charge predicted
       N       E                     dE             d eps       ncg     rms          rms(c)
DAV:   1    -0.202504557868E+02   -0.13552E-02   -0.50827E+00  4358   0.188E+01    0.107E+00
RMM:   2    -0.202371090205E+02    0.13347E-01   -0.98103E-02  4326   0.288E+00    0.101E+00
RMM:   3    -0.202377404321E+02   -0.63141E-03   -0.44445E-03  4356   0.579E-01    0.607E-01
RMM:   4    -0.202425507684E+02   -0.48103E-02   -0.46392E-03  4320   0.835E-01    0.214E-01
RMM:   5    -0.202456281777E+02   -0.30774E-02   -0.42413E-03  4320   0.778E-01    0.173E-01
RMM:   6    -0.202467393674E+02   -0.11112E-02   -0.17516E-03  4320   0.543E-01    0.723E-02
RMM:   7    -0.202470496925E+02   -0.31033E-03   -0.10938E-03  4320   0.427E-01    0.229E-02
RMM:   8    -0.202470647749E+02   -0.15082E-04   -0.10092E-04  4355   0.102E-01    0.143E-02
RMM:   9    -0.202470639232E+02    0.85164E-06   -0.84807E-06  3984   0.263E-02
   7 F= -.20247064E+02 E0= -.20246747E+02  d E =-.369406E-01
 curvature:  -2.71 expect dE=-0.136E+00 dE for cont linesearch -0.241E-01
 ZBRENT: bracketing found
 ZBRENT: interpolating
 opt :   2.8168  next Energy=   -20.253954 (dE=-0.438E-01)
 bond charge predicted
       N       E                     dE             d eps       ncg     rms          rms(c)
DAV:   1    -0.202574205157E+02   -0.10356E-01   -0.18608E+00  4334   0.115E+01    0.664E-01
RMM:   2    -0.202520395976E+02    0.53809E-02   -0.37028E-02  4325   0.178E+00    0.617E-01
RMM:   3    -0.202523741092E+02   -0.33451E-03   -0.17364E-03  4362   0.363E-01    0.366E-01
RMM:   4    -0.202541587598E+02   -0.17847E-02   -0.16112E-03  4320   0.517E-01    0.136E-01
RMM:   5    -0.202554650792E+02   -0.13063E-02   -0.19135E-03  4320   0.523E-01    0.116E-01
RMM:   6    -0.202557524953E+02   -0.28742E-03   -0.53527E-04  4322   0.277E-01    0.409E-02
RMM:   7    -0.202558514701E+02   -0.98975E-04   -0.34696E-04  4320   0.251E-01    0.125E-02
RMM:   8    -0.202558521777E+02   -0.70758E-06   -0.14712E-05  4035   0.223E-02    0.718E-03
RMM:   9    -0.202558524556E+02   -0.27793E-06   -0.30862E-06  3272   0.217E-02
   8 F= -.20255852E+02 E0= -.20255888E+02  d E =-.457291E-01
 curvature:  -0.55 expect dE=-0.651E-02 dE for cont linesearch -0.465E-03
 ZBRENT: interpolating
 opt :   3.4007  next Energy=   -20.257784 (dE=-0.477E-01)
 bond charge predicted
       N       E                     dE             d eps       ncg     rms          rms(c)
DAV:   1    -0.202561979353E+02   -0.34576E-03   -0.37221E-01  4342   0.511E+00    0.297E-01
RMM:   2    -0.202549518610E+02    0.12461E-02   -0.73566E-03  4325   0.787E-01    0.280E-01
RMM:   3    -0.202549263850E+02    0.25476E-04   -0.33982E-04  4355   0.153E-01    0.166E-01
RMM:   4    -0.202551812138E+02   -0.25483E-03   -0.29497E-04  4320   0.207E-01    0.553E-02
RMM:   5    -0.202553874677E+02   -0.20625E-03   -0.29172E-04  4320   0.202E-01    0.473E-02
RMM:   6    -0.202554498052E+02   -0.62338E-04   -0.97565E-05  4320   0.122E-01    0.186E-02
RMM:   7    -0.202554730697E+02   -0.23264E-04   -0.68235E-05  4319   0.110E-01    0.639E-03
RMM:   8    -0.202554736297E+02   -0.56001E-06   -0.49182E-06  3276   0.195E-02
   9 F= -.20255474E+02 E0= -.20255319E+02  d E =-.453503E-01
 curvature:  -2.27 expect dE=-0.495E-01 dE for cont linesearch -0.138E-02
 ZBRENT: interpolating
 opt :   3.1331  next Energy=   -20.256079 (dE=-0.460E-01)
 bond charge predicted
       N       E                     dE             d eps       ncg     rms          rms(c)
DAV:   1    -0.202564835348E+02   -0.10105E-02   -0.78003E-02  4334   0.235E+00    0.133E-01
RMM:   2    -0.202562581819E+02    0.22535E-03   -0.15145E-03  4325   0.357E-01    0.125E-01
RMM:   3    -0.202562670635E+02   -0.88816E-05   -0.69973E-05  4358   0.713E-02    0.745E-02
RMM:   4    -0.202563353348E+02   -0.68271E-04   -0.63067E-05  4320   0.101E-01    0.273E-02
RMM:   5    -0.202563891323E+02   -0.53797E-04   -0.80735E-05  4320   0.107E-01    0.232E-02
RMM:   6    -0.202564011608E+02   -0.12029E-04   -0.22464E-05  4291   0.579E-02    0.811E-03
RMM:   7    -0.202564050593E+02   -0.38985E-05   -0.13799E-05  4032   0.496E-02    0.261E-03
RMM:   8    -0.202564051608E+02   -0.10151E-06   -0.62110E-07  2580   0.479E-03
  10 F= -.20256405E+02 E0= -.20256439E+02  d E =-.462818E-01
 curvature:  -0.99 expect dE=-0.157E-01 dE for cont linesearch -0.117E-05
 trial: gam= 0.62527 g(F)=  0.198E-42 g(S)=  0.158E-01 ort =-0.199E-03 (trialstep = 0.133E+01)
 search vector abs. value=  0.287E-01
 bond charge predicted
       N       E                     dE             d eps       ncg     rms          rms(c)
DAV:   1    -0.202560652834E+02    0.33978E-03   -0.14935E+00  4366   0.111E+01    0.265E+00
RMM:   2    -0.202462315593E+02    0.98337E-02   -0.19358E-02  4320   0.123E+00    0.127E+00
RMM:   3    -0.202447528496E+02    0.14787E-02   -0.56874E-03  4333   0.659E-01    0.498E-01
RMM:   4    -0.202457828744E+02   -0.10300E-02   -0.14250E-03  4322   0.401E-01    0.133E-01
RMM:   5    -0.202471370244E+02   -0.13541E-02   -0.19479E-03  4320   0.626E-01    0.665E-02
RMM:   6    -0.202473706295E+02   -0.23361E-03   -0.35762E-04  4323   0.216E-01    0.415E-02
RMM:   7    -0.202475166805E+02   -0.14605E-03   -0.29908E-04  4320   0.216E-01    0.133E-02
RMM:   8    -0.202475447626E+02   -0.28082E-04   -0.10489E-04  4321   0.129E-01    0.301E-03
RMM:   9    -0.202475455387E+02   -0.77615E-06   -0.95501E-06  3656   0.262E-02
  11 F= -.20247546E+02 E0= -.20247245E+02  d E =0.885962E-02
 trial-energy change:    0.008860  1 .order    0.008034   -0.020879    0.036947
 step:   0.4549(harm=  0.4805)  dis= 0.00000  next Energy=   -20.259940 (dE=-0.354E-02)
 bond charge predicted
       N       E                     dE             d eps       ncg     rms          rms(c)
DAV:   1    -0.202625690860E+02   -0.15024E-01   -0.65529E-01  4358   0.746E+00    0.172E+00
RMM:   2    -0.202586775547E+02    0.38915E-02   -0.81078E-03  4320   0.817E-01    0.821E-01
RMM:   3    -0.202583323388E+02    0.34522E-03   -0.24371E-03  4331   0.456E-01    0.302E-01
RMM:   4    -0.202589482455E+02   -0.61591E-03   -0.63065E-04  4321   0.288E-01    0.987E-02
RMM:   5    -0.202597099529E+02   -0.76171E-03   -0.12053E-03  4320   0.500E-01    0.443E-02
RMM:   6    -0.202597768479E+02   -0.66895E-04   -0.13044E-04  4325   0.122E-01    0.243E-02
RMM:   7    -0.202598189105E+02   -0.42063E-04   -0.10019E-04  4319   0.126E-01    0.557E-03
RMM:   8    -0.202598227584E+02   -0.38479E-05   -0.13987E-05  3953   0.423E-02    0.112E-03
RMM:   9    -0.202598231281E+02   -0.36974E-06   -0.19004E-06  2999   0.140E-02
  12 F= -.20259823E+02 E0= -.20259625E+02  d E =-.341797E-02
 curvature:  -0.44 expect dE=-0.305E-04 dE for cont linesearch -0.552E-07
 trial: gam=-0.03834 g(F)=  0.117E-43 g(S)=  0.696E-04 ort =-0.601E-04 (trialstep = 0.116E+01)
 search vector abs. value=  0.116E-03
 reached required accuracy - stopping structural energy minimisation
 writing wavefunctions
 augmentation electrons   1.1703431088379055     
 soft         electrons   10.852182063565353     
 augmentation electrons   1.1703431088379055     
 soft         electrons   10.852182063565353     
 augmentation electrons   1.1703431088379055     
 soft         electrons   10.852182063565353     
 augmentation electrons   1.1703431088379055     
 soft         electrons   10.852182063565353     
 total        electrons   12.022525172403258     
 total        electrons   12.022525172403258     
 total        electrons   12.022525172403258     
 total        electrons   12.022525172403258     
