    3    3   60    1
  0.8144830E+01  0.3039000E-09  0.3039000E-09  0.3055000E-09  0.5000000E-15
   1.0000000000000000E-004
  CAR 
 Name                                    
     12    216     10

  0.3742002E-15  0.3742002E-15  0.3742002E-15  0.2962963E-03
    1       -5.330962   1.000000
    2        4.680406   1.000000
    3        4.680409   1.000000
    4        5.428642   1.000000
    5        6.749835   1.000000
    6        9.711189   1.000000
    7        9.711190   1.000000
    8       13.006786  -0.000000
    9       13.010289  -0.000000
   10       14.420938   0.000000

  0.6666667E-01  0.3766815E-15  0.3742002E-15  0.1777778E-02
    1       -5.239167   1.000000
    2        4.467234   1.000000
    3        4.725140   1.000000
    4        5.484712   1.000000
    5        6.459222   1.000000
    6        9.671699   1.000000
    7       10.091255   1.000598
    8       12.376938  -0.000000
    9       12.468397  -0.000000
   10       15.004458   0.000000

  0.1333333E+00  0.3754153E-15  0.3742002E-15  0.1777778E-02
    1       -4.968369   1.000000
    2        3.900419   1.000000
    3        4.844099   1.000000
    4        5.619238   1.000000
    5        5.860617   1.000000
    6        9.562100   1.000000
    7       10.927937  -0.000000
    8       11.453571  -0.000000
    9       11.759118  -0.000000
   10       15.788685   0.000000

  0.2000000E+00  0.3870416E-15  0.3742002E-15  0.1777778E-02
    1       -4.531757   1.000000
    2        3.124258   1.000000
    3        4.995283   1.000000
    4        5.240541   1.000000
    5        5.719201   1.000000
    6        9.405869   1.000000
    7       10.798823  -0.000000
    8       11.263689  -0.000000
    9       11.818043  -0.000000
   10       16.343814   0.000000

  0.2666667E+00  0.4120044E-15  0.3742002E-15  0.1777778E-02
    1       -3.949570   1.000000
    2        2.250062   1.000000
    3        4.703917   1.000000
    4        5.126871   1.000000
    5        5.636972   1.000000
    6        9.233555   1.000000
    7       10.664480  -0.000056
    8       11.034431  -0.000000
    9       12.407465  -0.000000
   10       16.486473   0.000000

  0.3333333E+00  0.4025434E-15  0.3742002E-15  0.1777778E-02
    1       -3.247873   1.000000
    2        1.336606   1.000000
    3        4.287450   1.000000
    4        5.205093   1.000000
    5        5.362260   1.000000
    6        9.075191   1.000000
    7       11.040868  -0.000000
    8       11.086874  -0.000000
    9       12.497351  -0.000000
   10       16.865610   0.000000

  0.4000000E+00  0.3732510E-15  0.3742002E-15  0.1777778E-02
    1       -2.461369   1.000000
    2        0.417509   1.000000
    3        4.005482   1.000000
    4        5.054532   1.000000
    5        5.232965   1.000000
    6        8.955469   1.000000
    7       11.177510  -0.000000
    8       11.841122  -0.000000
    9       12.329383  -0.000000
   10       16.882278   0.000000

  0.4666667E+00  0.3915456E-15  0.3742002E-15  0.1777778E-02
    1       -1.679110   1.000000
    2       -0.428024   1.000000
    3        3.863537   1.000000
    4        4.865201   1.000000
    5        5.236361   1.000000
    6        8.891344   1.000000
    7       11.299545  -0.000000
    8       12.188082  -0.000000
    9       12.506828  -0.000000
   10       16.729638   0.000000

  0.6666667E-01  0.6666667E-01  0.3742002E-15  0.1777778E-02
    1       -5.057817   1.000000
    2        4.091856   1.000000
    3        4.783992   1.000000
    4        5.589460   1.000000
    5        6.032859   1.000000
    6        9.575522   1.000000
    7       10.705932  -0.000004
    8       11.731944  -0.000000
    9       11.883159  -0.000000
   10       15.753525   0.000000

  0.1333333E+00  0.6666667E-01  0.3742002E-15  0.3555556E-02
    1       -4.703788   1.000000
    2        3.454087   1.000000
    3        4.832258   1.000000
    4        5.465211   1.000000
    5        5.768688   1.000000
    6        9.384645   1.000000
    7       10.958673  -0.000000
    8       11.417929  -0.000000
    9       11.610485  -0.000000
   10       16.352904   0.000000

  0.2000000E+00  0.6666667E-01  0.3742002E-15  0.3555556E-02
    1       -4.193364   1.000000
    2        2.666040   1.000000
    3        4.794380   1.000000
    4        4.928076   1.000000
    5        5.942879   1.000000
    6        9.139145   1.000000
    7       10.433763   0.014614
    8       11.261026  -0.000000
    9       12.460724  -0.000000
   10       16.395292   0.000000

  0.2666667E+00  0.6666667E-01  0.3742002E-15  0.3555556E-02
    1       -3.549032   1.000000
    2        1.802806   1.000000
    3        4.486726   1.000000
    4        4.630383   1.000000
    5        6.025403   1.000000
    6        8.882254   1.000000
    7       10.334911   0.670452
    8       11.425085  -0.000000
    9       12.901711  -0.000000
   10       16.529620   0.000000

  0.3333333E+00  0.6666667E-01  0.3742002E-15  0.3555556E-02
    1       -2.799352   1.000000
    2        0.904038   1.000000
    3        4.164956   1.000000
    4        4.394447   1.000000
    5        6.007705   1.000000
    6        8.657772   1.000000
    7       10.603144  -0.001287
    8       11.824969  -0.000000
    9       12.895794  -0.000000
   10       17.077356   0.000000

  0.4000000E+00  0.6666667E-01  0.3742002E-15  0.3555556E-02
    1       -1.989493   1.000000
    2        0.008761   1.000000
    3        3.970713   1.000000
    4        4.195737   1.000000
    5        5.957220   1.000000
    6        8.504659   1.000000
    7       10.970020  -0.000000
    8       12.280299  -0.000000
    9       12.763679  -0.000000
   10       17.041140   0.000000

  0.4666667E+00  0.6666667E-01  0.3742002E-15  0.1777778E-02
    1       -1.396508   1.000000
    2       -0.612041   1.000000
    3        3.905903   1.000000
    4        4.119698   1.000000
    5        5.933681   1.000000
    6        8.450311   1.000000
    7       11.135450  -0.000000
    8       12.499589  -0.000000
    9       12.703257  -0.000000
   10       16.979580   0.000000

  0.1333333E+00  0.1333333E+00  0.3742002E-15  0.1777778E-02
    1       -4.275163   1.000000
    2        2.863713   1.000000
    3        4.589849   1.000000
    4        5.028176   1.000000
    5        6.085164   1.000000
    6        9.025558   1.000000
    7       10.339553   0.633317
    8       11.365889  -0.000000
    9       12.571698  -0.000000
   10       16.343435   0.000000

  0.2000000E+00  0.1333333E+00  0.3742002E-15  0.3555556E-02
    1       -3.699961   1.000000
    2        2.171754   1.000000
    3        4.184071   1.000000
    4        4.648753   1.000000
    5        6.464078   1.000000
    6        8.582358   1.000000
    7        9.874687   1.000000
    8       11.624550  -0.000000
    9       13.487409   0.000000
   10       16.102764   0.000000

  0.2666667E+00  0.1333333E+00  0.3742002E-15  0.3555556E-02
    1       -3.001426   1.000000
    2        1.394566   1.000000
    3        3.751016   1.000000
    4        4.364708   1.000000
    5        6.736329   1.000000
    6        8.148773   1.000000
    7        9.802398   1.000000
    8       11.997339  -0.000000
    9       13.924302   0.000000
   10       16.510459   0.000000

  0.3333333E+00  0.1333333E+00  0.3742002E-15  0.3555556E-02
    1       -2.210426   1.000000
    2        0.549742   1.000000
    3        3.408325   1.000000
    4        4.182843   1.000000
    5        6.817605   1.000000
    6        7.806092   1.000000
    7       10.153571   1.007500
    8       12.227160  -0.000000
    9       13.927481   0.000000
   10       17.453011   0.000000

  0.4000000E+00  0.1333333E+00  0.3742002E-15  0.3555556E-02
    1       -1.396126   1.000000
    2       -0.294459   1.000000
    3        3.224068   1.000000
    4        4.095979   1.000000
    5        6.806759   1.000000
    6        7.617131   1.000000
    7       10.611646  -0.000877
    8       12.192291  -0.000000
    9       13.862056   0.000000
   10       17.722694   0.000000

  0.2000000E+00  0.2000000E+00  0.3742002E-15  0.1777778E-02
    1       -3.068556   1.000000
    2        1.648743   1.000000
    3        3.445813   1.000000
    4        4.461815   1.000000
    5        7.080549   1.000000
    6        7.922802   1.000000
    7        9.416458   1.000000
    8       12.064879  -0.000000
    9       14.626317   0.000000
   10       15.943213   0.000000

  0.2666667E+00  0.2000000E+00  0.3742002E-15  0.3555556E-02
    1       -2.322342   1.000000
    2        1.040289   1.000000
    3        2.792714   1.000000
    4        4.378900   1.000000
    5        7.312889   1.000000
    6        7.569758   1.000000
    7        9.334984   1.000000
    8       12.238609  -0.000000
    9       15.193313   0.000000
   10       16.457015   0.000000

  0.3333333E+00  0.2000000E+00  0.3742002E-15  0.3555556E-02
    1       -1.495177   1.000000
    2        0.290255   1.000000
    3        2.383968   1.000000
    4        4.371480   1.000000
    5        6.873399   1.000000
    6        7.714796   1.000000
    7        9.785135   1.000000
    8       11.968544  -0.000000
    9       15.182415   0.000000
   10       17.417905   0.000000

  0.4000000E+00  0.2000000E+00  0.3742002E-15  0.1777778E-02
    1       -0.777703   1.000000
    2       -0.409668   1.000000
    3        2.252467   1.000000
    4        4.381000   1.000000
    5        6.710088   1.000000
    6        7.715034   1.000000
    7       10.184411   1.018062
    8       11.654450  -0.000000
    9       15.154359   0.000000
   10       17.857295   0.000000

  0.2666667E+00  0.2666667E+00  0.3742002E-15  0.1777778E-02
    1       -1.535858   1.000000
    2        0.687915   1.000000
    3        1.907629   1.000000
    4        4.530645   1.000000
    5        6.548862   1.000000
    6        8.421515   1.000000
    7        9.076046   1.000000
    8       11.899732  -0.000000
    9       16.330527   0.000000
   10       16.527048   0.000000

  0.3333333E+00  0.2666667E+00  0.3742002E-15  0.3555556E-02
    1       -0.684782   1.000000
    2        0.131002   1.000000
    3        1.380580   1.000000
    4        4.742379   1.000000
    5        6.014829   1.000000
    6        8.659016   1.000000
    7        9.541785   1.000000
    8       11.224263  -0.000000
    9       16.346616   0.000000
   10       17.363457   0.000000

  0.3333333E+00  0.3333333E+00  0.3742002E-15  0.5925926E-03
    1        0.012440   1.000000
    2        0.012443   1.000000
    3        0.682850   1.000000
    4        5.294484   1.000000
    5        5.294487   1.000000
    6        9.359173   1.000000
    7        9.359174   1.000000
    8       10.654319  -0.000100
    9       17.092621   0.000000
   10       17.092621   0.000000

  0.3742002E-15  0.3742002E-15  0.6666667E-01  0.5925926E-03
    1       -5.258417   1.000000
    2        4.738377   1.000000
    3        4.738380   1.000000
    4        5.054717   1.000000
    5        7.077338   1.000000
    6        9.463518   1.000000
    7        9.463519   1.000000
    8       12.834346  -0.000000
    9       12.834350  -0.000000
   10       15.030674   0.000000

  0.6666667E-01  0.3766815E-15  0.6666667E-01  0.3555556E-02
    1       -5.167775   1.000000
    2        4.518661   1.000000
    3        4.776884   1.000000
    4        5.082126   1.000000
    5        6.780607   1.000000
    6        9.410848   1.000000
    7        9.852880   1.000000
    8       12.395374  -0.000000
    9       12.486159  -0.000000
   10       15.181699   0.000000

  0.1333333E+00  0.3754153E-15  0.6666667E-01  0.3555556E-02
    1       -4.900534   1.000000
    2        3.931777   1.000000
    3        4.874644   1.000000
    4        5.102472   1.000000
    5        6.272754   1.000000
    6        9.285155   1.000000
    7       10.522343  -0.019956
    8       11.805832  -0.000000
    9       11.945772  -0.000000
   10       15.747921   0.000000

  0.2000000E+00  0.3870416E-15  0.6666667E-01  0.3555556E-02
    1       -4.470025   1.000000
    2        3.126835   1.000000
    3        4.951111   1.000000
    4        4.985133   1.000000
    5        5.920192   1.000000
    6        9.164642   1.000000
    7       10.596834  -0.001693
    8       11.526162  -0.000000
    9       12.042117  -0.000000
   10       15.977660   0.000000

  0.2666667E+00  0.4120044E-15  0.6666667E-01  0.3555556E-02
    1       -3.896478   1.000000
    2        2.225568   1.000000
    3        4.629118   1.000000
    4        5.056515   1.000000
    5        5.673963   1.000000
    6        9.115591   1.000000
    7       10.585667  -0.002685
    8       11.274633  -0.000000
    9       12.501755  -0.000000
   10       16.116286   0.000000

  0.3333333E+00  0.4025434E-15  0.6666667E-01  0.3555556E-02
    1       -3.205104   1.000000
    2        1.293379   1.000000
    3        4.313840   1.000000
    4        5.068301   1.000000
    5        5.368019   1.000000
    6        9.134288   1.000000
    7       10.969995  -0.000000
    8       11.194207  -0.000000
    9       12.580600  -0.000000
   10       16.677746   0.000000

  0.4000000E+00  0.3732510E-15  0.6666667E-01  0.3555556E-02
    1       -2.426854   1.000000
    2        0.363384   1.000000
    3        4.088924   1.000000
    4        5.042778   1.000000
    5        5.062355   1.000000
    6        9.167028   1.000000
    7       11.244804  -0.000000
    8       11.490308  -0.000000
    9       12.618904  -0.000000
   10       16.840538   0.000000

  0.4666667E+00  0.3915456E-15  0.6666667E-01  0.3555556E-02
    1       -1.630358   1.000000
    2       -0.505444   1.000000
    3        3.975523   1.000000
    4        4.876008   1.000000
    5        5.017727   1.000000
    6        9.182872   1.000000
    7       11.321040  -0.000000
    8       11.677015  -0.000000
    9       12.963034  -0.000000
   10       16.510632   0.000000

  0.6666667E-01  0.6666667E-01  0.6666667E-01  0.3555556E-02
    1       -4.988793   1.000000
    2        4.134913   1.000000
    3        4.813867   1.000000
    4        5.107246   1.000000
    5        6.422935   1.000000
    6        9.269329   1.000000
    7       10.430922   0.022702
    8       11.876871  -0.000000
    9       12.098372  -0.000000
   10       15.921629   0.000000

  0.1333333E+00  0.6666667E-01  0.6666667E-01  0.7111111E-02
    1       -4.639619   1.000000
    2        3.479066   1.000000
    3        4.789768   1.000000
    4        5.056375   1.000000
    5        6.145154   1.000000
    6        9.024963   1.000000
    7       10.896035  -0.000000
    8       11.413087  -0.000000
    9       11.992675  -0.000000
   10       16.181103   0.000000

  0.2000000E+00  0.6666667E-01  0.6666667E-01  0.7111111E-02
    1       -4.136694   1.000000
    2        2.663368   1.000000
    3        4.601195   1.000000
    4        4.909161   1.000000
    5        6.076313   1.000000
    6        8.817897   1.000000
    7       10.676151  -0.000028
    8       11.320625  -0.000000
    9       12.545783  -0.000000
   10       16.066678   0.000000

  0.2666667E+00  0.6666667E-01  0.6666667E-01  0.7111111E-02
    1       -3.502232   1.000000
    2        1.774377   1.000000
    3        4.333531   1.000000
    4        4.697765   1.000000
    5        6.010357   1.000000
    6        8.753968   1.000000
    7       10.603572  -0.001263
    8       11.414154  -0.000000
    9       12.916344  -0.000000
   10       16.296175   0.000000

  0.3333333E+00  0.6666667E-01  0.6666667E-01  0.7111111E-02
    1       -2.763100   1.000000
    2        0.858996   1.000000
    3        4.122824   1.000000
    4        4.436991   1.000000
    5        5.873502   1.000000
    6        8.786189   1.000000
    7       10.764780  -0.000000
    8       11.703623  -0.000000
    9       12.951573  -0.000000
   10       16.858333   0.000000

  0.4000000E+00  0.6666667E-01  0.6666667E-01  0.7111111E-02
    1       -1.956744   1.000000
    2       -0.048452   1.000000
    3        4.018512   1.000000
    4        4.202495   1.000000
    5        5.746019   1.000000
    6        8.805110   1.000000
    7       11.030794  -0.000000
    8       11.956825  -0.000000
    9       13.026238  -0.000000
   10       16.822596   0.000000

  0.4666667E+00  0.6666667E-01  0.6666667E-01  0.3555556E-02
    1       -1.323293   1.000000
    2       -0.714644   1.000000
    3        4.014649   1.000000
    4        4.083975   1.000000
    5        5.696660   1.000000
    6        8.805276   1.000000
    7       11.162550  -0.000000
    8       12.019582  -0.000000
    9       13.139012   0.000000
   10       16.672815   0.000000

  0.1333333E+00  0.1333333E+00  0.6666667E-01  0.3555556E-02
    1       -4.217334   1.000000
    2        2.884122   1.000000
    3        4.408466   1.000000
    4        4.930948   1.000000
    5        6.327698   1.000000
    6        8.552472   1.000000
    7       10.799541  -0.000000
    8       11.305045  -0.000000
    9       12.631321  -0.000000
   10       16.146397   0.000000

  0.2000000E+00  0.1333333E+00  0.6666667E-01  0.7111111E-02
    1       -3.651236   1.000000
    2        2.173584   1.000000
    3        3.971883   1.000000
    4        4.709645   1.000000
    5        6.600038   1.000000
    6        8.153477   1.000000
    7       10.379769   0.301408
    8       11.614075  -0.000000
    9       13.431495   0.000000
   10       15.941793   0.000000

  0.2666667E+00  0.1333333E+00  0.6666667E-01  0.7111111E-02
    1       -2.964050   1.000000
    2        1.371138   1.000000
    3        3.604246   1.000000
    4        4.465884   1.000000
    5        6.627425   1.000000
    6        8.085535   1.000000
    7       10.184676   1.018176
    8       11.964489  -0.000000
    9       13.833269   0.000000
   10       16.313691   0.000000

  0.3333333E+00  0.1333333E+00  0.6666667E-01  0.7111111E-02
    1       -2.183906   1.000000
    2        0.508922   1.000000
    3        3.340038   1.000000
    4        4.279558   1.000000
    5        6.432430   1.000000
    6        8.200074   1.000000
    7       10.340022   0.629509
    8       12.162391  -0.000000
    9       13.882752   0.000000
   10       16.927666   0.000000

  0.4000000E+00  0.1333333E+00  0.6666667E-01  0.7111111E-02
    1       -1.362476   1.000000
    2       -0.355750   1.000000
    3        3.200582   1.000000
    4        4.184960   1.000000
    5        6.281042   1.000000
    6        8.241280   1.000000
    7       10.682748  -0.000019
    8       12.120265  -0.000000
    9       13.871020   0.000000
   10       17.165710   0.000000

  0.2000000E+00  0.2000000E+00  0.6666667E-01  0.3555556E-02
    1       -3.030809   1.000000
    2        1.647859   1.000000
    3        3.284831   1.000000
    4        4.535983   1.000000
    5        7.244869   1.000000
    6        7.466190   1.000000
    7        9.946954   1.000000
    8       12.052555  -0.000000
    9       14.466962   0.000000
   10       15.814810   0.000000

  0.2666667E+00  0.2000000E+00  0.6666667E-01  0.7111111E-02
    1       -2.298081   1.000000
    2        1.021170   1.000000
    3        2.709786   1.000000
    4        4.442723   1.000000
    5        6.837334   1.000000
    6        7.894809   1.000000
    7        9.728986   1.000000
    8       12.222827  -0.000000
    9       15.033657   0.000000
   10       16.263028   0.000000

  0.3333333E+00  0.2000000E+00  0.6666667E-01  0.7111111E-02
    1       -1.483249   1.000000
    2        0.254859   1.000000
    3        2.361781   1.000000
    4        4.426374   1.000000
    5        6.407705   1.000000
    6        8.231359   1.000000
    7        9.962569   1.000000
    8       11.971405  -0.000000
    9       15.076881   0.000000
   10       17.089613   0.000000

  0.4000000E+00  0.2000000E+00  0.6666667E-01  0.3555556E-02
    1       -0.726128   1.000000
    2       -0.493807   1.000000
    3        2.250506   1.000000
    4        4.433846   1.000000
    5        6.247850   1.000000
    6        8.289898   1.000000
    7       10.278799   0.981208
    8       11.681539  -0.000000
    9       15.064842   0.000000
   10       17.458677   0.000000

  0.2666667E+00  0.2666667E+00  0.6666667E-01  0.3555556E-02
    1       -1.528784   1.000000
    2        0.662223   1.000000
    3        1.881669   1.000000
    4        4.561258   1.000000
    5        6.298864   1.000000
    6        8.569044   1.000000
    7        9.442777   1.000000
    8       11.913122  -0.000000
    9       16.219323   0.000000
   10       16.290244   0.000000

  0.3333333E+00  0.2666667E+00  0.6666667E-01  0.7111111E-02
    1       -0.698161   1.000000
    2        0.097736   1.000000
    3        1.398817   1.000000
    4        4.748598   1.000000
    5        5.832394   1.000000
    6        8.939661   1.000000
    7        9.711607   1.000000
    8       11.270314  -0.000000
    9       16.228405   0.000000
   10       17.163473   0.000000

  0.3333333E+00  0.3333333E+00  0.6666667E-01  0.1185185E-02
    1       -0.042756   1.000000
    2       -0.042754   1.000000
    3        0.770104   1.000000
    4        5.230670   1.000000
    5        5.230672   1.000000
    6        9.562840   1.000000
    7        9.562840   1.000000
    8       10.705584  -0.000004
    9       16.959870   0.000000
   10       16.959871   0.000000

  0.3742002E-15  0.3742002E-15  0.1333333E+00  0.5925926E-03
    1       -5.044959   1.000000
    2        4.318362   1.000000
    3        4.911896   1.000000
    4        4.911898   1.000000
    5        7.693540   1.000000
    6        8.894053   1.000000
    7        8.894054   1.000000
    8       12.353448  -0.000000
    9       12.353451  -0.000000
   10       14.970801   0.000000

  0.6666667E-01  0.3766815E-15  0.1333333E+00  0.3555556E-02
    1       -4.957959   1.000000
    2        4.337256   1.000000
    3        4.676237   1.000000
    4        4.929443   1.000000
    5        7.262393   1.000000
    6        8.834129   1.000000
    7        9.397549   1.000000
    8       12.182195  -0.000000
    9       12.299466  -0.000000
   10       15.290043   0.000000

  0.1333333E+00  0.3754153E-15  0.1333333E+00  0.3555556E-02
    1       -4.701855   1.000000
    2        3.979064   1.000000
    3        4.445598   1.000000
    4        4.958161   1.000000
    5        6.667213   1.000000
    6        8.732859   1.000000
    7       10.031338   1.000023
    8       12.042563  -0.000000
    9       12.159965  -0.000000
   10       15.811864   0.000000

  0.2000000E+00  0.3870416E-15  0.1333333E+00  0.3555556E-02
    1       -4.290620   1.000000
    2        3.111066   1.000000
    3        4.476703   1.000000
    4        4.944216   1.000000
    5        6.172761   1.000000
    6        8.740585   1.000000
    7       10.236576   1.035258
    8       11.974483  -0.000000
    9       12.405407  -0.000000
   10       15.604490   0.000000

  0.2666667E+00  0.4120044E-15  0.1333333E+00  0.3555556E-02
    1       -3.744641   1.000000
    2        2.155742   1.000000
    3        4.449163   1.000000
    4        4.856287   1.000000
    5        5.750073   1.000000
    6        8.939774   1.000000
    7       10.361905   0.446174
    8       11.777781  -0.000000
    9       12.809751  -0.000000
   10       15.600671   0.000000

  0.3333333E+00  0.4025434E-15  0.1333333E+00  0.3555556E-02
    1       -3.087428   1.000000
    2        1.193035   1.000000
    3        4.374518   1.000000
    4        4.720908   1.000000
    5        5.370036   1.000000
    6        9.287575   1.000000
    7       10.674928  -0.000030
    8       11.599486  -0.000000
    9       12.879616  -0.000000
   10       16.082951   0.000000

  0.4000000E+00  0.3732510E-15  0.1333333E+00  0.3555556E-02
    1       -2.342430   1.000000
    2        0.252597   1.000000
    3        4.303669   1.000000
    4        4.593480   1.000000
    5        5.061289   1.000000
    6        9.654926   1.000000
    7       10.985432  -0.000000
    8       11.463519  -0.000000
    9       13.038292  -0.000000
   10       16.363561   0.000000

  0.4666667E+00  0.3915456E-15  0.1333333E+00  0.3555556E-02
    1       -1.533379   1.000000
    2       -0.650490   1.000000
    3        4.267312   1.000000
    4        4.518733   1.000000
    5        4.883277   1.000000
    6        9.891799   1.000000
    7       11.088922  -0.000000
    8       11.388697  -0.000000
    9       13.445617   0.000000
   10       16.060675   0.000000

  0.6666667E-01  0.6666667E-01  0.1333333E+00  0.3555556E-02
    1       -4.786371   1.000000
    2        4.260419   1.000000
    3        4.348655   1.000000
    4        4.935412   1.000000
    5        6.874944   1.000000
    6        8.643671   1.000000
    7       10.001026   1.000003
    8       11.930547  -0.000000
    9       12.276116  -0.000000
   10       15.840282   0.000000

  0.1333333E+00  0.6666667E-01  0.1333333E+00  0.7111111E-02
    1       -4.452506   1.000000
    2        3.535919   1.000000
    3        4.314597   1.000000
    4        4.909198   1.000000
    5        6.568113   1.000000
    6        8.389826   1.000000
    7       10.525243  -0.018673
    8       11.761133  -0.000000
    9       12.382347  -0.000000
   10       15.963854   0.000000

  0.2000000E+00  0.6666667E-01  0.1333333E+00  0.7111111E-02
    1       -3.973297   1.000000
    2        2.644031   1.000000
    3        4.214052   1.000000
    4        4.838278   1.000000
    5        6.286723   1.000000
    6        8.365457   1.000000
    7       10.680809  -0.000021
    8       11.708932  -0.000000
    9       12.793577  -0.000000
   10       15.650477   0.000000

  0.2666667E+00  0.6666667E-01  0.1333333E+00  0.7111111E-02
    1       -3.370616   1.000000
    2        1.701102   1.000000
    3        4.087823   1.000000
    4        4.702871   1.000000
    5        5.936318   1.000000
    6        8.648950   1.000000
    7       10.863929  -0.000000
    8       11.598281  -0.000000
    9       13.077485  -0.000000
   10       15.805848   0.000000

  0.3333333E+00  0.6666667E-01  0.1333333E+00  0.7111111E-02
    1       -2.667966   1.000000
    2        0.760034   1.000000
    3        3.990878   1.000000
    4        4.523442   1.000000
    5        5.594182   1.000000
    6        9.084201   1.000000
    7       11.109517  -0.000000
    8       11.510639  -0.000000
    9       13.155539   0.000000
   10       16.277307   0.000000

  0.4000000E+00  0.6666667E-01  0.1333333E+00  0.7111111E-02
    1       -1.888012   1.000000
    2       -0.157632   1.000000
    3        3.945307   1.000000
    4        4.364131   1.000000
    5        5.355219   1.000000
    6        9.450705   1.000000
    7       11.222500  -0.000000
    8       11.508936  -0.000000
    9       13.381343   0.000000
   10       16.315489   0.000000

  0.4666667E+00  0.6666667E-01  0.1333333E+00  0.3555556E-02
    1       -1.109248   1.000000
    2       -0.981104   1.000000
    3        3.936769   1.000000
    4        4.297895   1.000000
    5        5.270563   1.000000
    6        9.587876   1.000000
    7       11.240590  -0.000000
    8       11.519344  -0.000000
    9       13.572217   0.000000
   10       16.151747   0.000000

  0.1333333E+00  0.1333333E+00  0.1333333E+00  0.3555556E-02
    1       -4.050197   1.000000
    2        2.941123   1.000000
    3        3.936272   1.000000
    4        4.833578   1.000000
    5        6.803804   1.000000
    6        7.800964   1.000000
    7       11.121964  -0.000000
    8       11.434509  -0.000000
    9       12.819003  -0.000000
   10       15.872826   0.000000

  0.2000000E+00  0.1333333E+00  0.1333333E+00  0.7111111E-02
    1       -3.512996   1.000000
    2        2.174541   1.000000
    3        3.582893   1.000000
    4        4.734673   1.000000
    5        6.764199   1.000000
    6        7.696881   1.000000
    7       11.136074  -0.000000
    8       11.574624  -0.000000
    9       13.397611   0.000000
   10       15.628804   0.000000

  0.2666667E+00  0.1333333E+00  0.1333333E+00  0.7111111E-02
    1       -2.862730   1.000000
    2        1.312501   1.000000
    3        3.342116   1.000000
    4        4.599663   1.000000
    5        6.274232   1.000000
    6        8.237153   1.000000
    7       10.950713  -0.000000
    8       11.854427  -0.000000
    9       13.728716   0.000000
   10       15.889639   0.000000

  0.3333333E+00  0.1333333E+00  0.1333333E+00  0.7111111E-02
    1       -2.122531   1.000000
    2        0.423135   1.000000
    3        3.195498   1.000000
    4        4.476788   1.000000
    5        5.856232   1.000000
    6        8.821211   1.000000
    7       10.856768  -0.000000
    8       11.983385  -0.000000
    9       13.845088   0.000000
   10       16.353446   0.000000

  0.4000000E+00  0.1333333E+00  0.1333333E+00  0.7111111E-02
    1       -1.314730   1.000000
    2       -0.459552   1.000000
    3        3.125687   1.000000
    4        4.409777   1.000000
    5        5.624879   1.000000
    6        9.177433   1.000000
    7       10.895400  -0.000000
    8       11.950139  -0.000000
    9       13.921759   0.000000
   10       16.525869   0.000000

  0.2000000E+00  0.2000000E+00  0.1333333E+00  0.3555556E-02
    1       -2.927450   1.000000
    2        1.642383   1.000000
    3        2.966399   1.000000
    4        4.636210   1.000000
    5        6.744215   1.000000
    6        7.687535   1.000000
    7       10.858219  -0.000000
    8       11.997294  -0.000000
    9       14.191551   0.000000
   10       15.533986   0.000000

  0.2666667E+00  0.2000000E+00  0.1333333E+00  0.7111111E-02
    1       -2.238658   1.000000
    2        0.970136   1.000000
    3        2.540968   1.000000
    4        4.568706   1.000000
    5        6.201346   1.000000
    6        8.371500   1.000000
    7       10.572475  -0.004453
    8       12.172695  -0.000000
    9       14.721581   0.000000
   10       15.877101   0.000000
