 running on    4 total cores
 distrk:  each k-point on    4 cores,    1 groups
 distr:  one band on    2 cores,    2 groups
 using from now: INCAR     
 vasp.5.4.4.18Apr17-6-g9f103f2a35 (build Dec  7 2020 12:43:57) complex           
 POSCAR found type information on POSCAR  Mo B 
 POSCAR found :  2 types and       3 ions
 scaLAPACK will be used
 LDA part: xc-table for Pade appr. of Perdew
 POSCAR, INCAR and KPOINTS ok, starting setup
 FFT: planning ...
 WAVECAR not read
 augmentation electrons   12.018373587906812     
 soft         electrons   0.0000000000000000     
 augmentation electrons   12.018373587906812     
 soft         electrons   0.0000000000000000     
 augmentation electrons   12.018373587906812     
 soft         electrons   0.0000000000000000     
 augmentation electrons   12.018373587906812     
 soft         electrons   0.0000000000000000     
 total        electrons   12.018373587906812     
 total        electrons   12.018373587906812     
 total        electrons   12.018373587906812     
 total        electrons   12.018373587906812     
 augmentation electrons   169.75791458332097     
 soft         electrons   0.0000000000000000     
 augmentation electrons   169.75791458332097     
 soft         electrons   0.0000000000000000     
 augmentation electrons   169.75791458332097     
 soft         electrons   0.0000000000000000     
 augmentation electrons   169.75791458332097     
 soft         electrons   0.0000000000000000     
 total        electrons   169.75791458332097     
 total        electrons   169.75791458332097     
 total        electrons   169.75791458332097     
 total        electrons   169.75791458332097     
 entering main loop
       N       E                     dE             d eps       ncg     rms          rms(c)
DAV:   1     0.383845707128E+02    0.38385E+02   -0.57075E+03  4320   0.105E+03
DAV:   2    -0.182695073578E+02   -0.56654E+02   -0.53727E+02  5166   0.218E+02
DAV:   3    -0.204868383088E+02   -0.22173E+01   -0.21162E+01  6152   0.380E+01
DAV:   4    -0.205150148732E+02   -0.28177E-01   -0.27899E-01  5580   0.318E+00
DAV:   5    -0.205154330720E+02   -0.41820E-03   -0.41762E-03  5612   0.298E-01    0.338E+01
RMM:   6    -0.161269356578E+02    0.43885E+01   -0.14619E+01  4341   0.250E+01    0.757E+00
RMM:   7    -0.162321558407E+02   -0.10522E+00   -0.67992E-01  4329   0.558E+00    0.456E+00
RMM:   8    -0.163727023150E+02   -0.14055E+00   -0.90286E-01  4320   0.124E+01    0.469E+00
RMM:   9    -0.163256002065E+02    0.47102E-01   -0.18397E-01  4324   0.323E+00    0.101E+00
RMM:  10    -0.163233273011E+02    0.22729E-02   -0.17879E-02  4331   0.188E+00    0.551E-01
RMM:  11    -0.163233301728E+02   -0.28717E-05   -0.86830E-03  4320   0.107E+00    0.222E-01
RMM:  12    -0.163275751592E+02   -0.42450E-02   -0.22945E-02  4320   0.217E+00    0.106E-01
RMM:  13    -0.163275490779E+02    0.26081E-04   -0.57054E-04  4349   0.239E-01    0.823E-02
RMM:  14    -0.163275428659E+02    0.62120E-05   -0.42559E-04  4321   0.251E-01    0.352E-02
RMM:  15    -0.163275653280E+02   -0.22462E-04   -0.92000E-05  4349   0.959E-02    0.247E-02
RMM:  16    -0.163275603146E+02    0.50134E-05   -0.42477E-05  4319   0.927E-02    0.845E-03
RMM:  17    -0.163275606450E+02   -0.33037E-06   -0.18076E-06  3021   0.194E-02
   1 F= -.16327561E+02 E0= -.16327587E+02  d E =-.163276E+02
 curvature:   0.00 expect dE= 0.000E+00 dE for cont linesearch  0.000E+00
 trial: gam= 0.00000 g(F)=  0.459E-43 g(S)=  0.313E-01 ort = 0.000E+00 (trialstep = 0.100E+01)
 search vector abs. value=  0.313E-01
 bond charge predicted
       N       E                     dE             d eps       ncg     rms          rms(c)
DAV:   1    -0.163503563987E+02   -0.22796E-01   -0.97304E-01  4426   0.844E+00    0.476E-01
RMM:   2    -0.163458968338E+02    0.44596E-02   -0.23214E-02  4323   0.146E+00    0.658E-01
RMM:   3    -0.163455081822E+02    0.38865E-03   -0.92638E-04  4352   0.228E-01    0.447E-01
RMM:   4    -0.163453656782E+02    0.14250E-03   -0.91022E-04  4320   0.333E-01    0.513E-02
RMM:   5    -0.163453674549E+02   -0.17767E-05   -0.15060E-05  4221   0.369E-02    0.493E-02
RMM:   6    -0.163454353658E+02   -0.67911E-04   -0.23033E-04  4320   0.203E-01    0.346E-02
RMM:   7    -0.163454423148E+02   -0.69489E-05   -0.12168E-05  4230   0.404E-02    0.106E-02
RMM:   8    -0.163454542957E+02   -0.11981E-04   -0.50092E-05  4306   0.108E-01    0.757E-03
RMM:   9    -0.163454535363E+02    0.75937E-06   -0.24921E-06  3160   0.232E-02
   2 F= -.16345454E+02 E0= -.16345499E+02  d E =-.178929E-01
 trial-energy change:   -0.017893  1 .order   -0.017419   -0.031304   -0.003533
 step:   1.1142(harm=  1.1272)  dis= 0.00000  next Energy=   -16.345656 (dE=-0.181E-01)
 bond charge predicted
       N       E                     dE             d eps       ncg     rms          rms(c)
DAV:   1    -0.163457405554E+02   -0.28626E-03   -0.12783E-02  4528   0.967E-01    0.532E-02
RMM:   2    -0.163456883264E+02    0.52229E-04   -0.28395E-04  4322   0.165E-01    0.732E-02
RMM:   3    -0.163456839886E+02    0.43377E-05   -0.11223E-05  4150   0.271E-02    0.495E-02
RMM:   4    -0.163456839861E+02    0.25632E-08   -0.13486E-05  4316   0.434E-02    0.688E-03
RMM:   5    -0.163456843514E+02   -0.36528E-06   -0.81419E-07  2711   0.110E-02
   3 F= -.16345684E+02 E0= -.16345686E+02  d E =-.181237E-01
 curvature:  -0.56 expect dE=-0.287E-05 dE for cont linesearch -0.287E-05
 trial: gam=-0.01266 g(F)=  0.142E-43 g(S)=  0.515E-05 ort = 0.401E-03 (trialstep = 0.102E+01)
 search vector abs. value=  0.946E-09
 reached required accuracy - stopping structural energy minimisation
 writing wavefunctions
 augmentation electrons   1.1854188791098272     
 soft         electrons   10.836740810180238     
 augmentation electrons   1.1854188791098272     
 soft         electrons   10.836740810180238     
 augmentation electrons   1.1854188791098272     
 soft         electrons   10.836740810180238     
 augmentation electrons   1.1854188791098272     
 soft         electrons   10.836740810180238     
 total        electrons   12.022159689290065     
 total        electrons   12.022159689290065     
 total        electrons   12.022159689290065     
 total        electrons   12.022159689290065     
