   73   73    1    1
  0.2116743E+02  0.1036210E-08  0.2426100E-08  0.6146597E-09  0.5000000E-15
   1.0000000000000000E-004
  CAR 
 Name                                    
    277     42    176

  0.3742002E-15  0.3742002E-15  0.3742002E-15  0.7407407E-02
    1      -14.140183   1.000000
    2      -13.050280   1.000000
    3      -12.864961   1.000000
    4      -12.864146   1.000000
    5      -12.030106   1.000000
    6      -11.844714   1.000000
    7      -11.713376   1.000000
    8      -11.658736   1.000000
    9      -11.515345   1.000000
   10      -11.329587   1.000000
   11      -11.275566   1.000000
   12      -11.045690   1.000000
   13      -10.999616   1.000000
   14      -10.646058   1.000000
   15      -10.494922   1.000000
   16      -10.363543   1.000000
   17      -10.173015   1.000000
   18      -10.143429   1.000000
   19       -9.753561   1.000000
   20       -9.655016   1.000000
   21       -9.611124   1.000000
   22       -9.594057   1.000000
   23       -9.459161   1.000000
   24       -9.336555   1.000000
   25       -8.919657   1.000000
   26       -8.852253   1.000000
   27       -8.570129   1.000000
   28       -8.471047   1.000000
   29       -8.268032   1.000000
   30       -8.249943   1.000000
   31       -8.181473   1.000000
   32       -7.892092   1.000000
   33       -7.771619   1.000000
   34       -7.414190   1.000000
   35       -7.298226   1.000000
   36       -7.150483   1.000000
   37       -7.119754   1.000000
   38       -6.928025   1.000000
   39       -6.808215   1.000000
   40       -6.765041   1.000000
   41       -6.753478   1.000000
   42       -6.737859   1.000000
   43       -6.586454   1.000000
   44       -6.483577   1.000000
   45       -6.463865   1.000000
   46       -6.323181   1.000000
   47       -6.300626   1.000000
   48       -6.216686   1.000000
   49       -6.136263   1.000000
   50       -6.005756   1.000000
   51       -5.795107   1.000000
   52       -5.767456   1.000000
   53       -5.733758   1.000000
   54       -5.666143   1.000000
   55       -5.644578   1.000000
   56       -5.538651   1.000000
   57       -5.537290   1.000000
   58       -5.326583   1.000000
   59       -5.269375   1.000000
   60       -5.261888   1.000000
   61       -4.968580   1.000000
   62       -4.872711   1.000000
   63       -4.845891   1.000000
   64       -4.752479   1.000000
   65       -4.699165   1.000000
   66       -4.580116   1.000000
   67       -4.561309   1.000000
   68       -4.482387   1.000000
   69       -4.293696   1.000000
   70       -4.271575   1.000000
   71       -4.182103   1.000000
   72       -4.118726   1.000000
   73       -4.090835   1.000000
   74       -4.071167   1.000000
   75       -4.018576   1.000000
   76       -3.963941   1.000000
   77       -3.959127   1.000000
   78       -3.865833   1.000000
   79       -3.848384   1.000000
   80       -3.736986   1.000000
   81       -3.685158   1.000000
   82       -3.657420   1.000000
   83       -3.644225   1.000000
   84       -3.637492   1.000000
   85       -3.552751   1.000000
   86       -3.528951   1.000000
   87       -3.526984   1.000000
   88       -3.519582   1.000000
   89       -3.479122   1.000000
   90       -3.449709   1.000000
   91       -3.409720   1.000000
   92       -3.343116   1.000000
   93       -3.035355   1.000000
   94       -3.001269   1.000000
   95       -2.943679   1.000000
   96       -2.798939   1.000000
   97       -2.756789   1.000000
   98       -2.701836   1.000000
   99       -2.618539   1.000000
  100       -2.542454   1.000000
  101       -2.354432   1.000000
  102       -2.337356   1.000000
  103       -2.325370   1.000000
  104       -2.304188   1.000000
  105       -2.212560   1.000000
  106       -2.120949   1.000000
  107       -2.105640   1.000000
  108       -2.102439   1.000000
  109       -2.097219   1.000000
  110       -2.045339   1.000000
  111       -1.877867   1.000000
  112       -1.821163   1.000000
  113       -1.821095   1.000000
  114       -1.720966   1.000000
  115       -1.642110   1.000000
  116       -1.622219   1.000000
  117       -1.585461   1.000000
  118       -1.545730   1.000000
  119       -1.354554   1.000000
  120       -1.258094   1.000000
  121       -1.202411   1.000000
  122       -0.969589   1.000000
  123       -0.885260   1.000000
  124       -0.768720   1.000000
  125       -0.716995   1.000000
  126       -0.605203   1.000000
  127       -0.492194   1.000000
  128       -0.403990   1.000000
  129       -0.380235   1.000000
  130       -0.304880   1.000000
  131       -0.101791   1.000000
  132       -0.092257   1.000000
  133        0.028867   1.000083
  134        0.150985   1.014452
  135        0.232100   1.023871
  136        0.271795   0.916100
  137        0.323279   0.564549
  138        0.349400   0.346619
  139        0.399003   0.047041
  140        0.412757   0.005428
  141        0.462465  -0.034343
  142        0.471943  -0.031396
  143        0.514420  -0.013127
  144        0.514444  -0.013118
  145        0.534555  -0.007099
  146        0.591869  -0.000701
  147        0.647730  -0.000035
  148        0.653467  -0.000025
  149        0.708391  -0.000001
  150        0.720034  -0.000000
  151        0.900853  -0.000000
  152        0.979517  -0.000000
  153        1.002161  -0.000000
  154        1.013857  -0.000000
  155        1.025658  -0.000000
  156        1.094562  -0.000000
  157        1.135576  -0.000000
  158        1.198803  -0.000000
  159        1.210856  -0.000000
  160        1.233697  -0.000000
  161        1.272528  -0.000000
  162        1.290514  -0.000000
  163        1.310334  -0.000000
  164        1.335945  -0.000000
  165        1.427558  -0.000000
  166        1.503911  -0.000000
  167        1.552056  -0.000000
  168        1.569953  -0.000000
  169        1.603320  -0.000000
  170        1.615523  -0.000000
  171        1.645806  -0.000000
  172        2.021528  -0.000000
  173        2.246485  -0.000000
  174        2.294754  -0.000000
  175        2.375001  -0.000000
  176        3.307888   0.000000

  0.2000000E+00  0.3742002E-15  0.3742002E-15  0.1481481E-01
    1      -14.091236   1.000000
    2      -13.380242   1.000000
    3      -12.819451   1.000000
    4      -12.459415   1.000000
    5      -12.151604   1.000000
    6      -12.015020   1.000000
    7      -11.791312   1.000000
    8      -11.407627   1.000000
    9      -11.320480   1.000000
   10      -11.282576   1.000000
   11      -11.232698   1.000000
   12      -11.122361   1.000000
   13      -10.893734   1.000000
   14      -10.738306   1.000000
   15      -10.658424   1.000000
   16      -10.625034   1.000000
   17      -10.522522   1.000000
   18       -9.839492   1.000000
   19       -9.681943   1.000000
   20       -9.630807   1.000000
   21       -9.550705   1.000000
   22       -9.525178   1.000000
   23       -9.442897   1.000000
   24       -9.403837   1.000000
   25       -9.102432   1.000000
   26       -8.833152   1.000000
   27       -8.316514   1.000000
   28       -8.265508   1.000000
   29       -8.236612   1.000000
   30       -8.171470   1.000000
   31       -8.158884   1.000000
   32       -8.076395   1.000000
   33       -7.630955   1.000000
   34       -7.608299   1.000000
   35       -7.323203   1.000000
   36       -7.282681   1.000000
   37       -7.126200   1.000000
   38       -7.014237   1.000000
   39       -6.969586   1.000000
   40       -6.827217   1.000000
   41       -6.749413   1.000000
   42       -6.682209   1.000000
   43       -6.591517   1.000000
   44       -6.497635   1.000000
   45       -6.412833   1.000000
   46       -6.357290   1.000000
   47       -6.293157   1.000000
   48       -6.184701   1.000000
   49       -6.084422   1.000000
   50       -6.065776   1.000000
   51       -5.832723   1.000000
   52       -5.773720   1.000000
   53       -5.629765   1.000000
   54       -5.489185   1.000000
   55       -5.446741   1.000000
   56       -5.431693   1.000000
   57       -5.386846   1.000000
   58       -5.359713   1.000000
   59       -5.327289   1.000000
   60       -5.265555   1.000000
   61       -5.180024   1.000000
   62       -4.902502   1.000000
   63       -4.873635   1.000000
   64       -4.866877   1.000000
   65       -4.693798   1.000000
   66       -4.631277   1.000000
   67       -4.601541   1.000000
   68       -4.503793   1.000000
   69       -4.257330   1.000000
   70       -4.218187   1.000000
   71       -4.154251   1.000000
   72       -4.137514   1.000000
   73       -4.111969   1.000000
   74       -4.068744   1.000000
   75       -4.003436   1.000000
   76       -3.916612   1.000000
   77       -3.893265   1.000000
   78       -3.849905   1.000000
   79       -3.828307   1.000000
   80       -3.797372   1.000000
   81       -3.774932   1.000000
   82       -3.675646   1.000000
   83       -3.653925   1.000000
   84       -3.635536   1.000000
   85       -3.596961   1.000000
   86       -3.536815   1.000000
   87       -3.495157   1.000000
   88       -3.492928   1.000000
   89       -3.482593   1.000000
   90       -3.420929   1.000000
   91       -3.389435   1.000000
   92       -3.331611   1.000000
   93       -3.046861   1.000000
   94       -3.003730   1.000000
   95       -2.984534   1.000000
   96       -2.889139   1.000000
   97       -2.768740   1.000000
   98       -2.719324   1.000000
   99       -2.612589   1.000000
  100       -2.571836   1.000000
  101       -2.426254   1.000000
  102       -2.371314   1.000000
  103       -2.354586   1.000000
  104       -2.259311   1.000000
  105       -2.190462   1.000000
  106       -2.120417   1.000000
  107       -2.056684   1.000000
  108       -2.038582   1.000000
  109       -1.955161   1.000000
  110       -1.939703   1.000000
  111       -1.911183   1.000000
  112       -1.909469   1.000000
  113       -1.727556   1.000000
  114       -1.700571   1.000000
  115       -1.598844   1.000000
  116       -1.541217   1.000000
  117       -1.495058   1.000000
  118       -1.480307   1.000000
  119       -1.412158   1.000000
  120       -1.242530   1.000000
  121       -1.102370   1.000000
  122       -0.985677   1.000000
  123       -0.937165   1.000000
  124       -0.796707   1.000000
  125       -0.735997   1.000000
  126       -0.674804   1.000000
  127       -0.530773   1.000000
  128       -0.469248   1.000000
  129       -0.444213   1.000000
  130       -0.315276   1.000000
  131       -0.280410   1.000000
  132       -0.259984   1.000000
  133       -0.213640   1.000000
  134        0.085433   1.001413
  135        0.156711   1.016748
  136        0.229983   1.026083
  137        0.302897   0.727227
  138        0.362139   0.249617
  139        0.444279  -0.034009
  140        0.478886  -0.028553
  141        0.494957  -0.021216
  142        0.510384  -0.014643
  143        0.531862  -0.007757
  144        0.569898  -0.001869
  145        0.594861  -0.000608
  146        0.598163  -0.000518
  147        0.656624  -0.000021
  148        0.682043  -0.000004
  149        0.734493  -0.000000
  150        0.796118  -0.000000
  151        0.952659  -0.000000
  152        0.981205  -0.000000
  153        1.004690  -0.000000
  154        1.042636  -0.000000
  155        1.109701  -0.000000
  156        1.116270  -0.000000
  157        1.190562  -0.000000
  158        1.220495  -0.000000
  159        1.235486  -0.000000
  160        1.262302  -0.000000
  161        1.330993  -0.000000
  162        1.340776  -0.000000
  163        1.362446  -0.000000
  164        1.394752  -0.000000
  165        1.484852  -0.000000
  166        1.505947  -0.000000
  167        1.537616  -0.000000
  168        1.567521  -0.000000
  169        1.622128  -0.000000
  170        1.683702  -0.000000
  171        1.975548  -0.000000
  172        2.127993  -0.000000
  173        2.213825  -0.000000
  174        2.263295  -0.000000
  175        2.485604  -0.000000
  176        3.349434   0.000000

  0.4000000E+00  0.3742002E-15  0.3742002E-15  0.1481481E-01
    1      -13.945580   1.000000
    2      -13.705806   1.000000
    3      -12.683507   1.000000
    4      -12.459744   1.000000
    5      -11.969901   1.000000
    6      -11.906359   1.000000
    7      -11.893083   1.000000
    8      -11.298831   1.000000
    9      -11.293180   1.000000
   10      -11.273624   1.000000
   11      -11.135663   1.000000
   12      -11.115283   1.000000
   13      -10.940616   1.000000
   14      -10.929966   1.000000
   15      -10.754262   1.000000
   16      -10.716486   1.000000
   17      -10.617480   1.000000
   18      -10.151128   1.000000
   19       -9.693604   1.000000
   20       -9.673244   1.000000
   21       -9.464573   1.000000
   22       -9.420068   1.000000
   23       -9.366660   1.000000
   24       -9.269935   1.000000
   25       -9.074035   1.000000
   26       -8.849669   1.000000
   27       -8.379097   1.000000
   28       -8.159668   1.000000
   29       -8.001363   1.000000
   30       -7.916282   1.000000
   31       -7.846956   1.000000
   32       -7.827485   1.000000
   33       -7.798076   1.000000
   34       -7.779789   1.000000
   35       -7.596163   1.000000
   36       -7.515898   1.000000
   37       -7.350245   1.000000
   38       -7.269533   1.000000
   39       -7.174189   1.000000
   40       -6.867677   1.000000
   41       -6.755995   1.000000
   42       -6.600111   1.000000
   43       -6.535735   1.000000
   44       -6.479106   1.000000
   45       -6.428162   1.000000
   46       -6.194056   1.000000
   47       -6.096469   1.000000
   48       -6.092433   1.000000
   49       -5.984305   1.000000
   50       -5.976645   1.000000
   51       -5.878816   1.000000
   52       -5.842592   1.000000
   53       -5.802122   1.000000
   54       -5.604565   1.000000
   55       -5.550352   1.000000
   56       -5.368161   1.000000
   57       -5.239251   1.000000
   58       -5.217592   1.000000
   59       -5.187694   1.000000
   60       -5.182041   1.000000
   61       -5.067845   1.000000
   62       -5.037576   1.000000
   63       -5.011396   1.000000
   64       -4.801146   1.000000
   65       -4.734045   1.000000
   66       -4.638931   1.000000
   67       -4.498807   1.000000
   68       -4.431743   1.000000
   69       -4.351050   1.000000
   70       -4.323568   1.000000
   71       -4.176173   1.000000
   72       -4.163060   1.000000
   73       -4.155000   1.000000
   74       -4.111532   1.000000
   75       -4.067523   1.000000
   76       -4.021600   1.000000
   77       -3.980323   1.000000
   78       -3.935759   1.000000
   79       -3.774220   1.000000
   80       -3.756568   1.000000
   81       -3.714423   1.000000
   82       -3.701236   1.000000
   83       -3.668624   1.000000
   84       -3.660178   1.000000
   85       -3.578199   1.000000
   86       -3.561311   1.000000
   87       -3.536840   1.000000
   88       -3.351477   1.000000
   89       -3.330013   1.000000
   90       -3.299428   1.000000
   91       -3.253312   1.000000
   92       -3.220783   1.000000
   93       -3.148604   1.000000
   94       -3.111905   1.000000
   95       -3.056349   1.000000
   96       -2.965732   1.000000
   97       -2.903036   1.000000
   98       -2.875104   1.000000
   99       -2.771663   1.000000
  100       -2.523712   1.000000
  101       -2.339024   1.000000
  102       -2.303415   1.000000
  103       -2.264726   1.000000
  104       -2.247486   1.000000
  105       -2.197992   1.000000
  106       -2.171966   1.000000
  107       -2.082401   1.000000
  108       -2.018205   1.000000
  109       -2.007978   1.000000
  110       -1.998641   1.000000
  111       -1.769672   1.000000
  112       -1.686866   1.000000
  113       -1.672091   1.000000
  114       -1.584671   1.000000
  115       -1.493962   1.000000
  116       -1.467767   1.000000
  117       -1.389775   1.000000
  118       -1.232048   1.000000
  119       -1.189971   1.000000
  120       -1.165399   1.000000
  121       -1.071103   1.000000
  122       -1.044845   1.000000
  123       -1.002321   1.000000
  124       -0.916910   1.000000
  125       -0.814163   1.000000
  126       -0.801217   1.000000
  127       -0.766277   1.000000
  128       -0.743676   1.000000
  129       -0.662701   1.000000
  130       -0.616233   1.000000
  131       -0.366228   1.000000
  132       -0.284532   1.000000
  133       -0.102676   1.000000
  134       -0.042098   1.000001
  135        0.003088   1.000018
  136        0.245782   1.002074
  137        0.284380   0.850570
  138        0.317635   0.611428
  139        0.390203   0.083281
  140        0.438368  -0.031223
  141        0.458956  -0.035018
  142        0.486616  -0.025063
  143        0.542108  -0.005480
  144        0.588185  -0.000832
  145        0.616062  -0.000209
  146        0.624793  -0.000131
  147        0.650078  -0.000031
  148        0.803867  -0.000000
  149        0.842893  -0.000000
  150        0.902788  -0.000000
  151        1.062985  -0.000000
  152        1.065128  -0.000000
  153        1.079477  -0.000000
  154        1.137058  -0.000000
  155        1.158490  -0.000000
  156        1.238045  -0.000000
  157        1.252540  -0.000000
  158        1.287919  -0.000000
  159        1.297749  -0.000000
  160        1.350228  -0.000000
  161        1.367716  -0.000000
  162        1.377972  -0.000000
  163        1.409049  -0.000000
  164        1.475401  -0.000000
  165        1.516238  -0.000000
  166        1.532547  -0.000000
  167        1.599498  -0.000000
  168        1.616348  -0.000000
  169        1.638497  -0.000000
  170        1.682197  -0.000000
  171        1.702448  -0.000000
  172        1.790693  -0.000000
  173        1.844685  -0.000000
  174        1.959761  -0.000000
  175        2.456003  -0.000000
  176        2.740189  -0.000000

  0.3742002E-15  0.3333333E+00  0.3741997E-15  0.1481481E-01
    1      -14.140183   1.000000
    2      -13.050280   1.000000
    3      -12.864960   1.000000
    4      -12.864146   1.000000
    5      -12.030104   1.000000
    6      -11.844714   1.000000
    7      -11.713378   1.000000
    8      -11.658735   1.000000
    9      -11.515346   1.000000
   10      -11.329586   1.000000
   11      -11.275566   1.000000
   12      -11.045692   1.000000
   13      -10.999618   1.000000
   14      -10.646057   1.000000
   15      -10.494919   1.000000
   16      -10.363543   1.000000
   17      -10.173014   1.000000
   18      -10.143429   1.000000
   19       -9.753558   1.000000
   20       -9.655019   1.000000
   21       -9.611125   1.000000
   22       -9.594058   1.000000
   23       -9.459159   1.000000
   24       -9.336553   1.000000
   25       -8.919654   1.000000
   26       -8.852251   1.000000
   27       -8.570125   1.000000
   28       -8.471045   1.000000
   29       -8.268031   1.000000
   30       -8.249950   1.000000
   31       -8.181475   1.000000
   32       -7.892082   1.000000
   33       -7.771615   1.000000
   34       -7.414194   1.000000
   35       -7.298233   1.000000
   36       -7.150478   1.000000
   37       -7.119749   1.000000
   38       -6.928023   1.000000
   39       -6.808214   1.000000
   40       -6.765039   1.000000
   41       -6.753477   1.000000
   42       -6.737859   1.000000
   43       -6.586439   1.000000
   44       -6.483573   1.000000
   45       -6.463866   1.000000
   46       -6.323182   1.000000
   47       -6.300629   1.000000
   48       -6.216683   1.000000
   49       -6.136267   1.000000
   50       -6.005755   1.000000
   51       -5.795102   1.000000
   52       -5.767447   1.000000
   53       -5.733760   1.000000
   54       -5.666145   1.000000
   55       -5.644574   1.000000
   56       -5.538650   1.000000
   57       -5.537289   1.000000
   58       -5.326580   1.000000
   59       -5.269371   1.000000
   60       -5.261868   1.000000
   61       -4.968575   1.000000
   62       -4.872713   1.000000
   63       -4.845880   1.000000
   64       -4.752483   1.000000
   65       -4.699166   1.000000
   66       -4.580122   1.000000
   67       -4.561303   1.000000
   68       -4.482385   1.000000
   69       -4.293705   1.000000
   70       -4.271577   1.000000
   71       -4.182104   1.000000
   72       -4.118725   1.000000
   73       -4.090836   1.000000
   74       -4.071164   1.000000
   75       -4.018571   1.000000
   76       -3.963943   1.000000
   77       -3.959125   1.000000
   78       -3.865829   1.000000
   79       -3.848382   1.000000
   80       -3.736975   1.000000
   81       -3.685155   1.000000
   82       -3.657418   1.000000
   83       -3.644227   1.000000
   84       -3.637489   1.000000
   85       -3.552748   1.000000
   86       -3.528948   1.000000
   87       -3.526980   1.000000
   88       -3.519578   1.000000
   89       -3.479124   1.000000
   90       -3.449704   1.000000
   91       -3.409722   1.000000
   92       -3.343108   1.000000
   93       -3.035359   1.000000
   94       -3.001272   1.000000
   95       -2.943679   1.000000
   96       -2.798939   1.000000
   97       -2.756788   1.000000
   98       -2.701834   1.000000
   99       -2.618533   1.000000
  100       -2.542450   1.000000
  101       -2.354432   1.000000
  102       -2.337361   1.000000
  103       -2.325372   1.000000
  104       -2.304188   1.000000
  105       -2.212552   1.000000
  106       -2.120945   1.000000
  107       -2.105629   1.000000
  108       -2.102439   1.000000
  109       -2.097217   1.000000
  110       -2.045334   1.000000
  111       -1.877864   1.000000
  112       -1.821164   1.000000
  113       -1.821094   1.000000
  114       -1.720958   1.000000
  115       -1.642108   1.000000
  116       -1.622221   1.000000
  117       -1.585457   1.000000
  118       -1.545727   1.000000
  119       -1.354553   1.000000
  120       -1.258084   1.000000
  121       -1.202405   1.000000
  122       -0.969594   1.000000
  123       -0.885259   1.000000
  124       -0.768717   1.000000
  125       -0.716999   1.000000
  126       -0.605200   1.000000
  127       -0.492198   1.000000
  128       -0.403987   1.000000
  129       -0.380233   1.000000
  130       -0.304870   1.000000
  131       -0.101794   1.000000
  132       -0.092260   1.000000
  133        0.028870   1.000083
  134        0.150982   1.014451
  135        0.232097   1.023875
  136        0.271798   0.916086
  137        0.323278   0.564563
  138        0.349402   0.346603
  139        0.399004   0.047036
  140        0.412760   0.005420
  141        0.462470  -0.034342
  142        0.471960  -0.031390
  143        0.514421  -0.013127
  144        0.514448  -0.013117
  145        0.534557  -0.007098
  146        0.591869  -0.000701
  147        0.647729  -0.000035
  148        0.653464  -0.000025
  149        0.708394  -0.000001
  150        0.720037  -0.000000
  151        0.900853  -0.000000
  152        0.979514  -0.000000
  153        1.002162  -0.000000
  154        1.013863  -0.000000
  155        1.025656  -0.000000
  156        1.094560  -0.000000
  157        1.135580  -0.000000
  158        1.198866  -0.000000
  159        1.210792  -0.000000
  160        1.233731  -0.000000
  161        1.270420  -0.000000
  162        1.290585  -0.000000
  163        1.309472  -0.000000
  164        1.338143  -0.000000
  165        1.421198  -0.000000
  166        1.490531  -0.000000
  167        1.511573  -0.000000
  168        1.547704  -0.000000
  169        1.605961  -0.000000
  170        1.653033  -0.000000
  171        1.946995  -0.000000
  172        2.057375  -0.000000
  173        2.254924  -0.000000
  174        2.329943  -0.000000
  175        2.437007  -0.000000
  176        2.533773  -0.000000

  0.2000000E+00  0.3333333E+00  0.3741997E-15  0.2962963E-01
    1      -14.091237   1.000000
    2      -13.380241   1.000000
    3      -12.819451   1.000000
    4      -12.459416   1.000000
    5      -12.151603   1.000000
    6      -12.015019   1.000000
    7      -11.791312   1.000000
    8      -11.407628   1.000000
    9      -11.320478   1.000000
   10      -11.282575   1.000000
   11      -11.232698   1.000000
   12      -11.122361   1.000000
   13      -10.893735   1.000000
   14      -10.738306   1.000000
   15      -10.658423   1.000000
   16      -10.625032   1.000000
   17      -10.522521   1.000000
   18       -9.839491   1.000000
   19       -9.681944   1.000000
   20       -9.630808   1.000000
   21       -9.550706   1.000000
   22       -9.525179   1.000000
   23       -9.442896   1.000000
   24       -9.403836   1.000000
   25       -9.102429   1.000000
   26       -8.833148   1.000000
   27       -8.316509   1.000000
   28       -8.265508   1.000000
   29       -8.236610   1.000000
   30       -8.171467   1.000000
   31       -8.158882   1.000000
   32       -8.076396   1.000000
   33       -7.630958   1.000000
   34       -7.608303   1.000000
   35       -7.323199   1.000000
   36       -7.282684   1.000000
   37       -7.126196   1.000000
   38       -7.014234   1.000000
   39       -6.969586   1.000000
   40       -6.827215   1.000000
   41       -6.749410   1.000000
   42       -6.682206   1.000000
   43       -6.591517   1.000000
   44       -6.497626   1.000000
   45       -6.412834   1.000000
   46       -6.357290   1.000000
   47       -6.293156   1.000000
   48       -6.184702   1.000000
   49       -6.084418   1.000000
   50       -6.065772   1.000000
   51       -5.832723   1.000000
   52       -5.773718   1.000000
   53       -5.629759   1.000000
   54       -5.489185   1.000000
   55       -5.446740   1.000000
   56       -5.431695   1.000000
   57       -5.386846   1.000000
   58       -5.359713   1.000000
   59       -5.327289   1.000000
   60       -5.265554   1.000000
   61       -5.180024   1.000000
   62       -4.902500   1.000000
   63       -4.873633   1.000000
   64       -4.866876   1.000000
   65       -4.693797   1.000000
   66       -4.631273   1.000000
   67       -4.601541   1.000000
   68       -4.503790   1.000000
   69       -4.257319   1.000000
   70       -4.218187   1.000000
   71       -4.154253   1.000000
   72       -4.137515   1.000000
   73       -4.111967   1.000000
   74       -4.068745   1.000000
   75       -4.003440   1.000000
   76       -3.916615   1.000000
   77       -3.893264   1.000000
   78       -3.849905   1.000000
   79       -3.828307   1.000000
   80       -3.797369   1.000000
   81       -3.774932   1.000000
   82       -3.675648   1.000000
   83       -3.653927   1.000000
   84       -3.635538   1.000000
   85       -3.596963   1.000000
   86       -3.536812   1.000000
   87       -3.495158   1.000000
   88       -3.492929   1.000000
   89       -3.482593   1.000000
   90       -3.420931   1.000000
   91       -3.389436   1.000000
   92       -3.331610   1.000000
   93       -3.046863   1.000000
   94       -3.003730   1.000000
   95       -2.984537   1.000000
   96       -2.889138   1.000000
   97       -2.768738   1.000000
   98       -2.719321   1.000000
   99       -2.612589   1.000000
  100       -2.571835   1.000000
  101       -2.426252   1.000000
  102       -2.371313   1.000000
  103       -2.354588   1.000000
  104       -2.259313   1.000000
  105       -2.190463   1.000000
  106       -2.120412   1.000000
  107       -2.056686   1.000000
  108       -2.038585   1.000000
  109       -1.955162   1.000000
  110       -1.939703   1.000000
  111       -1.911185   1.000000
  112       -1.909471   1.000000
  113       -1.727555   1.000000
  114       -1.700568   1.000000
  115       -1.598842   1.000000
  116       -1.541216   1.000000
  117       -1.495056   1.000000
  118       -1.480306   1.000000
  119       -1.412158   1.000000
  120       -1.242529   1.000000
  121       -1.102369   1.000000
  122       -0.985676   1.000000
  123       -0.937163   1.000000
  124       -0.796707   1.000000
  125       -0.735997   1.000000
  126       -0.674804   1.000000
  127       -0.530772   1.000000
  128       -0.469249   1.000000
  129       -0.444214   1.000000
  130       -0.315274   1.000000
  131       -0.280403   1.000000
  132       -0.259983   1.000000
  133       -0.213642   1.000000
  134        0.085433   1.001413
  135        0.156711   1.016748
  136        0.229982   1.026084
  137        0.302899   0.727210
  138        0.362139   0.249620
  139        0.444280  -0.034010
  140        0.478888  -0.028553
  141        0.494958  -0.021215
  142        0.510385  -0.014642
  143        0.531862  -0.007757
  144        0.569898  -0.001869
  145        0.594862  -0.000608
  146        0.598164  -0.000518
  147        0.656629  -0.000021
  148        0.682044  -0.000004
  149        0.734494  -0.000000
  150        0.796119  -0.000000
  151        0.952660  -0.000000
  152        0.981203  -0.000000
  153        1.004691  -0.000000
  154        1.042636  -0.000000
  155        1.109701  -0.000000
  156        1.116133  -0.000000
  157        1.190415  -0.000000
  158        1.220498  -0.000000
  159        1.235437  -0.000000
  160        1.262971  -0.000000
  161        1.328980  -0.000000
  162        1.340249  -0.000000
  163        1.356358  -0.000000
  164        1.399372  -0.000000
  165        1.489409  -0.000000
  166        1.505323  -0.000000
  167        1.524777  -0.000000
  168        1.557439  -0.000000
  169        1.641470  -0.000000
  170        1.664360  -0.000000
  171        1.998265  -0.000000
  172        2.084751  -0.000000
  173        2.209578  -0.000000
  174        2.380127  -0.000000
  175        2.489143  -0.000000
  176        3.326751   0.000000

  0.4000000E+00  0.3333333E+00  0.3741997E-15  0.2962963E-01
    1      -13.945578   1.000000
    2      -13.705807   1.000000
    3      -12.683506   1.000000
    4      -12.459744   1.000000
    5      -11.969902   1.000000
    6      -11.906359   1.000000
    7      -11.893082   1.000000
    8      -11.298832   1.000000
    9      -11.293182   1.000000
   10      -11.273623   1.000000
   11      -11.135661   1.000000