 running on   72 total cores
 distrk:  each k-point on   72 cores,    1 groups
 distr:  one band on    9 cores,    8 groups
 using from now: INCAR     
 vasp.5.4.4.18Apr17-6-g9f103f2a35 (build Dec  7 2020 12:43:57) complex           
 POSCAR found type information on POSCAR  Mo V  B  H 
 POSCAR found :  4 types and      73 ions
 scaLAPACK will be used
 LDA part: xc-table for Pade appr. of Perdew
 POSCAR, INCAR and KPOINTS ok, starting setup
 resort distribution
 resort distribution
 resort distribution
 resort distribution
 resort distribution
 resort distribution
 resort distribution
 resort distribution
 resort distribution
 resort distribution
 resort distribution
 resort distribution
 resort distribution
 resort distribution
 resort distribution
 resort distribution
 resort distribution
 resort distribution
 resort distribution
 resort distribution
 resort distribution
 resort distribution
 resort distribution
 resort distribution
 resort distribution
 resort distribution
 resort distribution
 resort distribution
 resort distribution
 resort distribution
 resort distribution
 resort distribution
 resort distribution
 resort distribution
 resort distribution
 resort distribution
 resort distribution
 resort distribution
 resort distribution
 resort distribution
 resort distribution
 resort distribution
 resort distribution
 resort distribution
 resort distribution
 resort distribution
 resort distribution
 resort distribution
 resort distribution
 resort distribution
 resort distribution
 resort distribution
 resort distribution
 resort distribution
 resort distribution
 resort distribution
 resort distribution
 resort distribution
 resort distribution
 resort distribution
 resort distribution
 resort distribution
 resort distribution
 resort distribution
 resort distribution
 resort distribution
 resort distribution
 resort distribution
 resort distribution
 resort distribution
 resort distribution
 resort distribution
 FFT: planning ...
 WAVECAR not read
 augmentation electrons   277.13770345225470     
 soft         electrons   0.0000000000000000     
 augmentation electrons   277.13770345225470     
 soft         electrons   0.0000000000000000     
 augmentation electrons   277.13770345225470     
 augmentation electrons   277.13770345225470     
 soft         electrons   0.0000000000000000     
 augmentation electrons   277.13770345225470     
 soft         electrons   0.0000000000000000     
 augmentation electrons   277.13770345225470     
 soft         electrons   0.0000000000000000     
 augmentation electrons   277.13770345225470     
 soft         electrons   0.0000000000000000     
 augmentation electrons   277.13770345225470     
 soft         electrons   0.0000000000000000     
 augmentation electrons   277.13770345225470     
 soft         electrons   0.0000000000000000     
 augmentation electrons   277.13770345225470     
 soft         electrons   0.0000000000000000     
 augmentation electrons   277.13770345225470     
 soft         electrons   0.0000000000000000     
 augmentation electrons   277.13770345225470     
 soft         electrons   0.0000000000000000     
 augmentation electrons   277.13770345225470     
 soft         electrons   0.0000000000000000     
 augmentation electrons   277.13770345225470     
 soft         electrons   0.0000000000000000     
 augmentation electrons   277.13770345225470     
 soft         electrons   0.0000000000000000     
 augmentation electrons   277.13770345225470     
 soft         electrons   0.0000000000000000     
 augmentation electrons   277.13770345225470     
 soft         electrons   0.0000000000000000     
 augmentation electrons   277.13770345225470     
 soft         electrons   0.0000000000000000     
 augmentation electrons   277.13770345225470     
 soft         electrons   0.0000000000000000     
 augmentation electrons   277.13770345225470     
 soft         electrons   0.0000000000000000     
 augmentation electrons   277.13770345225470     
 soft         electrons   0.0000000000000000     
 augmentation electrons   277.13770345225470     
 soft         electrons   0.0000000000000000     
 augmentation electrons   277.13770345225470     
 soft         electrons   0.0000000000000000     
 augmentation electrons   277.13770345225470     
 soft         electrons   0.0000000000000000     
 augmentation electrons   277.13770345225470     
 soft         electrons   0.0000000000000000     
 augmentation electrons   277.13770345225470     
 soft         electrons   0.0000000000000000     
 soft         electrons   0.0000000000000000     
 augmentation electrons   277.13770345225470     
 soft         electrons   0.0000000000000000     
 augmentation electrons   277.13770345225470     
 soft         electrons   0.0000000000000000     
 augmentation electrons   277.13770345225470     
 soft         electrons   0.0000000000000000     
 augmentation electrons   277.13770345225470     
 soft         electrons   0.0000000000000000     
 augmentation electrons   277.13770345225470     
 soft         electrons   0.0000000000000000     
 augmentation electrons   277.13770345225470     
 soft         electrons   0.0000000000000000     
 augmentation electrons   277.13770345225470     
 soft         electrons   0.0000000000000000     
 augmentation electrons   277.13770345225470     
 soft         electrons   0.0000000000000000     
 augmentation electrons   277.13770345225470     
 soft         electrons   0.0000000000000000     
 augmentation electrons   277.13770345225470     
 soft         electrons   0.0000000000000000     
 augmentation electrons   277.13770345225470     
 soft         electrons   0.0000000000000000     
 augmentation electrons   277.13770345225470     
 soft         electrons   0.0000000000000000     
 augmentation electrons   277.13770345225470     
 soft         electrons   0.0000000000000000     
 augmentation electrons   277.13770345225470     
 soft         electrons   0.0000000000000000     
 augmentation electrons   277.13770345225470     
 soft         electrons   0.0000000000000000     
 augmentation electrons   277.13770345225470     
 soft         electrons   0.0000000000000000     
 augmentation electrons   277.13770345225470     
 soft         electrons   0.0000000000000000     
 augmentation electrons   277.13770345225470     
 soft         electrons   0.0000000000000000     
 augmentation electrons   277.13770345225470     
 soft         electrons   0.0000000000000000     
 augmentation electrons   277.13770345225470     
 soft         electrons   0.0000000000000000     
 augmentation electrons   277.13770345225470     
 soft         electrons   0.0000000000000000     
 augmentation electrons   277.13770345225470     
 soft         electrons   0.0000000000000000     
 augmentation electrons   277.13770345225470     
 soft         electrons   0.0000000000000000     
 augmentation electrons   277.13770345225470     
 augmentation electrons   277.13770345225470     
 soft         electrons   0.0000000000000000     
 augmentation electrons   277.13770345225470     
 soft         electrons   0.0000000000000000     
 augmentation electrons   277.13770345225470     
 soft         electrons   0.0000000000000000     
 augmentation electrons   277.13770345225470     
 augmentation electrons   277.13770345225470     
 soft         electrons   0.0000000000000000     
 augmentation electrons   277.13770345225470     
 soft         electrons   0.0000000000000000     
 soft         electrons   0.0000000000000000     
 augmentation electrons   277.13770345225470     
 soft         electrons   0.0000000000000000     
 augmentation electrons   277.13770345225470     
 soft         electrons   0.0000000000000000     
 augmentation electrons   277.13770345225470     
 soft         electrons   0.0000000000000000     
 augmentation electrons   277.13770345225470     
 soft         electrons   0.0000000000000000     
 augmentation electrons   277.13770345225470     
 soft         electrons   0.0000000000000000     
 augmentation electrons   277.13770345225470     
 soft         electrons   0.0000000000000000     
 augmentation electrons   277.13770345225470     
 soft         electrons   0.0000000000000000     
 augmentation electrons   277.13770345225470     
 soft         electrons   0.0000000000000000     
 augmentation electrons   277.13770345225470     
 soft         electrons   0.0000000000000000     
 augmentation electrons   277.13770345225470     
 soft         electrons   0.0000000000000000     
 augmentation electrons   277.13770345225470     
 soft         electrons   0.0000000000000000     
 augmentation electrons   277.13770345225470     
 soft         electrons   0.0000000000000000     
 augmentation electrons   277.13770345225470     
 soft         electrons   0.0000000000000000     
 augmentation electrons   277.13770345225470     
 soft         electrons   0.0000000000000000     
 augmentation electrons   277.13770345225470     
 soft         electrons   0.0000000000000000     
 augmentation electrons   277.13770345225470     
 soft         electrons   0.0000000000000000     
 soft         electrons   0.0000000000000000     
 total        electrons   277.13770345225470     
 total        electrons   277.13770345225470     
 total        electrons   277.13770345225470     
 total        electrons   277.13770345225470     
 total        electrons   277.13770345225470     
 total        electrons   277.13770345225470     
 total        electrons   277.13770345225470     
 total        electrons   277.13770345225470     
 total        electrons   277.13770345225470     
 total        electrons   277.13770345225470     
 total        electrons   277.13770345225470     
 total        electrons   277.13770345225470     
 total        electrons   277.13770345225470     
 total        electrons   277.13770345225470     
 total        electrons   277.13770345225470     
 total        electrons   277.13770345225470     
 total        electrons   277.13770345225470     
 total        electrons   277.13770345225470     
 total        electrons   277.13770345225470     
 total        electrons   277.13770345225470     
 total        electrons   277.13770345225470     
 total        electrons   277.13770345225470     
 total        electrons   277.13770345225470     
 total        electrons   277.13770345225470     
 total        electrons   277.13770345225470     
 total        electrons   277.13770345225470     
 total        electrons   277.13770345225470     
 total        electrons   277.13770345225470     
 total        electrons   277.13770345225470     
 total        electrons   277.13770345225470     
 total        electrons   277.13770345225470     
 total        electrons   277.13770345225470     
 total        electrons   277.13770345225470     
 total        electrons   277.13770345225470     
 total        electrons   277.13770345225470     
 total        electrons   277.13770345225470     
 total        electrons   277.13770345225470     
 total        electrons   277.13770345225470     
 total        electrons   277.13770345225470     
 total        electrons   277.13770345225470     
 total        electrons   277.13770345225470     
 total        electrons   277.13770345225470     
 total        electrons   277.13770345225470     
 total        electrons   277.13770345225470     
 total        electrons   277.13770345225470     
 total        electrons   277.13770345225470     
 total        electrons   277.13770345225470     
 total        electrons   277.13770345225470     
 total        electrons   277.13770345225470     
 total        electrons   277.13770345225470     
 total        electrons   277.13770345225470     
 total        electrons   277.13770345225470     
 total        electrons   277.13770345225470     
 total        electrons   277.13770345225470     
 total        electrons   277.13770345225470     
 total        electrons   277.13770345225470     
 total        electrons   277.13770345225470     
 total        electrons   277.13770345225470     
 total        electrons   277.13770345225470     
 total        electrons   277.13770345225470     
 total        electrons   277.13770345225470     
 total        electrons   277.13770345225470     
 total        electrons   277.13770345225470     
 total        electrons   277.13770345225470     
 total        electrons   277.13770345225470     
 total        electrons   277.13770345225470     
 total        electrons   277.13770345225470     
 total        electrons   277.13770345225470     
 total        electrons   277.13770345225470     
 total        electrons   277.13770345225470     
 total        electrons   277.13770345225470     
 total        electrons   277.13770345225470     
 augmentation electrons   1560.5231169777389     
 soft         electrons   0.0000000000000000     
 total        electrons   1560.5231169777389     
 augmentation electrons   1560.5231169777389     
 soft         electrons   0.0000000000000000     
 total        electrons   1560.5231169777389     
 augmentation electrons   1560.5231169777389     
 soft         electrons   0.0000000000000000     
 total        electrons   1560.5231169777389     
 augmentation electrons   1560.5231169777389     
 soft         electrons   0.0000000000000000     
 total        electrons   1560.5231169777389     
 augmentation electrons   1560.5231169777389     
 soft         electrons   0.0000000000000000     
 total        electrons   1560.5231169777389     
 augmentation electrons   1560.5231169777389     
 soft         electrons   0.0000000000000000     
 total        electrons   1560.5231169777389     
 augmentation electrons   1560.5231169777389     
 soft         electrons   0.0000000000000000     
 total        electrons   1560.5231169777389     
 augmentation electrons   1560.5231169777389     
 soft         electrons   0.0000000000000000     
 total        electrons   1560.5231169777389     
 augmentation electrons   1560.5231169777389     
 soft         electrons   0.0000000000000000     
 total        electrons   1560.5231169777389     
 augmentation electrons   1560.5231169777389     
 soft         electrons   0.0000000000000000     
 total        electrons   1560.5231169777389     
 augmentation electrons   1560.5231169777389     
 soft         electrons   0.0000000000000000     
 total        electrons   1560.5231169777389     
 augmentation electrons   1560.5231169777389     
 soft         electrons   0.0000000000000000     
 total        electrons   1560.5231169777389     
 augmentation electrons   1560.5231169777389     
 soft         electrons   0.0000000000000000     
 total        electrons   1560.5231169777389     
 augmentation electrons   1560.5231169777389     
 soft         electrons   0.0000000000000000     
 total        electrons   1560.5231169777389     
 augmentation electrons   1560.5231169777389     
 soft         electrons   0.0000000000000000     
 total        electrons   1560.5231169777389     
 augmentation electrons   1560.5231169777389     
 soft         electrons   0.0000000000000000     
 total        electrons   1560.5231169777389     
 augmentation electrons   1560.5231169777389     
 soft         electrons   0.0000000000000000     
 total        electrons   1560.5231169777389     
 augmentation electrons   1560.5231169777389     
 soft         electrons   0.0000000000000000     
 total        electrons   1560.5231169777389     
 augmentation electrons   1560.5231169777389     
 soft         electrons   0.0000000000000000     
 total        electrons   1560.5231169777389     
 augmentation electrons   1560.5231169777389     
 soft         electrons   0.0000000000000000     
 total        electrons   1560.5231169777389     
 augmentation electrons   1560.5231169777389     
 soft         electrons   0.0000000000000000     
 total        electrons   1560.5231169777389     
 augmentation electrons   1560.5231169777389     
 soft         electrons   0.0000000000000000     
 total        electrons   1560.5231169777389     
 augmentation electrons   1560.5231169777389     
 soft         electrons   0.0000000000000000     
 augmentation electrons   1560.5231169777389     
 soft         electrons   0.0000000000000000     
 total        electrons   1560.5231169777389     
 augmentation electrons   1560.5231169777389     
 soft         electrons   0.0000000000000000     
 total        electrons   1560.5231169777389     
 augmentation electrons   1560.5231169777389     
 soft         electrons   0.0000000000000000     
 total        electrons   1560.5231169777389     
 augmentation electrons   1560.5231169777389     
 soft         electrons   0.0000000000000000     
 total        electrons   1560.5231169777389     
 augmentation electrons   1560.5231169777389     
 soft         electrons   0.0000000000000000     
 total        electrons   1560.5231169777389     
 augmentation electrons   1560.5231169777389     
 soft         electrons   0.0000000000000000     
 total        electrons   1560.5231169777389     
 augmentation electrons   1560.5231169777389     
 soft         electrons   0.0000000000000000     
 total        electrons   1560.5231169777389     
 augmentation electrons   1560.5231169777389     
 soft         electrons   0.0000000000000000     
 total        electrons   1560.5231169777389     
 augmentation electrons   1560.5231169777389     
 soft         electrons   0.0000000000000000     
 total        electrons   1560.5231169777389     
 augmentation electrons   1560.5231169777389     
 soft         electrons   0.0000000000000000     
 total        electrons   1560.5231169777389     
 augmentation electrons   1560.5231169777389     
 soft         electrons   0.0000000000000000     
 total        electrons   1560.5231169777389     
 augmentation electrons   1560.5231169777389     
 soft         electrons   0.0000000000000000     
 total        electrons   1560.5231169777389     
 augmentation electrons   1560.5231169777389     
 soft         electrons   0.0000000000000000     
 total        electrons   1560.5231169777389     
 augmentation electrons   1560.5231169777389     
 soft         electrons   0.0000000000000000     
 total        electrons   1560.5231169777389     
 augmentation electrons   1560.5231169777389     
 soft         electrons   0.0000000000000000     
 total        electrons   1560.5231169777389     
 augmentation electrons   1560.5231169777389     
 soft         electrons   0.0000000000000000     
 total        electrons   1560.5231169777389     
 augmentation electrons   1560.5231169777389     
 soft         electrons   0.0000000000000000     
 total        electrons   1560.5231169777389     
 augmentation electrons   1560.5231169777389     
 soft         electrons   0.0000000000000000     
 total        electrons   1560.5231169777389     
 augmentation electrons   1560.5231169777389     
 soft         electrons   0.0000000000000000     
 total        electrons   1560.5231169777389     
 augmentation electrons   1560.5231169777389     
 soft         electrons   0.0000000000000000     
 total        electrons   1560.5231169777389     
 augmentation electrons   1560.5231169777389     
 soft         electrons   0.0000000000000000     
 total        electrons   1560.5231169777389     
 augmentation electrons   1560.5231169777389     
 soft         electrons   0.0000000000000000     
 total        electrons   1560.5231169777389     
 augmentation electrons   1560.5231169777389     
 soft         electrons   0.0000000000000000     
 total        electrons   1560.5231169777389     
 augmentation electrons   1560.5231169777389     
 soft         electrons   0.0000000000000000     
 total        electrons   1560.5231169777389     
 augmentation electrons   1560.5231169777389     
 soft         electrons   0.0000000000000000     
 total        electrons   1560.5231169777389     
 augmentation electrons   1560.5231169777389     
 soft         electrons   0.0000000000000000     
 total        electrons   1560.5231169777389     
 augmentation electrons   1560.5231169777389     
 soft         electrons   0.0000000000000000     
 total        electrons   1560.5231169777389     
 augmentation electrons   1560.5231169777389     
 soft         electrons   0.0000000000000000     
 total        electrons   1560.5231169777389     
 augmentation electrons   1560.5231169777389     
 soft         electrons   0.0000000000000000     
 total        electrons   1560.5231169777389     
 augmentation electrons   1560.5231169777389     
 soft         electrons   0.0000000000000000     
 total        electrons   1560.5231169777389     
 augmentation electrons   1560.5231169777389     
 soft         electrons   0.0000000000000000     
 total        electrons   1560.5231169777389     
 augmentation electrons   1560.5231169777389     
 soft         electrons   0.0000000000000000     
 total        electrons   1560.5231169777389     
 augmentation electrons   1560.5231169777389     
 soft         electrons   0.0000000000000000     
 total        electrons   1560.5231169777389     
 augmentation electrons   1560.5231169777389     
 soft         electrons   0.0000000000000000     
 total        electrons   1560.5231169777389     
 augmentation electrons   1560.5231169777389     
 soft         electrons   0.0000000000000000     
 total        electrons   1560.5231169777389     
 augmentation electrons   1560.5231169777389     
 soft         electrons   0.0000000000000000     
 total        electrons   1560.5231169777389     
 augmentation electrons   1560.5231169777389     
 soft         electrons   0.0000000000000000     
 total        electrons   1560.5231169777389     
 augmentation electrons   1560.5231169777389     
 soft         electrons   0.0000000000000000     
 total        electrons   1560.5231169777389     
 augmentation electrons   1560.5231169777389     
 soft         electrons   0.0000000000000000     
 total        electrons   1560.5231169777389     
 augmentation electrons   1560.5231169777389     
 soft         electrons   0.0000000000000000     
 total        electrons   1560.5231169777389     
 augmentation electrons   1560.5231169777389     
 soft         electrons   0.0000000000000000     
 total        electrons   1560.5231169777389     
 augmentation electrons   1560.5231169777389     
 soft         electrons   0.0000000000000000     
 total        electrons   1560.5231169777389     
 augmentation electrons   1560.5231169777389     
 soft         electrons   0.0000000000000000     
 total        electrons   1560.5231169777389     
 augmentation electrons   1560.5231169777389     
 soft         electrons   0.0000000000000000     
 total        electrons   1560.5231169777389     
 augmentation electrons   1560.5231169777389     
 soft         electrons   0.0000000000000000     
 total        electrons   1560.5231169777389     
 augmentation electrons   1560.5231169777389     
 soft         electrons   0.0000000000000000     
 total        electrons   1560.5231169777389     
 augmentation electrons   1560.5231169777389     
 soft         electrons   0.0000000000000000     
 total        electrons   1560.5231169777389     
 augmentation electrons   1560.5231169777389     
 soft         electrons   0.0000000000000000     
 total        electrons   1560.5231169777389     
 augmentation electrons   1560.5231169777389     
 soft         electrons   0.0000000000000000     
 total        electrons   1560.5231169777389     
 total        electrons   1560.5231169777389     
 entering main loop
       N       E                     dE             d eps       ncg     rms          rms(c)
DAV:   1     0.308793841674E+04    0.30879E+04   -0.94575E+04 14784   0.132E+03
DAV:   2     0.105477975038E+03   -0.29825E+04   -0.27725E+04 15752   0.344E+02
DAV:   3    -0.626124040016E+03   -0.73160E+03   -0.70430E+03 20840   0.204E+02
DAV:   4    -0.701730884213E+03   -0.75607E+02   -0.71716E+02 24256   0.723E+01
DAV:   5    -0.706757565004E+03   -0.50267E+01   -0.46996E+01 24592   0.185E+01    0.142E+02
RMM:   6    -0.637393615018E+03    0.69364E+02   -0.15186E+03 21953   0.118E+02    0.710E+01
RMM:   7    -0.655397781111E+03   -0.18004E+02   -0.84270E+02 16841   0.118E+02    0.548E+01
RMM:   8    -0.594233479980E+03    0.61164E+02   -0.12801E+02 17033   0.392E+01    0.273E+01
RMM:   9    -0.596385681456E+03   -0.21522E+01   -0.91294E+01 19156   0.261E+01    0.261E+01
RMM:  10    -0.578895995102E+03    0.17490E+02   -0.23008E+01 19803   0.117E+01    0.167E+01
RMM:  11    -0.579063079498E+03   -0.16708E+00   -0.52637E+00 23139   0.372E+00    0.152E+01
RMM:  12    -0.579262709159E+03   -0.19963E+00   -0.18768E+00 19241   0.326E+00    0.139E+01
RMM:  13    -0.579706397714E+03   -0.44369E+00   -0.46474E+00 19197   0.650E+00    0.120E+01
RMM:  14    -0.578982090992E+03    0.72431E+00   -0.47461E+00 17303   0.756E+00    0.795E+00
RMM:  15    -0.578216381020E+03    0.76571E+00   -0.14174E+00 17907   0.391E+00    0.324E+00
RMM:  16    -0.578181642223E+03    0.34739E-01   -0.10459E+00 20718   0.226E+00    0.248E+00
RMM:  17    -0.578127146221E+03    0.54496E-01   -0.35853E-01 21892   0.144E+00    0.160E+00
RMM:  18    -0.578125762209E+03    0.13840E-02   -0.18271E-01 21593   0.952E-01    0.136E+00
RMM:  19    -0.578125970049E+03   -0.20784E-03   -0.11640E-01 18027   0.106E+00    0.143E+00
RMM:  20    -0.578111395249E+03    0.14575E-01   -0.49869E-02 19844   0.597E-01    0.102E+00
RMM:  21    -0.578107890223E+03    0.35050E-02   -0.24251E-02 19042   0.370E-01    0.727E-01
RMM:  22    -0.578106716806E+03    0.11734E-02   -0.30750E-02 22735   0.364E-01    0.398E-01
RMM:  23    -0.578107823019E+03   -0.11062E-02   -0.13413E-02 22267   0.275E-01    0.325E-01
RMM:  24    -0.578108068218E+03   -0.24520E-03   -0.44517E-03 19994   0.171E-01    0.282E-01
RMM:  25    -0.578108476771E+03   -0.40855E-03   -0.47187E-03 22534   0.148E-01    0.143E-01
RMM:  26    -0.578108965105E+03   -0.48833E-03   -0.14642E-03 20436   0.100E-01    0.118E-01
RMM:  27    -0.578109575603E+03   -0.61050E-03   -0.48199E-04 21881   0.515E-02    0.780E-02
RMM:  28    -0.578110389274E+03   -0.81367E-03   -0.31707E-04 19605   0.458E-02    0.421E-02
RMM:  29    -0.578111251836E+03   -0.86256E-03   -0.41056E-04 18934   0.602E-02    0.633E-02
RMM:  30    -0.578111468238E+03   -0.21640E-03   -0.20698E-04 21242   0.331E-02    0.552E-02
RMM:  31    -0.578111641203E+03   -0.17297E-03   -0.73724E-05 18036   0.235E-02    0.340E-02
RMM:  32    -0.578111812071E+03   -0.17087E-03   -0.12059E-04 22401   0.189E-02    0.158E-02
RMM:  33    -0.578111901664E+03   -0.89593E-04   -0.27240E-05 17376   0.111E-02    0.122E-02
RMM:  34    -0.578111988141E+03   -0.86477E-04   -0.35924E-05 20315   0.993E-03    0.138E-02
RMM:  35    -0.578112116693E+03   -0.12855E-03   -0.27013E-05 16991   0.146E-02    0.157E-02
RMM:  36    -0.578112218370E+03   -0.10168E-03   -0.11217E-05 14058   0.113E-02    0.445E-03
RMM:  37    -0.578112305393E+03   -0.87023E-04   -0.80251E-06 13724   0.477E-03    0.558E-03
RMM:  38    -0.578112358249E+03   -0.52856E-04   -0.68532E-06 13836   0.690E-03    0.591E-03
RMM:  39    -0.578112382241E+03   -0.23991E-04   -0.24053E-06 12288   0.432E-03    0.217E-03
RMM:  40    -0.578112394272E+03   -0.12031E-04   -0.15331E-06 11976   0.230E-03    0.240E-03
RMM:  41    -0.578112399054E+03   -0.47816E-05   -0.46676E-07 10899   0.248E-03    0.145E-03
RMM:  42    -0.578112409178E+03   -0.10124E-04   -0.10076E-06  9578   0.129E-03    0.883E-04
RMM:  43    -0.578112410480E+03   -0.13022E-05   -0.24854E-07  8936   0.149E-03    0.582E-04
RMM:  44    -0.578112411572E+03   -0.10914E-05   -0.18327E-07  7327   0.859E-04    0.281E-04
RMM:  45    -0.578112412654E+03   -0.10824E-05   -0.14095E-07  7065   0.969E-04    0.253E-04
RMM:  46    -0.578112413096E+03   -0.44150E-06   -0.10526E-07  6458   0.777E-04
   1 F= -.57811241E+03 E0= -.57811115E+03  d E =-.377813E-02
 augmentation electrons   35.728984438216408     
 soft         electrons   241.48065065980444     
 augmentation electrons   35.728984438216408     
 soft         electrons   241.48065065980444     
 augmentation electrons   35.728984438216408     
 soft         electrons   241.48065065980444     
 augmentation electrons   35.728984438216408     
 soft         electrons   241.48065065980444     
 augmentation electrons   35.728984438216408     
 soft         electrons   241.48065065980444     
 augmentation electrons   35.728984438216408     
 soft         electrons   241.48065065980444     
 augmentation electrons   35.728984438216408     
 augmentation electrons   35.728984438216408     
 soft         electrons   241.48065065980444     
 augmentation electrons   35.728984438216408     
 soft         electrons   241.48065065980444     
 augmentation electrons   35.728984438216408     
 soft         electrons   241.48065065980444     
 augmentation electrons   35.728984438216408     
 soft         electrons   241.48065065980444     
 augmentation electrons   35.728984438216408     
 soft         electrons   241.48065065980444     
 augmentation electrons   35.728984438216408     
 soft         electrons   241.48065065980444     
 augmentation electrons   35.728984438216408     
 soft         electrons   241.48065065980444     
 augmentation electrons   35.728984438216408     
 soft         electrons   241.48065065980444     
 augmentation electrons   35.728984438216408     
 soft         electrons   241.48065065980444     
 augmentation electrons   35.728984438216408     
 soft         electrons   241.48065065980444     
 augmentation electrons   35.728984438216408     
 soft         electrons   241.48065065980444     
 augmentation electrons   35.728984438216408     
 soft         electrons   241.48065065980444     
 augmentation electrons   35.728984438216408     
 soft         electrons   241.48065065980444     
 augmentation electrons   35.728984438216408     
 soft         electrons   241.48065065980444     
 augmentation electrons   35.728984438216408     
 soft         electrons   241.48065065980444     
 augmentation electrons   35.728984438216408     
 soft         electrons   241.48065065980444     
 augmentation electrons   35.728984438216408     
 soft         electrons   241.48065065980444     
 augmentation electrons   35.728984438216408     
 soft         electrons   241.48065065980444     
 augmentation electrons   35.728984438216408     
 soft         electrons   241.48065065980444     
 augmentation electrons   35.728984438216408     
 soft         electrons   241.48065065980444     
 augmentation electrons   35.728984438216408     
 soft         electrons   241.48065065980444     
 augmentation electrons   35.728984438216408     
 soft         electrons   241.48065065980444     
 augmentation electrons   35.728984438216408     
 soft         electrons   241.48065065980444     
 augmentation electrons   35.728984438216408     
 soft         electrons   241.48065065980444     
 augmentation electrons   35.728984438216408     
 soft         electrons   241.48065065980444     
 augmentation electrons   35.728984438216408     
 soft         electrons   241.48065065980444     
 augmentation electrons   35.728984438216408     
 soft         electrons   241.48065065980444     
 augmentation electrons   35.728984438216408     
 soft         electrons   241.48065065980444     
 augmentation electrons   35.728984438216408     
 soft         electrons   241.48065065980444     
 augmentation electrons   35.728984438216408     
 soft         electrons   241.48065065980444     
 augmentation electrons   35.728984438216408     
 soft         electrons   241.48065065980444     
 augmentation electrons   35.728984438216408     
 soft         electrons   241.48065065980444     
 augmentation electrons   35.728984438216408     
 soft         electrons   241.48065065980444     
 augmentation electrons   35.728984438216408     
 soft         electrons   241.48065065980444     
 augmentation electrons   35.728984438216408     
 soft         electrons   241.48065065980444     
 augmentation electrons   35.728984438216408     
 soft         electrons   241.48065065980444     
 augmentation electrons   35.728984438216408     
 soft         electrons   241.48065065980444     
 augmentation electrons   35.728984438216408     
 soft         electrons   241.48065065980444     
 augmentation electrons   35.728984438216408     
 soft         electrons   241.48065065980444     
 augmentation electrons   35.728984438216408     
 soft         electrons   241.48065065980444     
 augmentation electrons   35.728984438216408     
 soft         electrons   241.48065065980444     
 augmentation electrons   35.728984438216408     
 soft         electrons   241.48065065980444     
 augmentation electrons   35.728984438216408     
 soft         electrons   241.48065065980444     
 augmentation electrons   35.728984438216408     
 soft         electrons   241.48065065980444     
 augmentation electrons   35.728984438216408     
 soft         electrons   241.48065065980444     
 augmentation electrons   35.728984438216408     
 soft         electrons   241.48065065980444     
 augmentation electrons   35.728984438216408     
 soft         electrons   241.48065065980444     
 augmentation electrons   35.728984438216408     
 soft         electrons   241.48065065980444     
 augmentation electrons   35.728984438216408     
 soft         electrons   241.48065065980444     
 augmentation electrons   35.728984438216408     
 soft         electrons   241.48065065980444     
 augmentation electrons   35.728984438216408     
 soft         electrons   241.48065065980444     
 augmentation electrons   35.728984438216408     
 soft         electrons   241.48065065980444     
 augmentation electrons   35.728984438216408     
 soft         electrons   241.48065065980444     
 augmentation electrons   35.728984438216408     
 soft         electrons   241.48065065980444     
 augmentation electrons   35.728984438216408     
 soft         electrons   241.48065065980444     
 augmentation electrons   35.728984438216408     
 soft         electrons   241.48065065980444     
 augmentation electrons   35.728984438216408     
 soft         electrons   241.48065065980444     
 augmentation electrons   35.728984438216408     
 soft         electrons   241.48065065980444     
 augmentation electrons   35.728984438216408     
 soft         electrons   241.48065065980444     
 augmentation electrons   35.728984438216408     
 soft         electrons   241.48065065980444     
 augmentation electrons   35.728984438216408     
 soft         electrons   241.48065065980444     
 augmentation electrons   35.728984438216408     
 soft         electrons   241.48065065980444     
 augmentation electrons   35.728984438216408     
 soft         electrons   241.48065065980444     
 augmentation electrons   35.728984438216408     
 soft         electrons   241.48065065980444     
 augmentation electrons   35.728984438216408     
 soft         electrons   241.48065065980444     
 soft         electrons   241.48065065980444     
 total        electrons   277.20963509802084     
 total        electrons   277.20963509802084     
 total        electrons   277.20963509802084     
 total        electrons   277.20963509802084     
 total        electrons   277.20963509802084     
 total        electrons   277.20963509802084     
 total        electrons   277.20963509802084     
 total        electrons   277.20963509802084     
 total        electrons   277.20963509802084     
 total        electrons   277.20963509802084     
 total        electrons   277.20963509802084     
 total        electrons   277.20963509802084     
 total        electrons   277.20963509802084     
 total        electrons   277.20963509802084     
 total        electrons   277.20963509802084     
 total        electrons   277.20963509802084     
 total        electrons   277.20963509802084     
 total        electrons   277.20963509802084     
 total        electrons   277.20963509802084     
 total        electrons   277.20963509802084     
 total        electrons   277.20963509802084     
 total        electrons   277.20963509802084     
 total        electrons   277.20963509802084     
 total        electrons   277.20963509802084     
 total        electrons   277.20963509802084     
 total        electrons   277.20963509802084     
 total        electrons   277.20963509802084     
 total        electrons   277.20963509802084     
 total        electrons   277.20963509802084     
 total        electrons   277.20963509802084     
 total        electrons   277.20963509802084     
 total        electrons   277.20963509802084     
 total        electrons   277.20963509802084     
 total        electrons   277.20963509802084     
 total        electrons   277.20963509802084     
 total        electrons   277.20963509802084     
 total        electrons   277.20963509802084     
 total        electrons   277.20963509802084     
 total        electrons   277.20963509802084     
 total        electrons   277.20963509802084     
 total        electrons   277.20963509802084     
 total        electrons   277.20963509802084     
 total        electrons   277.20963509802084     
 total        electrons   277.20963509802084     
 total        electrons   277.20963509802084     
 total        electrons   277.20963509802084     
 total        electrons   277.20963509802084     
 total        electrons   277.20963509802084     
 total        electrons   277.20963509802084     
 total        electrons   277.20963509802084     
 total        electrons   277.20963509802084     
 total        electrons   277.20963509802084     
 total        electrons   277.20963509802084     
 total        electrons   277.20963509802084     
 total        electrons   277.20963509802084     
 total        electrons   277.20963509802084     
 total        electrons   277.20963509802084     
 total        electrons   277.20963509802084     
 total        electrons   277.20963509802084     
 total        electrons   277.20963509802084     
 total        electrons   277.20963509802084     
 total        electrons   277.20963509802084     
 total        electrons   277.20963509802084     
 total        electrons   277.20963509802084     
 total        electrons   277.20963509802084     
 total        electrons   277.20963509802084     
 total        electrons   277.20963509802084     
 total        electrons   277.20963509802084     
 total        electrons   277.20963509802084     
 total        electrons   277.20963509802084     
 total        electrons   277.20963509802084     
 total        electrons   277.20963509802084     
Note: The following floating-point exceptions are signalling: IEEE_OVERFLOW_FLAG
Note: The following floating-point exceptions are signalling: IEEE_OVERFLOW_FLAG
Note: The following floating-point exceptions are signalling: IEEE_OVERFLOW_FLAG
Note: The following floating-point exceptions are signalling: IEEE_OVERFLOW_FLAG
Note: The following floating-point exceptions are signalling: IEEE_OVERFLOW_FLAG
Note: The following floating-point exceptions are signalling: IEEE_OVERFLOW_FLAG
Note: The following floating-point exceptions are signalling: IEEE_OVERFLOW_FLAG
Note: The following floating-point exceptions are signalling: IEEE_OVERFLOW_FLAG
Note: The following floating-point exceptions are signalling: IEEE_OVERFLOW_FLAG
Note: The following floating-point exceptions are signalling: IEEE_OVERFLOW_FLAG
Note: The following floating-point exceptions are signalling: IEEE_OVERFLOW_FLAG
Note: The following floating-point exceptions are signalling: IEEE_OVERFLOW_FLAG
Note: The following floating-point exceptions are signalling: IEEE_OVERFLOW_FLAG
Note: The following floating-point exceptions are signalling: IEEE_OVERFLOW_FLAG
Note: The following floating-point exceptions are signalling: IEEE_OVERFLOW_FLAG
Note: The following floating-point exceptions are signalling: IEEE_OVERFLOW_FLAG
Note: The following floating-point exceptions are signalling: IEEE_OVERFLOW_FLAG
Note: The following floating-point exceptions are signalling: IEEE_OVERFLOW_FLAG
Note: The following floating-point exceptions are signalling: IEEE_OVERFLOW_FLAG
Note: The following floating-point exceptions are signalling: IEEE_OVERFLOW_FLAG
Note: The following floating-point exceptions are signalling: IEEE_OVERFLOW_FLAG
Note: The following floating-point exceptions are signalling: IEEE_OVERFLOW_FLAG
Note: The following floating-point exceptions are signalling: IEEE_OVERFLOW_FLAG
Note: The following floating-point exceptions are signalling: IEEE_OVERFLOW_FLAG
Note: The following floating-point exceptions are signalling: IEEE_OVERFLOW_FLAG
Note: The following floating-point exceptions are signalling: IEEE_OVERFLOW_FLAG
Note: The following floating-point exceptions are signalling: IEEE_OVERFLOW_FLAG
Note: The following floating-point exceptions are signalling: IEEE_OVERFLOW_FLAG
Note: The following floating-point exceptions are signalling: IEEE_OVERFLOW_FLAG
Note: The following floating-point exceptions are signalling: IEEE_OVERFLOW_FLAG
Note: The following floating-point exceptions are signalling: IEEE_OVERFLOW_FLAG
Note: The following floating-point exceptions are signalling: IEEE_OVERFLOW_FLAG
Note: The following floating-point exceptions are signalling: IEEE_OVERFLOW_FLAG
Note: The following floating-point exceptions are signalling: IEEE_OVERFLOW_FLAG
Note: The following floating-point exceptions are signalling: IEEE_OVERFLOW_FLAG
Note: The following floating-point exceptions are signalling: IEEE_OVERFLOW_FLAG
Note: The following floating-point exceptions are signalling: IEEE_OVERFLOW_FLAG
Note: The following floating-point exceptions are signalling: IEEE_OVERFLOW_FLAG
Note: The following floating-point exceptions are signalling: IEEE_OVERFLOW_FLAG
Note: The following floating-point exceptions are signalling: IEEE_OVERFLOW_FLAG
Note: The following floating-point exceptions are signalling: IEEE_OVERFLOW_FLAG
Note: The following floating-point exceptions are signalling: IEEE_OVERFLOW_FLAG
Note: The following floating-point exceptions are signalling: IEEE_OVERFLOW_FLAG
Note: The following floating-point exceptions are signalling: IEEE_OVERFLOW_FLAG
Note: The following floating-point exceptions are signalling: IEEE_OVERFLOW_FLAG
Note: The following floating-point exceptions are signalling: IEEE_OVERFLOW_FLAG
Note: The following floating-point exceptions are signalling: IEEE_OVERFLOW_FLAG
Note: The following floating-point exceptions are signalling: IEEE_OVERFLOW_FLAG
Note: The following floating-point exceptions are signalling: IEEE_OVERFLOW_FLAG
Note: The following floating-point exceptions are signalling: IEEE_OVERFLOW_FLAG
Note: The following floating-point exceptions are signalling: IEEE_OVERFLOW_FLAG
Note: The following floating-point exceptions are signalling: IEEE_OVERFLOW_FLAG
Note: The following floating-point exceptions are signalling: IEEE_OVERFLOW_FLAG
Note: The following floating-point exceptions are signalling: IEEE_OVERFLOW_FLAG
Note: The following floating-point exceptions are signalling: IEEE_OVERFLOW_FLAG
Note: The following floating-point exceptions are signalling: IEEE_OVERFLOW_FLAG
Note: The following floating-point exceptions are signalling: IEEE_OVERFLOW_FLAG
Note: The following floating-point exceptions are signalling: IEEE_OVERFLOW_FLAG
Note: The following floating-point exceptions are signalling: IEEE_OVERFLOW_FLAG
Note: The following floating-point exceptions are signalling: IEEE_OVERFLOW_FLAG
Note: The following floating-point exceptions are signalling: IEEE_OVERFLOW_FLAG
Note: The following floating-point exceptions are signalling: IEEE_OVERFLOW_FLAG
Note: The following floating-point exceptions are signalling: IEEE_OVERFLOW_FLAG
Note: The following floating-point exceptions are signalling: IEEE_OVERFLOW_FLAG
Note: The following floating-point exceptions are signalling: IEEE_OVERFLOW_FLAG
Note: The following floating-point exceptions are signalling: IEEE_OVERFLOW_FLAG
Note: The following floating-point exceptions are signalling: IEEE_OVERFLOW_FLAG
Note: The following floating-point exceptions are signalling: IEEE_OVERFLOW_FLAG
Note: The following floating-point exceptions are signalling: IEEE_OVERFLOW_FLAG
Note: The following floating-point exceptions are signalling: IEEE_OVERFLOW_FLAG
Note: The following floating-point exceptions are signalling: IEEE_OVERFLOW_FLAG
Note: The following floating-point exceptions are signalling: IEEE_OVERFLOW_FLAG
