    3    3   60    1
  0.8144830E+01  0.3039000E-09  0.3039000E-09  0.3055000E-09  0.5000000E-15
   1.0000000000000000E-004
  CAR 
 Name                                    
     12    216     10

  0.3742002E-15  0.3742002E-15  0.3742002E-15  0.2962963E-03
    1       -5.747783   1.000000
    2        3.848943   1.000000
    3        3.848946   1.000000
    4        5.813429   1.000000
    5        6.997409   1.000000
    6        8.108371   1.000000
    7        8.108372   1.000000
    8       11.373152  -0.000000
    9       11.373155  -0.000000
   10       12.829695   0.000000

  0.6666667E-01  0.3766815E-15  0.3742002E-15  0.1777778E-02
    1       -5.662568   1.000000
    2        3.644344   1.000000
    3        3.887696   1.000000
    4        5.518603   1.000000
    5        7.027267   1.000000
    6        8.076555   1.000000
    7        8.489648   1.000000
    8       10.834509  -0.000000
    9       10.900557  -0.000000
   10       13.305816   0.000000

  0.1333333E+00  0.3754153E-15  0.3742002E-15  0.1777778E-02
    1       -5.410338   1.000000
    2        3.099857   1.000000
    3        3.990670   1.000000
    4        4.945238   1.000000
    5        7.039817   1.000000
    6        7.988044   1.000000
    7        9.299970   0.079541
    8       10.078935  -0.000000
    9       10.244103  -0.000000
   10       13.878264   0.000000

  0.2000000E+00  0.3870416E-15  0.3742002E-15  0.1777778E-02
    1       -5.001040   1.000000
    2        2.349808   1.000000
    3        4.121575   1.000000
    4        4.373069   1.000000
    5        6.808764   1.000000
    6        7.861177   1.000000
    7        9.764901  -0.000000
    8        9.765019  -0.000000
    9       10.175926  -0.000000
   10       14.297708   0.000000

  0.2666667E+00  0.4120044E-15  0.3742002E-15  0.1777778E-02
    1       -4.450306   1.000000
    2        1.497961   1.000000
    3        3.887212   1.000000
    4        4.235358   1.000000
    5        6.265242   1.000000
    6        7.720356   1.000000
    7        9.516460  -0.000326
    8       10.074922  -0.000000
    9       10.847827  -0.000000
   10       14.711393   0.000000

  0.3333333E+00  0.4025434E-15  0.3742002E-15  0.1777778E-02
    1       -3.778607   1.000000
    2        0.600242   1.000000
    3        3.514354   1.000000
    4        4.302676   1.000000
    5        5.657147   1.000000
    6        7.590188   1.000000
    7        9.474485  -0.002240
    8       10.797247  -0.000000
    9       11.099435  -0.000000
   10       14.750315   0.000000

  0.4000000E+00  0.3732510E-15  0.3742002E-15  0.1777778E-02
    1       -3.011293   1.000000
    2       -0.313359   1.000000
    3        3.263686   1.000000
    4        4.326051   1.000000
    5        5.182371   1.000000
    6        7.491316   1.000000
    7        9.552356  -0.000046
    8       11.046788  -0.000000
    9       11.684094  -0.000000
   10       14.915997   0.000000

  0.4666667E+00  0.3915456E-15  0.3742002E-15  0.1777778E-02
    1       -2.194038   1.000000
    2       -1.201982   1.000000
    3        3.138046   1.000000
    4        4.328343   1.000000
    5        4.928728   1.000000
    6        7.438193   1.000000
    7        9.633460  -0.000000
    8       10.955572  -0.000000
    9       12.393507   0.000000
   10       15.170811   0.000000

  0.6666667E-01  0.6666667E-01  0.3742002E-15  0.1777778E-02
    1       -5.493813   1.000000
    2        3.282417   1.000000
    3        3.943828   1.000000
    4        5.107344   1.000000
    5        7.054510   1.000000
    6        8.000029   1.000000
    7        9.080847   1.023517
    8       10.253840  -0.000000
    9       10.403416  -0.000000
   10       13.968288   0.000000

  0.1333333E+00  0.6666667E-01  0.3742002E-15  0.3555556E-02
    1       -5.162818   1.000000
    2        2.666640   1.000000
    3        4.010870   1.000000
    4        4.578798   1.000000
    5        6.985661   1.000000
    6        7.848293   1.000000
    7        9.601404  -0.000002
    8        9.939744  -0.000000
    9       10.074769  -0.000000
   10       14.377158   0.000000

  0.2000000E+00  0.6666667E-01  0.3742002E-15  0.3555556E-02
    1       -4.682085   1.000000
    2        1.901771   1.000000
    3        4.036675   1.000000
    4        4.089417   1.000000
    5        6.676453   1.000000
    6        7.652682   1.000000
    7        9.221975   0.648793
    8       10.162145  -0.000000
    9       10.785662  -0.000000
   10       14.720965   0.000000

  0.2666667E+00  0.6666667E-01  0.3742002E-15  0.3555556E-02
    1       -4.069379   1.000000
    2        1.057572   1.000000
    3        3.692532   1.000000
    4        3.977298   1.000000
    5        6.224695   1.000000
    6        7.447542   1.000000
    7        9.147549   1.015214
    8       10.659914  -0.000000
    9       11.335023  -0.000000
   10       14.668987   0.000000

  0.3333333E+00  0.6666667E-01  0.3742002E-15  0.3555556E-02
    1       -3.346995   1.000000
    2        0.171631   1.000000
    3        3.405704   1.000000
    4        3.844587   1.000000
    5        5.833712   1.000000
    6        7.267948   1.000000
    7        9.267558   0.275352
    8       11.396390  -0.000000
    9       11.462205  -0.000000
   10       15.029605   0.000000

  0.4000000E+00  0.6666667E-01  0.3742002E-15  0.3555556E-02
    1       -2.544186   1.000000
    2       -0.727533   1.000000
    3        3.233580   1.000000
    4        3.711675   1.000000
    5        5.593698   1.000000
    6        7.145283   1.000000
    7        9.434440  -0.009490
    8       11.398913  -0.000000
    9       12.125027   0.000000
   10       15.241218   0.000000

  0.4666667E+00  0.6666667E-01  0.3742002E-15  0.1777778E-02
    1       -1.840633   1.000000
    2       -1.462903   1.000000
    3        3.176322   1.000000
    4        3.657018   1.000000
    5        5.514841   1.000000
    6        7.101707   1.000000
    7        9.509718  -0.000456
    8       11.357838  -0.000000
    9       12.458428   0.000000
   10       15.502429   0.000000

  0.1333333E+00  0.1333333E+00  0.3742002E-15  0.1777778E-02
    1       -4.759850   1.000000
    2        2.089893   1.000000
    3        3.882379   1.000000
    4        4.180092   1.000000
    5        6.910955   1.000000
    6        7.564812   1.000000
    7        9.000769   1.001858
    8       10.269820  -0.000000
    9       10.826569  -0.000000
   10       14.718483   0.000000

  0.2000000E+00  0.1333333E+00  0.3742002E-15  0.3555556E-02
    1       -4.215408   1.000000
    2        1.412014   1.000000
    3        3.588994   1.000000
    4        3.837999   1.000000
    5        6.821382   1.000000
    6        7.210375   1.000000
    7        8.623761   1.000000
    8       10.753342  -0.000000
    9       11.708286  -0.000000
   10       14.413176   0.000000

  0.2666667E+00  0.1333333E+00  0.3742002E-15  0.3555556E-02
    1       -3.548482   1.000000
    2        0.649629   1.000000
    3        3.227117   1.000000
    4        3.584283   1.000000
    5        6.646564   1.000000
    6        6.859059   1.000000
    7        8.635516   1.000000
    8       11.373693  -0.000000
    9       12.241626   0.000000
   10       14.595960   0.000000

  0.3333333E+00  0.1333333E+00  0.3742002E-15  0.3555556E-02
    1       -2.783194   1.000000
    2       -0.181708   1.000000
    3        2.921986   1.000000
    4        3.423077   1.000000
    5        6.440317   1.000000
    6        6.578303   1.000000
    7        8.899664   1.000008
    8       11.938862  -0.000000
    9       12.339779   0.000000
   10       15.228147   0.000000

  0.4000000E+00  0.1333333E+00  0.3742002E-15  0.3555556E-02
    1       -1.955169   1.000000
    2       -1.045562   1.000000
    3        2.753562   1.000000
    4        3.346532   1.000000
    5        6.313038   1.000000
    6        6.422334   1.000000
    7        9.135565   1.029038
    8       12.260546   0.000000
    9       12.308725   0.000000
   10       15.762405   0.000000

  0.2000000E+00  0.2000000E+00  0.3742002E-15  0.1777778E-02
    1       -3.615592   1.000000
    2        0.888475   1.000000
    3        2.934508   1.000000
    4        3.671229   1.000000
    5        6.671290   1.000000
    6        7.151090   1.000000
    7        8.165481   1.000000
    8       11.395293  -0.000000
    9       12.726788   0.000000
   10       14.224128   0.000000

  0.2666667E+00  0.2000000E+00  0.3742002E-15  0.3555556E-02
    1       -2.903042   1.000000
    2        0.285354   1.000000
    3        2.321889   1.000000
    4        3.598319   1.000000
    5        6.161807   1.000000
    6        7.252942   1.000000
    7        8.184058   1.000000
    8       11.876035  -0.000000
    9       13.357056   0.000000
   10       14.513019   0.000000

  0.3333333E+00  0.2000000E+00  0.3742002E-15  0.3555556E-02
    1       -2.106224   1.000000
    2       -0.443055   1.000000
    3        1.923293   1.000000
    4        3.592766   1.000000
    5        5.789484   1.000000
    6        7.102932   1.000000
    7        8.565415   1.000000
    8       12.045596   0.000000
    9       13.416061   0.000000
   10       15.254654   0.000000

  0.4000000E+00  0.2000000E+00  0.3742002E-15  0.1777778E-02
    1       -1.287979   1.000000
    2       -1.243227   1.000000
    3        1.791118   1.000000
    4        3.601644   1.000000
    5        5.650161   1.000000
    6        7.032428   1.000000
    7        8.760020   1.000000
    8       12.044184   0.000000
    9       13.400171   0.000000
   10       15.611940   0.000000

  0.2666667E+00  0.2666667E+00  0.3742002E-15  0.1777778E-02
    1       -2.159005   1.000000
    2       -0.086541   1.000000
    3        1.490717   1.000000
    4        3.734859   1.000000
    5        5.508674   1.000000
    6        7.848883   1.000000
    7        7.883209   1.000000
    8       11.963139  -0.000000
    9       14.434636   0.000000
   10       14.465010   0.000000

  0.3333333E+00  0.2666667E+00  0.3742002E-15  0.3555556E-02
    1       -1.367952   1.000000
    2       -0.613203   1.000000
    3        0.986999   1.000000
    4        3.923779   1.000000
    5        5.045750   1.000000
    6        7.689375   1.000000
    7        8.311362   1.000000
    8       11.807987  -0.000000
    9       14.403044   0.000000
   10       15.214035   0.000000

  0.3333333E+00  0.3333333E+00  0.3742002E-15  0.5925926E-03
    1       -0.791806   1.000000
    2       -0.791803   1.000000
    3        0.464297   1.000000
    4        4.413102   1.000000
    5        4.413104   1.000000
    6        8.078101   1.000000
    7        8.078102   1.000000
    8       11.647880  -0.000000
    9       15.009238   0.000000
   10       15.009239   0.000000

  0.3742002E-15  0.3742002E-15  0.6666667E-01  0.5925926E-03
    1       -5.685600   1.000000
    2        3.902748   1.000000
    3        3.902751   1.000000
    4        5.236881   1.000000
    5        7.539074   1.000000
    6        7.906287   1.000000
    7        7.906289   1.000000
    8       11.225172  -0.000000
    9       11.225175  -0.000000
   10       13.267168   0.000000

  0.6666667E-01  0.3766815E-15  0.6666667E-01  0.3555556E-02
    1       -5.601477   1.000000
    2        3.691767   1.000000
    3        3.935534   1.000000
    4        5.073271   1.000000
    5        7.256063   1.000000
    6        7.866599   1.000000
    7        8.458049   1.000000
    8       10.830206  -0.000000
    9       10.900181  -0.000000
   10       13.454304   0.000000

  0.1333333E+00  0.3754153E-15  0.6666667E-01  0.3555556E-02
    1       -5.352612   1.000000
    2        3.127645   1.000000
    3        4.018390   1.000000
    4        4.684456   1.000000
    5        7.029820   1.000000
    6        7.771146   1.000000
    7        9.267263   0.277552
    8       10.250421  -0.000000
    9       10.381024  -0.000000
   10       13.894183   0.000000

  0.2000000E+00  0.3870416E-15  0.6666667E-01  0.3555556E-02
    1       -4.949037   1.000000
    2        2.352028   1.000000
    3        4.110537   1.000000
    4        4.242367   1.000000
    5        6.710103   1.000000
    6        7.678806   1.000000
    7        9.749060  -0.000000
    8        9.967142  -0.000000
    9       10.356414  -0.000000
   10       14.142559   0.000000

  0.2666667E+00  0.4120044E-15  0.6666667E-01  0.3555556E-02
    1       -4.406499   1.000000
    2        1.479049   1.000000
    3        3.846194   1.000000
    4        4.167134   1.000000
    5        6.180042   1.000000
    6        7.642449   1.000000
    7        9.707394  -0.000000
    8       10.105045  -0.000000
    9       10.890142  -0.000000
   10       14.291239   0.000000

  0.3333333E+00  0.4025434E-15  0.6666667E-01  0.3555556E-02
    1       -3.745108   1.000000
    2        0.569495   1.000000
    3        3.537248   1.000000
    4        4.171316   1.000000
    5        5.603658   1.000000
    6        7.662121   1.000000
    7        9.600379  -0.000002
    8       10.707219  -0.000000
    9       11.151226  -0.000000
   10       14.743080   0.000000

  0.4000000E+00  0.3732510E-15  0.6666667E-01  0.3555556E-02
    1       -2.988414   1.000000
    2       -0.347241   1.000000
    3        3.330502   1.000000
    4        4.143890   1.000000
    5        5.148028   1.000000
    6        7.695321   1.000000
    7        9.609288  -0.000001
    8       10.832388  -0.000000
    9       11.820430  -0.000000
   10       14.956393   0.000000

  0.4666667E+00  0.3915456E-15  0.6666667E-01  0.3555556E-02
    1       -2.169962   1.000000
    2       -1.243308   1.000000
    3        3.228202   1.000000
    4        4.119092   1.000000
    5        4.901496   1.000000
    6        7.713227   1.000000
    7        9.652036  -0.000000
    8       10.745994  -0.000000
    9       12.570198   0.000000
   10       14.820836   0.000000

  0.6666667E-01  0.6666667E-01  0.6666667E-01  0.3555556E-02
    1       -5.434955   1.000000
    2        3.322420   1.000000
    3        3.964124   1.000000
    4        4.811719   1.000000
    5        7.106268   1.000000
    6        7.760797   1.000000
    7        9.081500   1.023820
    8       10.351214  -0.000000
    9       10.527996  -0.000000
   10       14.003137   0.000000

  0.1333333E+00  0.6666667E-01  0.6666667E-01  0.7111111E-02
    1       -5.108516   1.000000
    2        2.689633   1.000000
    3        3.934736   1.000000
    4        4.483430   1.000000
    5        6.933309   1.000000
    6        7.583203   1.000000
    7        9.738485  -0.000000
    8        9.936723  -0.000000
    9       10.325288  -0.000000
   10       14.330112   0.000000

  0.2000000E+00  0.6666667E-01  0.6666667E-01  0.7111111E-02
    1       -4.634837   1.000000
    2        1.900766   1.000000
    3        3.768271   1.000000
    4        4.248435   1.000000
    5        6.573810   1.000000
    6        7.469538   1.000000
    7        9.479142  -0.001845
    8       10.218400  -0.000000
    9       10.841537  -0.000000
   10       14.333568   0.000000

  0.2666667E+00  0.6666667E-01  0.6666667E-01  0.7111111E-02
    1       -4.031614   1.000000
    2        1.036979   1.000000
    3        3.541461   1.000000
    4        4.054329   1.000000
    5        6.084429   1.000000
    6        7.457442   1.000000
    7        9.356374  -0.034863
    8       10.678439  -0.000000
    9       11.304020  -0.000000
   10       14.472296   0.000000

  0.3333333E+00  0.6666667E-01  0.6666667E-01  0.7111111E-02
    1       -3.320421   1.000000
    2        0.141480   1.000000
    3        3.368595   1.000000
    4        3.836998   1.000000
    5        5.653533   1.000000
    6        7.477517   1.000000
    7        9.380808  -0.031424
    8       11.166638  -0.000000
    9       11.603833  -0.000000
   10       14.938521   0.000000

  0.4000000E+00  0.6666667E-01  0.6666667E-01  0.7111111E-02
    1       -2.526882   1.000000
    2       -0.759826   1.000000
    3        3.282419   1.000000
    4        3.643029   1.000000
    5        5.378920   1.000000
    6        7.482937   1.000000
    7        9.479108  -0.001848
    8       11.159414  -0.000000
    9       12.292001   0.000000
   10       14.992974   0.000000

  0.4666667E+00  0.6666667E-01  0.6666667E-01  0.3555556E-02
    1       -1.780705   1.000000
    2       -1.541304   1.000000
    3        3.263869   1.000000
    4        3.559652   1.000000
    5        5.286545   1.000000
    6        7.480830   1.000000
    7        9.531850  -0.000145
    8       11.120214  -0.000000
    9       12.669247   0.000000
   10       14.926547   0.000000

  0.1333333E+00  0.1333333E+00  0.6666667E-01  0.3555556E-02
    1       -4.711479   1.000000
    2        2.109259   1.000000
    3        3.604477   1.000000
    4        4.338814   1.000000
    5        6.895675   1.000000
    6        7.207363   1.000000
    7        9.337733  -0.022764
    8       10.329556  -0.000000
    9       10.874757  -0.000000
   10       14.526201   0.000000

  0.2000000E+00  0.1333333E+00  0.6666667E-01  0.7111111E-02
    1       -4.175613   1.000000
    2        1.415505   1.000000
    3        3.258552   1.000000
    4        4.097861   1.000000
    5        6.624865   1.000000
    6        7.090945   1.000000
    7        8.992370   1.001294
    8       10.800960  -0.000000
    9       11.661224  -0.000000
   10       14.265194   0.000000

  0.2666667E+00  0.1333333E+00  0.6666667E-01  0.7111111E-02
    1       -3.519789   1.000000
    2        0.633952   1.000000
    3        2.985789   1.000000
    4        3.799484   1.000000
    5        6.169927   1.000000
    6        7.208539   1.000000
    7        8.881673   1.000003
    8       11.387672  -0.000000
    9       12.125001   0.000000
   10       14.462621   0.000000

  0.3333333E+00  0.1333333E+00  0.6666667E-01  0.7111111E-02
    1       -2.767109   1.000000
    2       -0.207151   1.000000
    3        2.797675   1.000000
    4        3.554023   1.000000
    5        5.816892   1.000000
    6        7.241822   1.000000
    7        9.012250   1.002967
    8       11.824531  -0.000000
    9       12.340982   0.000000
   10       14.941092   0.000000

  0.4000000E+00  0.1333333E+00  0.6666667E-01  0.7111111E-02
    1       -1.946049   1.000000
    2       -1.074374   1.000000
    3        2.699144   1.000000
    4        3.424044   1.000000
    5        5.628041   1.000000
    6        7.219196   1.000000
    7        9.187120   0.884830
    8       11.895156  -0.000000
    9       12.610899   0.000000
   10       15.173682   0.000000

  0.2000000E+00  0.2000000E+00  0.6666667E-01  0.3555556E-02
    1       -3.586212   1.000000
    2        0.889011   1.000000
    3        2.704360   1.000000
    4        3.866178   1.000000
    5        6.308012   1.000000
    6        7.212406   1.000000
    7        8.583957   1.000000
    8       11.424991  -0.000000
    9       12.590641   0.000000
   10       14.101477   0.000000

  0.2666667E+00  0.2000000E+00  0.6666667E-01  0.7111111E-02
    1       -2.887109   1.000000
    2        0.272133   1.000000
    3        2.207534   1.000000
    4        3.711552   1.000000
    5        5.827668   1.000000
    6        7.484716   1.000000
    7        8.447447   1.000000
    8       11.896082  -0.000000
    9       13.181517   0.000000
   10       14.360377   0.000000

  0.3333333E+00  0.2000000E+00  0.6666667E-01  0.7111111E-02
    1       -2.105966   1.000000
    2       -0.464283   1.000000
    3        1.885341   1.000000
    4        3.652625   1.000000
    5        5.473629   1.000000
    6        7.491362   1.000000
    7        8.677046   1.000000
    8       12.052718   0.000000
    9       13.311237   0.000000
   10       14.985433   0.000000

  0.4000000E+00  0.2000000E+00  0.6666667E-01  0.3555556E-02
    1       -1.308302   1.000000
    2       -1.251673   1.000000
    3        1.777905   1.000000
    4        3.643275   1.000000
    5        5.342021   1.000000
    6        7.453774   1.000000
    7        8.837053   1.000000
    8       12.046248   0.000000
    9       13.330818   0.000000
   10       15.282231   0.000000

  0.2666667E+00  0.2666667E+00  0.6666667E-01  0.3555556E-02
    1       -2.160184   1.000000
    2       -0.106766   1.000000
    3        1.456941   1.000000
    4        3.783868   1.000000
    5        5.300424   1.000000
    6        7.986309   1.000000
    7        8.152445   1.000000
    8       11.999150   0.000000
    9       14.234995   0.000000
   10       14.324099   0.000000

  0.3333333E+00  0.2666667E+00  0.6666667E-01  0.7111111E-02
    1       -1.392569   1.000000
    2       -0.636604   1.000000
    3        1.003926   1.000000
    4        3.930759   1.000000
    5        4.899475   1.000000
    6        7.937747   1.000000
    7        8.435133   1.000000
    8       11.857461  -0.000000
    9       14.282570   0.000000
   10       15.021148   0.000000

  0.3333333E+00  0.3333333E+00  0.6666667E-01  0.1185185E-02
    1       -0.835245   1.000000
    2       -0.835242   1.000000
    3        0.527960   1.000000
    4        4.357682   1.000000
    5        4.357684   1.000000
    6        8.248153   1.000000
    7        8.248154   1.000000
    8       11.708439  -0.000000
    9       14.873869   0.000000
   10       14.873869   0.000000

  0.3742002E-15  0.3742002E-15  0.1333333E+00  0.5925926E-03
    1       -5.502297   1.000000
    2        4.063670   1.000000
    3        4.063672   1.000000
    4        4.287777   1.000000
    5        7.428329   1.000000
    6        7.428331   1.000000
    7        8.398686   1.000000
    8       10.809380  -0.000000
    9       10.809383  -0.000000
   10       13.271974   0.000000

  0.6666667E-01  0.3766815E-15  0.1333333E+00  0.3555556E-02
    1       -5.421600   1.000000
    2        3.824404   1.000000
    3        4.076364   1.000000
    4        4.229619   1.000000
    5        7.199915   1.000000
    6        7.386300   1.000000
    7        8.790165   1.000000
    8       10.634859  -0.000000
    9       10.729165  -0.000000
   10       13.548256   0.000000

  0.1333333E+00  0.3754153E-15  0.1333333E+00  0.3555556E-02
    1       -5.183113   1.000000
    2        3.185301   1.000000
    3        4.093132   1.000000
    4        4.097668   1.000000
    5        6.847217   1.000000
    6        7.319262   1.000000
    7        9.437668  -0.008579
    8       10.413499  -0.000000
    9       10.545038  -0.000000
   10       14.061007   0.000000

  0.2000000E+00  0.3870416E-15  0.1333333E+00  0.3555556E-02
    1       -4.797410   1.000000
    2        2.341557   1.000000
    3        3.921716   1.000000
    4        4.067266   1.000000
    5        6.432616   1.000000
    6        7.345104   1.000000
    7        9.802748  -0.000000
    8       10.331317  -0.000000
    9       10.689275  -0.000000
   10       13.942277   0.000000

  0.2666667E+00  0.4120044E-15  0.1333333E+00  0.3555556E-02
    1       -4.280531   1.000000
    2        1.425417   1.000000
    3        3.742901   1.000000
    4        3.974505   1.000000
    5        5.929566   1.000000
    6        7.530354   1.000000
    7       10.123312  -0.000000
    8       10.136877  -0.000000
    9       11.082134  -0.000000
   10       13.986341   0.000000

  0.3333333E+00  0.4025434E-15  0.1333333E+00  0.3555556E-02
    1       -3.652112   1.000000
    2        0.498422   1.000000
    3        3.598865   1.000000
    4        3.842069   1.000000
    5        5.423075   1.000000
    6        7.838169   1.000000
    7        9.939602  -0.000000
    8       10.522009  -0.000000
    9       11.326273  -0.000000
   10       14.440721   0.000000

  0.4000000E+00  0.3732510E-15  0.1333333E+00  0.3555556E-02
    1       -2.933178   1.000000
    2       -0.413012   1.000000
    3        3.508292   1.000000
    4        3.720607   1.000000
    5        5.019797   1.000000
    6        8.161029   1.000000
    7        9.795391  -0.000000
    8       10.508503  -0.000000
    9       12.010637   0.000000
   10       14.690500   0.000000

  0.4666667E+00  0.3915456E-15  0.1333333E+00  0.3555556E-02
    1       -2.145373   1.000000
    2       -1.294025   1.000000
    3        3.468973   1.000000
    4        3.650068   1.000000
    5        4.796418   1.000000
    6        8.371512   1.000000
    7        9.710569  -0.000000
    8       10.391451  -0.000000
    9       12.864637   0.000000
   10       14.282741   0.000000

  0.6666667E-01  0.6666667E-01  0.1333333E+00  0.3555556E-02
    1       -5.261986   1.000000
    2        3.438666   1.000000
    3        3.883110   1.000000
    4        4.293023   1.000000
    5        7.010830   1.000000
    6        7.246318   1.000000
    7        9.314424   0.025230
    8       10.376487  -0.000000
    9       10.642189  -0.000000
   10       14.045969   0.000000

  0.1333333E+00  0.6666667E-01  0.1333333E+00  0.7111111E-02
    1       -4.949746   1.000000
    2        2.744652   1.000000
    3        3.629542   1.000000
    4        4.349931   1.000000
    5        6.728096   1.000000
    6        7.120495   1.000000
    7        9.863291  -0.000000
    8       10.200279  -0.000000
    9       10.647333  -0.000000
   10       14.275863   0.000000

  0.2000000E+00  0.6666667E-01  0.1333333E+00  0.7111111E-02
    1       -4.498005   1.000000
    2        1.888826   1.000000
    3        3.428886   1.000000
    4        4.279119   1.000000
    5        6.258111   1.000000
    6        7.239006   1.000000
    7        9.886096  -0.000000
    8       10.373038  -0.000000
    9       11.034359  -0.000000
   10       14.033248   0.000000

  0.2666667E+00  0.6666667E-01  0.1333333E+00  0.7111111E-02
    1       -3.924616   1.000000
    2        0.983938   1.000000
    3        3.288909   1.000000
    4        4.087925   1.000000
    5        5.744113   1.000000
    6        7.528531   1.000000
    7        9.812230  -0.000000
    8       10.689611  -0.000000
    9       11.349746  -0.000000
   10       14.173636   0.000000

  0.3333333E+00  0.6666667E-01  0.1333333E+00  0.7111111E-02
    1       -3.250116   1.000000
    2        0.076347   1.000000
    3        3.224111   1.000000
    4        3.843119   1.000000
    5        5.302930   1.000000
    6        7.881755   1.000000
    7        9.706640  -0.000000
    8       10.883589  -0.000000
    9       11.748566  -0.000000
   10       14.587069   0.000000

  0.4000000E+00  0.6666667E-01  0.1333333E+00  0.7111111E-02
    1       -2.496178   1.000000
    2       -0.813017   1.000000
    3        3.237509   1.000000
    4        3.615382   1.000000
    5        5.012868   1.000000
    6        8.166630   1.000000
    7        9.624857  -0.000000
    8       10.787452  -0.000000
    9       12.513551   0.000000
   10       14.542075   0.000000

  0.4666667E+00  0.6666667E-01  0.1333333E+00  0.3555556E-02
    1       -1.748741   1.000000
    2       -1.604596   1.000000
    3        3.279317   1.000000
    4        3.497493   1.000000
    5        4.912705   1.000000
    6        8.274856   1.000000
    7        9.595766  -0.000003
    8       10.730781  -0.000000
    9       13.025722   0.000000
   10       14.250906   0.000000

  0.1333333E+00  0.1333333E+00  0.1333333E+00  0.3555556E-02
    1       -4.571118   1.000000
    2        2.163081   1.000000
    3        3.157788   1.000000
    4        4.431858   1.000000
    5        6.586635   1.000000
    6        6.879305   1.000000
    7        9.835924  -0.000000
    8       10.469726  -0.000000
    9       11.038697  -0.000000
   10       14.267537   0.000000

  0.2000000E+00  0.1333333E+00  0.1333333E+00  0.7111111E-02
    1       -4.061949   1.000000
    2        1.421969   1.000000
    3        2.838676   1.000000
    4        4.293260   1.000000
    5        6.080190   1.000000
    6        7.135993   1.000000
    7        9.619461  -0.000001
    8       10.919554  -0.000000
    9       11.612933  -0.000000
   10       14.000952   0.000000

  0.2666667E+00  0.1333333E+00  0.1333333E+00  0.7111111E-02
    1       -3.441123   1.000000
    2        0.594860   1.000000
    3        2.659314   1.000000
    4        4.030449   1.000000
    5        5.590567   1.000000
    6        7.543478   1.000000
    7        9.453594  -0.005005
    8       11.402342  -0.000000
    9       11.946758  -0.000000
   10       14.173966   0.000000

  0.3333333E+00  0.1333333E+00  0.1333333E+00  0.7111111E-02
    1       -2.730698   1.000000
    2       -0.258793   1.000000
    3        2.577210   1.000000
    4        3.772967   1.000000
    5        5.222848   1.000000
    6        7.924434   1.000000
    7        9.358003  -0.035150
    8       11.561980  -0.000000
    9       12.377256   0.000000
   10       14.505448   0.000000

  0.4000000E+00  0.1333333E+00  0.1333333E+00  0.7111111E-02
    1       -1.959848   1.000000
    2       -1.101301   1.000000
    3        2.552981   1.000000
    4        3.616227   1.000000
    5        5.027461   1.000000
    6        8.135720   1.000000
    7        9.342876  -0.027971
    8       11.506370  -0.000000
    9       12.869758   0.000000
   10       14.522033   0.000000

  0.2000000E+00  0.2000000E+00  0.1333333E+00  0.3555556E-02
    1       -3.504832   1.000000
    2        0.887939   1.000000
    3        2.332574   1.000000
    4        4.117861   1.000000
    5        5.699378   1.000000
    6        7.401341   1.000000
    7        9.327072  -0.006246
    8       11.508401  -0.000000
    9       12.336020   0.000000
   10       13.840209   0.000000

  0.2666667E+00  0.2000000E+00  0.1333333E+00  0.7111111E-02
    1       -2.847616   1.000000
    2        0.236267   1.000000
    3        1.987789   1.000000
    4        3.919460   1.000000
    5        5.274581   1.000000
    6        7.843143   1.000000
    7        9.101198   1.032246
    8       11.952542  -0.000000
    9       12.828741   0.000000
   10       14.041921   0.000000
