   23   23    1    1
  0.8438671E+01  0.6042588E-09  0.6042559E-09  0.6137857E-09  0.5000000E-15
   1.0000000000000000E-004
  CAR 
 Name                                    
     86    365     56

  0.3742002E-15  0.3742002E-15  0.3742002E-15  0.1371742E-02
    1       -6.106970   1.000000
    2       -3.846244   1.000000
    3       -2.710870   1.000000
    4       -2.528553   1.000000
    5       -2.189830   1.000000
    6       -2.169874   1.000000
    7       -2.028490   1.000000
    8       -1.948716   1.000000
    9       -1.765211   1.000000
   10       -1.661026   1.000000
   11       -1.568318   1.000000
   12       -0.231013   1.000000
   13       -0.019282   1.000000
   14        0.208092   1.000000
   15        0.523602   1.000000
   16        2.231173   1.000000
   17        2.266653   1.000000
   18        2.623409   1.000000
   19        2.773297   1.000000
   20        2.784571   1.000000
   21        3.289665   1.000000
   22        3.836500   1.000000
   23        3.885108   1.000000
   24        4.045149   1.000000
   25        4.160037   1.000000
   26        4.258541   1.000000
   27        4.349556   1.000000
   28        4.377191   1.000000
   29        4.395277   1.000000
   30        4.582339   1.000000
   31        4.695938   1.000000
   32        4.766173   1.000000
   33        4.853758   1.000000
   34        4.888297   1.000000
   35        5.117672   1.000000
   36        5.564271   1.000000
   37        6.044764   1.000000
   38        6.588920   1.000000
   39        6.726156   1.000000
   40        7.101490   1.000000
   41        7.140821   1.000000
   42        7.453416   1.000000
   43        7.635962   1.000000
   44        8.100018   1.032528
   45        8.254031   0.163222
   46        8.377369  -0.019620
   47        9.045194  -0.000000
   48        9.285899  -0.000000
   49        9.352025  -0.000000
   50        9.382654  -0.000000
   51        9.518395  -0.000000
   52       11.445801   0.000000
   53       11.468511   0.000000
   54       12.026877   0.000000
   55       13.054040   0.000000
   56       13.284942   0.000000

  0.1111111E+00  0.3821763E-15  0.3742003E-15  0.2743484E-02
    1       -6.048368   1.000000
    2       -3.824119   1.000000
    3       -2.745401   1.000000
    4       -2.731104   1.000000
    5       -2.552837   1.000000
    6       -2.366156   1.000000
    7       -2.134014   1.000000
    8       -2.065931   1.000000
    9       -1.502819   1.000000
   10       -1.379576   1.000000
   11       -0.974808   1.000000
   12       -0.153449   1.000000
   13        0.092525   1.000000
   14        0.187495   1.000000
   15        0.588489   1.000000
   16        2.255143   1.000000
   17        2.285068   1.000000
   18        2.642380   1.000000
   19        2.726965   1.000000
   20        2.800942   1.000000
   21        3.170460   1.000000
   22        3.582657   1.000000
   23        3.795581   1.000000
   24        3.868167   1.000000
   25        3.997842   1.000000
   26        4.156099   1.000000
   27        4.330010   1.000000
   28        4.346906   1.000000
   29        4.387391   1.000000
   30        4.465907   1.000000
   31        4.602339   1.000000
   32        4.816157   1.000000
   33        4.921686   1.000000
   34        5.260533   1.000000
   35        5.416154   1.000000
   36        5.712194   1.000000
   37        5.829547   1.000000
   38        6.141063   1.000000
   39        6.225832   1.000000
   40        7.437250   1.000000
   41        7.593172   1.000000
   42        7.616188   1.000000
   43        7.696912   1.000000
   44        7.985230   1.003341
   45        8.250258   0.186721
   46        8.411110  -0.007662
   47        9.055017  -0.000000
   48        9.266918  -0.000000
   49        9.328272  -0.000000
   50        9.401822  -0.000000
   51        9.788247  -0.000000
   52       10.869303  -0.000000
   53       11.136143   0.000000
   54       11.555906   0.000000
   55       12.031266   0.000000
   56       13.460842   0.000000

  0.2222222E+00  0.3663047E-15  0.3742005E-15  0.2743484E-02
    1       -5.874580   1.000000
    2       -3.757340   1.000000
    3       -3.437069   1.000000
    4       -2.834624   1.000000
    5       -2.611804   1.000000
    6       -2.601852   1.000000
    7       -2.416732   1.000000
    8       -2.095013   1.000000
    9       -0.986018   1.000000
   10       -0.893080   1.000000
   11       -0.176486   1.000000
   12        0.061148   1.000000
   13        0.078967   1.000000
   14        0.319116   1.000000
   15        0.896888   1.000000
   16        2.288534   1.000000
   17        2.330534   1.000000
   18        2.512971   1.000000
   19        2.638043   1.000000
   20        2.731111   1.000000
   21        2.839609   1.000000
   22        3.078980   1.000000
   23        3.371136   1.000000
   24        3.762414   1.000000
   25        3.955894   1.000000
   26        4.151755   1.000000
   27        4.242222   1.000000
   28        4.243755   1.000000
   29        4.287052   1.000000
   30        4.340706   1.000000
   31        4.620858   1.000000
   32        4.737243   1.000000
   33        5.090171   1.000000
   34        5.133777   1.000000
   35        5.436061   1.000000
   36        5.808673   1.000000
   37        5.869330   1.000000
   38        6.009945   1.000000
   39        6.169524   1.000000
   40        7.241291   1.000000
   41        7.598127   1.000000
   42        7.663799   1.000000
   43        7.990344   1.004057
   44        8.222994   0.389426
   45        8.494424  -0.000215
   46        8.678151  -0.000000
   47        9.079171  -0.000000
   48        9.106911  -0.000000
   49        9.126413  -0.000000
   50        9.187993  -0.000000
   51        9.307568  -0.000000
   52        9.727715  -0.000000
   53       10.306975  -0.000000
   54       10.322224  -0.000000
   55       10.397058  -0.000000
   56       11.622001   0.000000

  0.3333333E+00  0.3783519E-15  0.3742005E-15  0.2743484E-02
    1       -5.592940   1.000000
    2       -4.079279   1.000000
    3       -3.645646   1.000000
    4       -3.039404   1.000000
    5       -2.789476   1.000000
    6       -2.623441   1.000000
    7       -2.597932   1.000000
    8       -2.068070   1.000000
    9       -0.452814   1.000000
   10       -0.337324   1.000000
   11       -0.057911   1.000000
   12        0.416366   1.000000
   13        0.432185   1.000000
   14        0.671623   1.000000
   15        1.478217   1.000000
   16        2.020046   1.000000
   17        2.079641   1.000000
   18        2.232778   1.000000
   19        2.271011   1.000000
   20        2.387918   1.000000
   21        2.878490   1.000000
   22        2.944129   1.000000
   23        3.251754   1.000000
   24        3.457018   1.000000
   25        3.857389   1.000000
   26        4.041268   1.000000
   27        4.072494   1.000000
   28        4.160197   1.000000
   29        4.208936   1.000000
   30        4.300388   1.000000
   31        4.364384   1.000000
   32        4.621717   1.000000
   33        4.900454   1.000000
   34        5.251250   1.000000
   35        5.515331   1.000000
   36        5.598822   1.000000
   37        5.805835   1.000000
   38        6.477761   1.000000
   39        6.542164   1.000000
   40        7.132562   1.000000
   41        7.197787   1.000000
   42        7.804021   1.000000
   43        7.961290   1.001237
   44        8.237337   0.276488
   45        8.702661  -0.000000
   46        8.763901  -0.000000
   47        9.041702  -0.000000
   48        9.122484  -0.000000
   49        9.125310  -0.000000
   50        9.202959  -0.000000
   51        9.291117  -0.000000
   52        9.553238  -0.000000
   53        9.885369  -0.000000
   54        9.945780  -0.000000
   55       10.372256  -0.000000
   56       11.437693   0.000000

  0.4444444E+00  0.3729621E-15  0.3742006E-15  0.2743484E-02
    1       -5.234343   1.000000
    2       -4.621060   1.000000
    3       -3.496716   1.000000
    4       -3.256441   1.000000
    5       -2.880479   1.000000
    6       -2.687322   1.000000
    7       -2.629137   1.000000
    8       -2.033679   1.000000
    9       -0.140563   1.000000
   10       -0.011531   1.000000
   11        0.171679   1.000000
   12        0.492536   1.000000
   13        0.860820   1.000000
   14        1.372855   1.000000
   15        1.516287   1.000000
   16        1.578109   1.000000
   17        1.711341   1.000000
   18        2.099948   1.000000
   19        2.274396   1.000000
   20        2.332164   1.000000
   21        2.480325   1.000000
   22        3.106851   1.000000
   23        3.218854   1.000000
   24        3.272684   1.000000
   25        3.481169   1.000000
   26        3.747334   1.000000
   27        3.889032   1.000000
   28        4.146003   1.000000
   29        4.169197   1.000000
   30        4.281569   1.000000
   31        4.435884   1.000000
   32        4.504852   1.000000
   33        5.145404   1.000000
   34        5.336151   1.000000
   35        5.432639   1.000000
   36        5.436572   1.000000
   37        5.970171   1.000000
   38        6.456126   1.000000
   39        6.741052   1.000000
   40        6.860253   1.000000
   41        7.606881   1.000000
   42        7.857074   1.000004
   43        7.976521   1.002365
   44        8.241194   0.248296
   45        8.271923   0.070694
   46        8.319835  -0.032651
   47        8.982607  -0.000000
   48        9.160643  -0.000000
   49        9.350994  -0.000000
   50        9.467862  -0.000000
   51        9.495638  -0.000000
   52        9.620771  -0.000000
   53        9.691892  -0.000000
   54        9.704695  -0.000000
   55       10.117216  -0.000000
   56       10.453808  -0.000000

  0.3742004E-15  0.1111111E+00  0.3742003E-15  0.2743484E-02
    1       -6.048367   1.000000
    2       -3.824120   1.000000
    3       -2.745368   1.000000
    4       -2.731111   1.000000
    5       -2.552823   1.000000
    6       -2.366185   1.000000
    7       -2.134036   1.000000
    8       -2.065935   1.000000
    9       -1.502837   1.000000
   10       -1.379584   1.000000
   11       -0.974766   1.000000
   12       -0.153446   1.000000
   13        0.092490   1.000000
   14        0.187492   1.000000
   15        0.588526   1.000000
   16        2.255154   1.000000
   17        2.285071   1.000000
   18        2.642368   1.000000
   19        2.726909   1.000000
   20        2.801003   1.000000
   21        3.170457   1.000000
   22        3.582754   1.000000
   23        3.795536   1.000000
   24        3.868168   1.000000
   25        3.997896   1.000000
   26        4.156130   1.000000
   27        4.329858   1.000000
   28        4.346913   1.000000
   29        4.387388   1.000000
   30        4.465954   1.000000
   31        4.602278   1.000000
   32        4.816145   1.000000
   33        4.921659   1.000000
   34        5.260568   1.000000
   35        5.416156   1.000000
   36        5.712204   1.000000
   37        5.829574   1.000000
   38        6.141093   1.000000
   39        6.225784   1.000000
   40        7.437343   1.000000
   41        7.593086   1.000000
   42        7.616331   1.000000
   43        7.696753   1.000000
   44        7.985204   1.003338
   45        8.250271   0.186640
   46        8.411115  -0.007661
   47        9.054345  -0.000000
   48        9.257722  -0.000000
   49        9.348605  -0.000000
   50        9.407059  -0.000000
   51        9.654977  -0.000000
   52       10.077949  -0.000000
   53       10.589717  -0.000000
   54       11.149756   0.000000
   55       11.569197   0.000000
   56       12.025119   0.000000

  0.1111111E+00  0.1111111E+00  0.3742004E-15  0.2743484E-02
    1       -5.932909   1.000000
    2       -3.774165   1.000000
    3       -3.145977   1.000000
    4       -2.899323   1.000000
    5       -2.794528   1.000000
    6       -2.610862   1.000000
    7       -2.078862   1.000000
    8       -1.837538   1.000000
    9       -1.640749   1.000000
   10       -0.738213   1.000000
   11       -0.445853   1.000000
   12       -0.005298   1.000000
   13       -0.001205   1.000000
   14        0.428207   1.000000
   15        0.734302   1.000000
   16        2.282176   1.000000
   17        2.284193   1.000000
   18        2.609195   1.000000
   19        2.658351   1.000000
   20        2.734923   1.000000
   21        2.976076   1.000000
   22        3.364524   1.000000
   23        3.554371   1.000000
   24        3.655236   1.000000
   25        3.919256   1.000000
   26        4.003569   1.000000
   27        4.164479   1.000000
   28        4.278392   1.000000
   29        4.309015   1.000000
   30        4.565892   1.000000
   31        4.618527   1.000000
   32        4.661778   1.000000
   33        5.071340   1.000000
   34        5.362010   1.000000
   35        5.450915   1.000000
   36        5.826712   1.000000
   37        5.842661   1.000000
   38        5.984287   1.000000
   39        6.064114   1.000000
   40        7.324045   1.000000
   41        7.605571   1.000000
   42        7.727211   1.000000
   43        8.002757   1.006325
   44        8.144664   0.941742
   45        8.232718   0.311604
   46        8.638762  -0.000000
   47        9.073280  -0.000000
   48        9.134752  -0.000000
   49        9.220020  -0.000000
   50        9.327397  -0.000000
   51        9.421203  -0.000000
   52        9.794714  -0.000000
   53       10.049977  -0.000000
   54       10.473674  -0.000000
   55       10.598037  -0.000000
   56       11.895407   0.000000

  0.2222222E+00  0.1111111E+00  0.3742005E-15  0.2743484E-02
    1       -5.705308   1.000000
    2       -3.738522   1.000000
    3       -3.679640   1.000000
    4       -3.221893   1.000000
    5       -2.955587   1.000000
    6       -2.677263   1.000000
    7       -2.019274   1.000000
    8       -1.953391   1.000000
    9       -1.178632   1.000000
   10       -0.209665   1.000000
   11       -0.148705   1.000000
   12        0.236891   1.000000
   13        0.346052   1.000000
   14        0.717640   1.000000
   15        1.128992   1.000000
   16        2.002570   1.000000
   17        2.247972   1.000000
   18        2.337137   1.000000
   19        2.352981   1.000000
   20        2.796141   1.000000
   21        2.894035   1.000000
   22        2.961311   1.000000
   23        3.367849   1.000000
   24        3.434716   1.000000
   25        3.849714   1.000000
   26        4.016543   1.000000
   27        4.082263   1.000000
   28        4.121340   1.000000
   29        4.172771   1.000000
   30        4.241128   1.000000
   31        4.603903   1.000000
   32        4.788858   1.000000
   33        4.791242   1.000000
   34        5.244782   1.000000
   35        5.594531   1.000000
   36        5.704135   1.000000
   37        5.780695   1.000000
   38        6.140846   1.000000
   39        6.663231   1.000000
   40        7.060578   1.000000
   41        7.293453   1.000000
   42        7.773969   1.000000
   43        7.976544   1.002367
   44        8.304223  -0.018326
   45        8.690540  -0.000000
   46        8.936043  -0.000000
   47        8.955281  -0.000000
   48        9.076104  -0.000000
   49        9.136393  -0.000000
   50        9.216408  -0.000000
   51        9.422353  -0.000000
   52        9.658354  -0.000000
   53       10.006679  -0.000000
   54       10.105444  -0.000000
   55       10.196461  -0.000000
   56       10.539520  -0.000000

  0.3333333E+00  0.1111111E+00  0.3742006E-15  0.2743484E-02
    1       -5.378261   1.000000
    2       -4.330266   1.000000
    3       -3.541930   1.000000
    4       -3.376999   1.000000
    5       -3.173019   1.000000
    6       -2.712579   1.000000
    7       -2.076316   1.000000
    8       -1.927516   1.000000
    9       -0.601952   1.000000
   10       -0.376137   1.000000
   11        0.361971   1.000000
   12        0.685524   1.000000
   13        0.819341   1.000000
   14        1.078920   1.000000
   15        1.309280   1.000000
   16        1.807545   1.000000
   17        1.860783   1.000000
   18        2.181195   1.000000
   19        2.354091   1.000000
   20        2.429568   1.000000
   21        2.593603   1.000000
   22        2.965696   1.000000
   23        3.139915   1.000000
   24        3.447519   1.000000
   25        3.574354   1.000000
   26        3.889164   1.000000
   27        3.912187   1.000000
   28        3.967298   1.000000
   29        4.101000   1.000000
   30        4.148211   1.000000
   31        4.512418   1.000000
   32        4.613712   1.000000
   33        4.990151   1.000000
   34        5.419591   1.000000
   35        5.503371   1.000000
   36        5.565576   1.000000
   37        5.894671   1.000000
   38        6.381133   1.000000
   39        6.748199   1.000000
   40        6.817951   1.000000
   41        7.405495   1.000000
   42        7.886517   1.000024
   43        7.969659   1.001778
   44        8.314669  -0.029468
   45        8.530397  -0.000028
   46        8.588525  -0.000001
   47        8.955628  -0.000000
   48        9.150389  -0.000000
   49        9.157061  -0.000000
   50        9.344649  -0.000000
   51        9.381780  -0.000000
   52        9.635063  -0.000000
   53        9.732081  -0.000000
   54        9.740594  -0.000000
   55       10.185017  -0.000000
   56       10.415204  -0.000000

  0.4444444E+00  0.1111111E+00  0.3742011E-15  0.2743484E-02
    1       -5.078097   1.000000
    2       -4.722202   1.000000
    3       -3.432395   1.000000
    4       -3.426574   1.000000
    5       -3.309155   1.000000
    6       -2.726736   1.000000
    7       -2.117949   1.000000
    8       -1.884896   1.000000
    9       -0.436056   1.000000
   10       -0.245733   1.000000
   11        0.626178   1.000000
   12        0.834061   1.000000
   13        0.856892   1.000000
   14        1.056269   1.000000
   15        1.446737   1.000000
   16        1.727697   1.000000
   17        2.066550   1.000000
   18        2.101094   1.000000
   19        2.126082   1.000000
   20        2.443969   1.000000
   21        2.610315   1.000000
   22        2.695306   1.000000
   23        2.860602   1.000000
   24        3.404767   1.000000
   25        3.550442   1.000000
   26        3.739182   1.000000
   27        3.818612   1.000000
   28        3.955341   1.000000
   29        4.107071   1.000000
   30        4.222843   1.000000
   31        4.503999   1.000000
   32        4.592395   1.000000
   33        5.243391   1.000000
   34        5.373690   1.000000
   35        5.378590   1.000000
   36        5.506092   1.000000
   37        6.009805   1.000000
   38        6.359856   1.000000
   39        6.568826   1.000000
   40        6.807978   1.000000
   41        7.846937   1.000002
   42        7.863707   1.000006
   43        8.119794   1.011411
   44        8.209212   0.504993
   45        8.271161   0.073981
   46        8.306154  -0.020915
   47        8.936532  -0.000000
   48        9.168971  -0.000000
   49        9.301164  -0.000000
   50        9.334113  -0.000000
   51        9.360933  -0.000000
   52        9.490031  -0.000000
   53        9.639393  -0.000000
   54        9.892206  -0.000000
   55       10.090803  -0.000000
   56       10.606876  -0.000000

 -0.4444444E+00  0.1111111E+00  0.3741998E-15  0.2743484E-02
    1       -5.372762   1.000000
    2       -4.339074   1.000000
    3       -3.579577   1.000000
    4       -3.375603   1.000000
    5       -3.116441   1.000000
    6       -2.722915   1.000000
    7       -2.074925   1.000000
    8       -1.931837   1.000000
    9       -0.594531   1.000000
   10       -0.354392   1.000000
   11        0.351797   1.000000
   12        0.700096   1.000000
   13        0.760648   1.000000
   14        1.039824   1.000000
   15        1.331993   1.000000
   16        1.757695   1.000000
   17        1.855170   1.000000
   18        2.299171   1.000000
   19        2.378044   1.000000
   20        2.457827   1.000000
   21        2.553249   1.000000
   22        2.949802   1.000000
   23        3.035993   1.000000
   24        3.412483   1.000000
   25        3.565034   1.000000
   26        3.897813   1.000000
   27        3.931594   1.000000
   28        4.021858   1.000000
   29        4.149929   1.000000
   30        4.211992   1.000000
   31        4.578031   1.000000
   32        4.597138   1.000000
   33        5.056111   1.000000
   34        5.386459   1.000000
   35        5.425567   1.000000
   36        5.574475   1.000000
   37        5.804752   1.000000
   38        6.292177   1.000000
   39        6.764298   1.000000
   40        6.842974   1.000000
   41        7.401146   1.000000
   42        7.954041   1.000892
   43        7.996489   1.005079
   44        8.296121  -0.004493
   45        8.530726  -0.000028
   46        8.568046  -0.000002
   47        8.978982  -0.000000
   48        9.135079  -0.000000
   49        9.147104  -0.000000
   50        9.269200  -0.000000
   51        9.349158  -0.000000
   52        9.522103  -0.000000
   53        9.629192  -0.000000
   54        9.719559  -0.000000
   55        9.789291  -0.000000
   56       10.293401  -0.000000

 -0.3333333E+00  0.1111111E+00  0.3741998E-15  0.2743484E-02
    1       -5.701125   1.000000
    2       -3.749891   1.000000
    3       -3.708106   1.000000
    4       -3.218687   1.000000
    5       -2.897620   1.000000
    6       -2.688261   1.000000
    7       -2.028139   1.000000
    8       -1.949672   1.000000
    9       -1.177061   1.000000
   10       -0.176997   1.000000
   11       -0.135856   1.000000
   12        0.228573   1.000000
   13        0.338657   1.000000
   14        0.608973   1.000000
   15        1.162570   1.000000
   16        1.987264   1.000000
   17        2.289625   1.000000
   18        2.370810   1.000000
   19        2.411300   1.000000
   20        2.660362   1.000000
   21        2.775631   1.000000
   22        3.026281   1.000000
   23        3.296062   1.000000
   24        3.477212   1.000000
   25        3.832389   1.000000
   26        4.020149   1.000000
   27        4.076831   1.000000
   28        4.164689   1.000000
   29        4.282641   1.000000
   30        4.414230   1.000000
   31        4.604532   1.000000
   32        4.824738   1.000000
   33        4.852316   1.000000
   34        5.220492   1.000000
   35        5.602446   1.000000
   36        5.638647   1.000000
   37        5.665762   1.000000
   38        5.971404   1.000000
   39        6.669659   1.000000
   40        7.026638   1.000000
   41        7.287467   1.000000
   42        7.831571   1.000001
   43        8.087565   1.035457
   44        8.271381   0.073025
   45        8.683908  -0.000000
   46        8.909749  -0.000000
   47        8.977587  -0.000000
   48        9.079797  -0.000000
   49        9.110312  -0.000000
   50        9.208161  -0.000000
   51        9.454752  -0.000000
   52        9.566575  -0.000000
   53        9.991482  -0.000000
   54       10.082306  -0.000000
   55       10.252398  -0.000000
   56       10.405464  -0.000000

 -0.2222222E+00  0.1111111E+00  0.3742001E-15  0.2743484E-02
    1       -5.930353   1.000000
    2       -3.791715   1.000000
    3       -3.159456   1.000000
    4       -2.893179   1.000000
    5       -2.772864   1.000000
    6       -2.589557   1.000000
    7       -2.092114   1.000000
    8       -1.838314   1.000000
    9       -1.638807   1.000000
   10       -0.685633   1.000000
   11       -0.502039   1.000000
   12        0.003433   1.000000
   13        0.005524   1.000000
   14        0.380274   1.000000
   15        0.745485   1.000000
   16        2.297728   1.000000
   17        2.344014   1.000000
   18        2.622057   1.000000
   19        2.628493   1.000000
   20        2.749440   1.000000
   21        2.787679   1.000000
   22        3.252353   1.000000
   23        3.512673   1.000000
   24        3.824422   1.000000
   25        3.947324   1.000000
   26        3.965042   1.000000
   27        4.322618   1.000000
   28        4.334713   1.000000
   29        4.388826   1.000000
   30        4.569555   1.000000
   31        4.694369   1.000000
   32        4.706189   1.000000
   33        5.006148   1.000000
   34        5.419048   1.000000
   35        5.462513   1.000000
   36        5.618245   1.000000
   37        5.718530   1.000000
   38        5.901331   1.000000
   39        6.139154   1.000000
   40        7.201274   1.000000
   41        7.696914   1.000000
   42        7.724961   1.000000
   43        8.039284   1.018322
   44        8.120391   1.010364
   45        8.286211   0.019719
   46        8.630572  -0.000000
   47        9.069919  -0.000000
   48        9.170493  -0.000000
   49        9.221934  -0.000000
   50        9.285122  -0.000000
   51        9.434010  -0.000000
   52        9.706906  -0.000000
   53       10.333538  -0.000000
   54       10.540339  -0.000000
   55       10.969107   0.000000
   56       11.594951   0.000000

 -0.1111111E+00  0.1111111E+00  0.3742002E-15  0.2743484E-02
    1       -6.047509   1.000000
    2       -3.830051   1.000000
    3       -2.755721   1.000000
    4       -2.731105   1.000000
    5       -2.534800   1.000000
    6       -2.298596   1.000000
    7       -2.217350   1.000000
    8       -2.071822   1.000000
    9       -1.462045   1.000000
   10       -1.367090   1.000000
   11       -1.005341   1.000000
   12       -0.151059   1.000000
   13        0.024336   1.000000
   14        0.271858   1.000000
   15        0.561427   1.000000
   16        2.282754   1.000000
   17        2.285095   1.000000
   18        2.600140   1.000000
   19        2.733092   1.000000
   20        2.801613   1.000000
   21        3.177810   1.000000
   22        3.517803   1.000000
   23        3.593185   1.000000
   24        3.879014   1.000000
   25        4.124727   1.000000
   26        4.311762   1.000000
   27        4.379823   1.000000
   28        4.402534   1.000000
   29        4.440732   1.000000
   30        4.501493   1.000000
   31        4.693629   1.000000
   32        4.803366   1.000000
   33        4.854703   1.000000
   34        4.981750   1.000000
   35        5.439057   1.000000
   36        5.756169   1.000000
   37        5.902136   1.000000
   38        6.086877   1.000000
   39        6.178182   1.000000
   40        7.344223   1.000000
   41        7.603534   1.000000
   42        7.681574   1.000000
   43        7.703147   1.000000
   44        7.957759   1.001056
   45        8.330765  -0.035422
   46        8.370388  -0.022795
   47        9.053249  -0.000000
   48        9.248747  -0.000000
   49        9.325424  -0.000000
   50        9.407606  -0.000000
   51        9.525938  -0.000000
   52        9.721370  -0.000000
   53       10.414804  -0.000000
   54       10.945381   0.000000
   55       11.204799   0.000000
   56       11.536754   0.000000

  0.3742015E-15  0.2222222E+00  0.3742003E-15  0.2743484E-02
    1       -5.874577   1.000000
    2       -3.757342   1.000000
    3       -3.437042   1.000000
    4       -2.834639   1.000000
    5       -2.611835   1.000000
    6       -2.601816   1.000000
    7       -2.416762   1.000000
    8       -2.095025   1.000000
    9       -0.986039   1.000000
   10       -0.893090   1.000000
   11       -0.176440   1.000000
   12        0.061113   1.000000
   13        0.078991   1.000000
   14        0.319045   1.000000
   15        0.896990   1.000000
   16        2.288566   1.000000
   17        2.330551   1.000000
   18        2.512913   1.000000
   19        2.638081   1.000000
   20        2.731070   1.000000
   21        2.839717   1.000000
   22        3.078994   1.000000
   23        3.371151   1.000000
   24        3.762504   1.000000
   25        3.955898   1.000000
   26        4.151794   1.000000
   27        4.242240   1.000000
   28        4.243668   1.000000
   29        4.287049   1.000000
   30        4.340594   1.000000
   31        4.620817   1.000000
   32        4.737168   1.000000
   33        5.090088   1.000000
   34        5.133863   1.000000
   35        5.436102   1.000000
   36        5.808602   1.000000
   37        5.869325   1.000000
   38        6.009940   1.000000
   39        6.169576   1.000000
   40        7.241407   1.000000
   41        7.598081   1.000000
   42        7.663708   1.000000
   43        7.990421   1.004069
   44        8.222987   0.389487
   45        8.494317  -0.000216
   46        8.678169  -0.000000
   47        9.078750  -0.000000
   48        9.106565  -0.000000
   49        9.126160  -0.000000
   50        9.187816  -0.000000
   51        9.334281  -0.000000
   52        9.750805  -0.000000
   53        9.869422  -0.000000
   54       10.335359  -0.000000
   55       10.375903  -0.000000
   56       11.272398   0.000000

  0.1111111E+00  0.2222222E+00  0.3742004E-15  0.2743484E-02
    1       -5.705306   1.000000
    2       -3.738498   1.000000
    3       -3.679641   1.000000
    4       -3.221925   1.000000
    5       -2.955594   1.000000
    6       -2.677245   1.000000
    7       -2.019280   1.000000
    8       -1.953416   1.000000
    9       -1.178609   1.000000
   10       -0.209678   1.000000
   11       -0.148752   1.000000
   12        0.236873   1.000000
   13        0.346132   1.000000
   14        0.717546   1.000000
   15        1.129096   1.000000
   16        2.002561   1.000000
   17        2.247990   1.000000
   18        2.337132   1.000000
   19        2.352998   1.000000
   20        2.796183   1.000000
   21        2.894006   1.000000
   22        2.961398   1.000000
   23        3.367863   1.000000
   24        3.434733   1.000000
   25        3.849618   1.000000
   26        4.016539   1.000000
   27        4.082270   1.000000
   28        4.121400   1.000000
   29        4.172733   1.000000
   30        4.241079   1.000000
   31        4.603932   1.000000
   32        4.788888   1.000000
   33        4.791179   1.000000