   24   24    1    1
  0.7843603E+01  0.5992492E-09  0.5992492E-09  0.6053148E-09  0.5000000E-15
   1.0000000000000000E-004
  CAR 
 Name                                    
     88     60     60

  0.3742002E-15  0.3742002E-15  0.3742002E-15  0.1371742E-02
    1       -5.699272   1.000000
    2       -3.438973   1.000000
    3       -1.581188   1.000000
    4       -1.581182   1.000000
    5       -1.581180   1.000000
    6       -1.497635   1.000000
    7       -1.497633   1.000000
    8       -1.497629   1.000000
    9       -1.353151   1.000000
   10       -1.353145   1.000000
   11       -1.353142   1.000000
   12        0.203296   1.000000
   13        0.628806   1.000000
   14        0.628809   1.000000
   15        0.628813   1.000000
   16        3.235526   1.000000
   17        3.235526   1.000000
   18        3.235528   1.000000
   19        4.092760   1.000000
   20        4.092762   1.000000
   21        4.092764   1.000000
   22        4.705361   1.000000
   23        4.705366   1.000000
   24        4.705368   1.000000
   25        4.801661   1.000000
   26        4.801663   1.000000
   27        4.801666   1.000000
   28        5.137718   1.000000
   29        5.137722   1.000000
   30        5.187948   1.000000
   31        5.187952   1.000000
   32        5.187954   1.000000
   33        5.583414   1.000000
   34        5.583415   1.000000
   35        5.583417   1.000000
   36        5.854578   1.000000
   37        6.541176   1.000000
   38        7.277397   1.000000
   39        7.277399   1.000000
   40        7.788139   1.000000
   41        7.788146   1.000000
   42        8.101025   1.000000
   43        8.101027   1.000000
   44        8.973963   0.754415
   45        8.973965   0.754398
   46        8.973967   0.754386
   47        9.412498  -0.000000
   48        9.412499  -0.000000
   49        9.778087  -0.000000
   50       10.038453  -0.000000
   51       10.041168  -0.000000
   52       10.066100  -0.000000
   53       10.215079  -0.000000
   54       10.239062  -0.000000
   55       10.330249  -0.000000
   56       12.436394   0.000000
   57       12.439501   0.000000
   58       12.442323   0.000000
   59       14.060653   0.000000
   60       14.097402   0.000000

  0.1111111E+00  0.3874020E-15  0.3742002E-15  0.8230453E-02
    1       -5.639753   1.000000
    2       -3.408967   1.000000
    3       -2.243773   1.000000
    4       -1.807431   1.000000
    5       -1.807430   1.000000
    6       -1.720759   1.000000
    7       -1.587109   1.000000
    8       -1.587103   1.000000
    9       -0.958463   1.000000
   10       -0.958460   1.000000
   11       -0.556438   1.000000
   12        0.279362   1.000000
   13        0.666100   1.000000
   14        0.666104   1.000000
   15        0.846267   1.000000
   16        3.185881   1.000000
   17        3.185883   1.000000
   18        3.292816   1.000000
   19        3.776582   1.000000
   20        4.032738   1.000000
   21        4.032740   1.000000
   22        4.283262   1.000000
   23        4.283264   1.000000
   24        4.776423   1.000000
   25        4.776427   1.000000
   26        4.819423   1.000000
   27        4.945972   1.000000
   28        4.981365   1.000000
   29        5.136931   1.000000
   30        5.208018   1.000000
   31        5.229163   1.000000
   32        5.229167   1.000000
   33        5.619673   1.000000
   34        5.873203   1.000000
   35        6.072684   1.000000
   36        6.072686   1.000000
   37        6.452595   1.000000
   38        6.624362   1.000000
   39        6.668321   1.000000
   40        7.978173   1.000000
   41        8.151985   1.000000
   42        8.363219   1.000000
   43        8.431734   1.000000
   44        8.804144   1.007592
   45        8.804147   1.007592
   46        8.986589   0.658769
   47        9.398628  -0.000000
   48        9.563280  -0.000000
   49        9.792244  -0.000000
   50        9.987955  -0.000000
   51        9.993305  -0.000000
   52       10.039233  -0.000000
   53       10.182246  -0.000000
   54       10.256296  -0.000000
   55       10.313162  -0.000000
   56       12.387537   0.000000
   57       12.497907   0.000000
   58       12.644362   0.000000
   59       14.360815   0.000000
   60       14.447502   0.000000

  0.2222222E+00  0.3646540E-15  0.3742002E-15  0.8230453E-02
    1       -5.462396   1.000000
    2       -3.318832   1.000000
    3       -2.994838   1.000000
    4       -2.089684   1.000000
    5       -2.089682   1.000000
    6       -2.030860   1.000000
    7       -1.601702   1.000000
    8       -1.601697   1.000000
    9       -0.426651   1.000000
   10       -0.426649   1.000000
   11        0.344429   1.000000
   12        0.504305   1.000000
   13        0.766124   1.000000
   14        0.766127   1.000000
   15        1.387736   1.000000
   16        3.054624   1.000000
   17        3.054625   1.000000
   18        3.204849   1.000000
   19        3.464145   1.000000
   20        3.504019   1.000000
   21        3.504021   1.000000
   22        3.917227   1.000000
   23        3.917229   1.000000
   24        4.536665   1.000000
   25        4.868613   1.000000
   26        4.919913   1.000000
   27        4.919917   1.000000
   28        5.131104   1.000000
   29        5.269811   1.000000
   30        5.327779   1.000000
   31        5.343806   1.000000
   32        5.343811   1.000000
   33        5.718115   1.000000
   34        5.718333   1.000000
   35        5.919435   1.000000
   36        5.926133   1.000000
   37        6.237235   1.000000
   38        6.768836   1.000000
   39        6.768837   1.000000
   40        7.647758   1.000000
   41        8.301928   1.000000
   42        8.414184   1.000000
   43        8.414187   1.000000
   44        9.023125   0.355262
   45        9.050454   0.160261
   46        9.275913  -0.000449
   47        9.358928  -0.000004
   48        9.804470  -0.000000
   49        9.804526  -0.000000
   50        9.834513  -0.000000
   51        9.937445  -0.000000
   52        9.973411  -0.000000
   53       10.166399  -0.000000
   54       10.218434  -0.000000
   55       10.289298  -0.000000
   56       10.935620  -0.000000
   57       11.052082  -0.000000
   58       11.708099  -0.000000
   59       12.308642   0.000000
   60       13.079220   0.000000

  0.3333333E+00  0.3736910E-15  0.3742002E-15  0.8230453E-02
    1       -5.170715   1.000000
    2       -3.673310   1.000000
    3       -3.168464   1.000000
    4       -2.374549   1.000000
    5       -2.280304   1.000000
    6       -2.280302   1.000000
    7       -1.617637   1.000000
    8       -1.617632   1.000000
    9        0.155071   1.000000
   10        0.155073   1.000000
   11        0.868041   1.000000
   12        0.892654   1.000000
   13        0.892657   1.000000
   14        1.265545   1.000000
   15        2.109712   1.000000
   16        2.566418   1.000000
   17        2.735047   1.000000
   18        2.735049   1.000000
   19        2.892640   1.000000
   20        2.892641   1.000000
   21        3.747926   1.000000
   22        3.817373   1.000000
   23        3.817375   1.000000
   24        3.872631   1.000000
   25        4.775693   1.000000
   26        4.937877   1.000000
   27        5.051601   1.000000
   28        5.051604   1.000000
   29        5.112064   1.000000
   30        5.235917   1.000000
   31        5.376923   1.000000
   32        5.498741   1.000000
   33        5.498746   1.000000
   34        5.743441   1.000000
   35        5.848352   1.000000
   36        5.980229   1.000000
   37        5.986947   1.000000
   38        7.192807   1.000000
   39        7.412732   1.000000
   40        7.412734   1.000000
   41        8.002601   1.000000
   42        8.002605   1.000000
   43        8.541690   1.000000
   44        9.079673   0.027122
   45        9.298782  -0.000137
   46        9.476675  -0.000000
   47        9.476675  -0.000000
   48        9.588664  -0.000000
   49        9.671989  -0.000000
   50        9.894014  -0.000000
   51       10.049561  -0.000000
   52       10.092457  -0.000000
   53       10.119076  -0.000000
   54       10.128713  -0.000000
   55       10.289778  -0.000000
   56       10.397621  -0.000000
   57       10.486844  -0.000000
   58       10.646708  -0.000000
   59       11.269201  -0.000000
   60       12.062770   0.000000

  0.4444444E+00  0.3682772E-15  0.3742002E-15  0.8230453E-02
    1       -4.770275   1.000000
    2       -4.268308   1.000000
    3       -2.958374   1.000000
    4       -2.691098   1.000000
    5       -2.376114   1.000000
    6       -2.376112   1.000000
    7       -1.627686   1.000000
    8       -1.627682   1.000000
    9        0.678708   1.000000
   10        0.678710   1.000000
   11        0.985639   1.000000
   12        0.985642   1.000000
   13        1.352876   1.000000
   14        1.931780   1.000000
   15        2.113251   1.000000
   16        2.113252   1.000000
   17        2.183644   1.000000
   18        2.776596   1.000000
   19        2.776597   1.000000
   20        2.939788   1.000000
   21        3.067480   1.000000
   22        3.762362   1.000000
   23        3.762365   1.000000
   24        3.838780   1.000000
   25        4.141255   1.000000
   26        4.639550   1.000000
   27        5.011006   1.000000
   28        5.072213   1.000000
   29        5.127408   1.000000
   30        5.127411   1.000000
   31        5.532696   1.000000
   32        5.621802   1.000000
   33        5.621808   1.000000
   34        5.736806   1.000000
   35        5.960866   1.000000
   36        6.009961   1.000000
   37        6.199846   1.000000
   38        6.692211   1.000000
   39        7.733564   1.000000
   40        7.733568   1.000000
   41        7.895558   1.000000
   42        7.895560   1.000000
   43        8.854901   1.027279
   44        9.134430  -0.034910
   45        9.134432  -0.034910
   46        9.150013  -0.030109
   47        9.216151  -0.005628
   48        9.226095  -0.003922
   49        9.973269  -0.000000
   50       10.027247  -0.000000
   51       10.054293  -0.000000
   52       10.138271  -0.000000
   53       10.141245  -0.000000
   54       10.237763  -0.000000
   55       10.258513  -0.000000
   56       10.326732  -0.000000
   57       10.768014  -0.000000
   58       10.842817  -0.000000
   59       11.398576  -0.000000
   60       11.619648  -0.000000

  0.1111111E+00  0.1111111E+00  0.3742002E-15  0.8230453E-02
    1       -5.521311   1.000000
    2       -3.348879   1.000000
    3       -2.588298   1.000000
    4       -2.588296   1.000000
    5       -1.836974   1.000000
    6       -1.836971   1.000000
    7       -1.452059   1.000000
    8       -1.312083   1.000000
    9       -1.250422   1.000000
   10       -0.078961   1.000000
   11       -0.078959   1.000000
   12        0.429895   1.000000
   13        0.543464   1.000000
   14        1.068861   1.000000
   15        1.068866   1.000000
   16        3.000898   1.000000
   17        3.298146   1.000000
   18        3.298147   1.000000
   19        3.460360   1.000000
   20        3.543135   1.000000
   21        3.543136   1.000000
   22        4.241907   1.000000
   23        4.345299   1.000000
   24        4.345301   1.000000
   25        4.676389   1.000000
   26        4.695713   1.000000
   27        5.110443   1.000000
   28        5.121727   1.000000
   29        5.121728   1.000000
   30        5.264778   1.000000
   31        5.264781   1.000000
   32        5.334749   1.000000
   33        5.917409   1.000000
   34        5.987270   1.000000
   35        6.093146   1.000000
   36        6.112768   1.000000
   37        6.112769   1.000000
   38        6.302584   1.000000
   39        6.762272   1.000000
   40        7.751879   1.000000
   41        8.252832   1.000000
   42        8.375804   1.000000
   43        8.843270   1.021930
   44        8.843271   1.021931
   45        8.872235   1.033853
   46        9.051593   0.153487
   47        9.367187  -0.000002
   48        9.826122  -0.000000
   49        9.850236  -0.000000
   50        9.882637  -0.000000
   51        9.942800  -0.000000
   52       10.118022  -0.000000
   53       10.144354  -0.000000
   54       11.126472  -0.000000
   55       11.182270  -0.000000
   56       12.574424   0.000000
   57       12.579146   0.000000
   58       13.156620   0.000000
   59       14.808222   0.000000
   60       14.814537   0.000000

  0.2222222E+00  0.1111111E+00  0.3742002E-15  0.1646091E-01
    1       -5.286775   1.000000
    2       -3.303617   1.000000
    3       -3.228539   1.000000
    4       -2.836679   1.000000
    5       -2.178255   1.000000
    6       -1.925422   1.000000
    7       -1.509595   1.000000
    8       -1.336160   1.000000
    9       -0.689525   1.000000
   10        0.455017   1.000000
   11        0.481256   1.000000
   12        0.724398   1.000000
   13        0.828892   1.000000
   14        1.305882   1.000000
   15        1.711154   1.000000
   16        2.620015   1.000000
   17        2.789028   1.000000
   18        2.931547   1.000000
   19        3.215097   1.000000
   20        3.361883   1.000000
   21        3.521442   1.000000
   22        3.632963   1.000000
   23        4.168789   1.000000
   24        4.282927   1.000000
   25        4.460109   1.000000
   26        4.747404   1.000000
   27        5.034646   1.000000
   28        5.143460   1.000000
   29        5.270494   1.000000
   30        5.339601   1.000000
   31        5.375020   1.000000
   32        5.431350   1.000000
   33        5.511053   1.000000
   34        5.513186   1.000000
   35        6.011524   1.000000
   36        6.074195   1.000000
   37        6.172447   1.000000
   38        6.772929   1.000000
   39        7.361850   1.000000
   40        7.438594   1.000000
   41        7.874905   1.000000
   42        8.448962   1.000000
   43        8.521537   1.000000
   44        8.915231   1.012258
   45        9.302894  -0.000109
   46        9.449317  -0.000000
   47        9.666071  -0.000000
   48        9.666213  -0.000000
   49        9.807916  -0.000000
   50        9.824553  -0.000000
   51        9.870773  -0.000000
   52        9.873854  -0.000000
   53       10.113313  -0.000000
   54       10.180752  -0.000000
   55       10.274131  -0.000000
   56       10.298833  -0.000000
   57       10.475647  -0.000000
   58       10.747712  -0.000000
   59       11.475915  -0.000000
   60       12.273562   0.000000

  0.3333333E+00  0.1111111E+00  0.3742002E-15  0.1646091E-01
    1       -4.940660   1.000000
    2       -3.940646   1.000000
    3       -3.047985   1.000000
    4       -2.986525   1.000000
    5       -2.514164   1.000000
    6       -1.980340   1.000000
    7       -1.648009   1.000000
    8       -1.258893   1.000000
    9       -0.066262   1.000000
   10        0.464909   1.000000
   11        0.990347   1.000000
   12        1.149222   1.000000
   13        1.506166   1.000000
   14        1.741927   1.000000
   15        1.839394   1.000000
   16        2.291498   1.000000
   17        2.486151   1.000000
   18        2.617577   1.000000
   19        2.973500   1.000000
   20        3.099337   1.000000
   21        3.248127   1.000000
   22        3.458346   1.000000
   23        3.853036   1.000000
   24        4.238282   1.000000
   25        4.240475   1.000000
   26        4.609932   1.000000
   27        4.819143   1.000000
   28        4.877898   1.000000
   29        4.918321   1.000000
   30        5.369152   1.000000
   31        5.458765   1.000000
   32        5.490025   1.000000
   33        5.717513   1.000000
   34        5.835745   1.000000
   35        5.935996   1.000000
   36        6.121762   1.000000
   37        6.214064   1.000000
   38        6.889669   1.000000
   39        7.310994   1.000000
   40        7.447773   1.000000
   41        8.054272   1.000000
   42        8.226905   1.000000
   43        8.727912   1.000306
   44        9.009448   0.468589
   45        9.215165  -0.005825
   46        9.325712  -0.000029
   47        9.334088  -0.000018
   48        9.443526  -0.000000
   49        9.843762  -0.000000
   50        9.942712  -0.000000
   51        9.995933  -0.000000
   52       10.094343  -0.000000
   53       10.126395  -0.000000
   54       10.160792  -0.000000
   55       10.226165  -0.000000
   56       10.229576  -0.000000
   57       10.445633  -0.000000
   58       10.579812  -0.000000
   59       11.001847  -0.000000
   60       11.523123  -0.000000

  0.4444444E+00  0.1111111E+00  0.3742002E-15  0.8230453E-02
    1       -4.489336   1.000000
    2       -4.489330   1.000000
    3       -3.036592   1.000000
    4       -2.808385   1.000000
    5       -2.808380   1.000000
    6       -1.998913   1.000000
    7       -1.694354   1.000000
    8       -1.232034   1.000000
    9        0.329026   1.000000
   10        0.465120   1.000000
   11        1.288006   1.000000
   12        1.390444   1.000000
   13        1.589772   1.000000
   14        1.682400   1.000000
   15        1.682404   1.000000
   16        2.550901   1.000000
   17        2.631493   1.000000
   18        2.631496   1.000000
   19        2.632709   1.000000
   20        3.042123   1.000000
   21        3.209457   1.000000
   22        3.341488   1.000000
   23        3.341491   1.000000
   24        4.216656   1.000000
   25        4.288252   1.000000
   26        4.288258   1.000000
   27        4.770811   1.000000
   28        4.770815   1.000000
   29        4.931891   1.000000
   30        5.403621   1.000000
   31        5.541190   1.000000
   32        5.625268   1.000000
   33        5.625271   1.000000
   34        5.822953   1.000000
   35        6.199802   1.000000
   36        6.199807   1.000000
   37        6.400929   1.000000
   38        6.400932   1.000000
   39        7.263885   1.000000
   40        7.545260   1.000000
   41        8.108525   1.000000
   42        8.422775   1.000000
   43        9.041876   0.215160
   44        9.069477   0.063896
   45        9.069481   0.063878
   46        9.113547  -0.031451
   47        9.113553  -0.031454
   48        9.164102  -0.023821
   49        9.944941  -0.000000
   50        9.945030  -0.000000
   51       10.022468  -0.000000
   52       10.054466  -0.000000
   53       10.106452  -0.000000
   54       10.153238  -0.000000
   55       10.251051  -0.000000
   56       10.272788  -0.000000
   57       10.502186  -0.000000
   58       10.508246  -0.000000
   59       11.247122  -0.000000
   60       11.258377  -0.000000

  0.2222222E+00  0.2222222E+00  0.3742002E-15  0.8230453E-02
    1       -4.997760   1.000000
    2       -3.511154   1.000000
    3       -3.511152   1.000000
    4       -3.077781   1.000000
    5       -2.277042   1.000000
    6       -2.277040   1.000000
    7       -1.065454   1.000000
    8       -0.939749   1.000000
    9       -0.790589   1.000000
   10        0.218746   1.000000
   11        1.080407   1.000000
   12        1.340616   1.000000
   13        1.340618   1.000000
   14        1.757073   1.000000
   15        2.006944   1.000000
   16        2.006948   1.000000
   17        2.564716   1.000000
   18        2.741199   1.000000
   19        2.741200   1.000000
   20        3.480188   1.000000
   21        3.480190   1.000000
   22        3.647640   1.000000
   23        3.840927   1.000000
   24        3.840930   1.000000
   25        4.420205   1.000000
   26        4.566851   1.000000
   27        4.638409   1.000000
   28        4.771371   1.000000
   29        4.847063   1.000000
   30        5.437912   1.000000
   31        5.437915   1.000000
   32        5.647277   1.000000
   33        5.647278   1.000000
   34        5.763476   1.000000
   35        5.876064   1.000000
   36        6.197082   1.000000
   37        6.733854   1.000000
   38        6.733855   1.000000
   39        6.959362   1.000000
   40        7.336210   1.000000
   41        8.085872   1.000000
   42        8.677651   1.000018
   43        8.677653   1.000018
   44        8.686641   1.000031
   45        9.189491  -0.013029
   46        9.513022  -0.000000
   47        9.583210  -0.000000
   48        9.583213  -0.000000
   49        9.746694  -0.000000
   50        9.747242  -0.000000
   51        9.896721  -0.000000
   52        9.931008  -0.000000
   53        9.990841  -0.000000
   54       10.158671  -0.000000
   55       10.268243  -0.000000
   56       10.320919  -0.000000
   57       10.483578  -0.000000
   58       10.505405  -0.000000
   59       11.149996  -0.000000
   60       11.190820  -0.000000

  0.3333333E+00  0.2222222E+00  0.3742002E-15  0.1646091E-01
    1       -4.600619   1.000000
    2       -4.102307   1.000000
    3       -3.615396   1.000000
    4       -2.866783   1.000000
    5       -2.597573   1.000000
    6       -2.326516   1.000000
    7       -0.973927   1.000000
    8       -0.856975   1.000000
    9       -0.216646   1.000000
   10        0.022240   1.000000
   11        1.015961   1.000000
   12        1.555026   1.000000
   13        1.764702   1.000000
   14        2.121487   1.000000
   15        2.196892   1.000000
   16        2.204342   1.000000
   17        2.436589   1.000000
   18        2.643806   1.000000
   19        2.792854   1.000000
   20        2.980954   1.000000
   21        3.351076   1.000000
   22        3.408005   1.000000
   23        3.614792   1.000000
   24        3.845871   1.000000
   25        4.116478   1.000000
   26        4.305567   1.000000
   27        4.439658   1.000000
   28        4.548066   1.000000
   29        4.763426   1.000000
   30        5.511239   1.000000
   31        5.541925   1.000000
   32        5.690445   1.000000
   33        5.719441   1.000000
   34        6.031338   1.000000
   35        6.062172   1.000000
   36        6.419499   1.000000
   37        6.509102   1.000000
   38        6.614261   1.000000
   39        6.913435   1.000000
   40        7.086992   1.000000
   41        8.502773   1.000000
   42        8.675309   1.000015
   43        8.856991   1.028208
   44        8.999553   0.552194
   45        9.034720   0.265753
   46        9.228883  -0.003529
   47        9.364241  -0.000002
   48        9.366014  -0.000002
   49        9.650940  -0.000000
   50        9.722449  -0.000000
   51        9.776426  -0.000000
   52        9.894002  -0.000000
   53       10.017746  -0.000000
   54       10.096536  -0.000000
   55       10.329477  -0.000000
   56       10.338768  -0.000000
   57       10.363597  -0.000000
   58       10.763612  -0.000000
   59       11.047848  -0.000000
   60       11.178179  -0.000000

  0.3333333E+00  0.3333333E+00  0.3742002E-15  0.2743484E-02
    1       -4.156401   1.000000
    2       -4.156397   1.000000
    3       -4.156392   1.000000
    4       -2.625312   1.000000
    5       -2.625307   1.000000
    6       -2.625304   1.000000
    7       -0.424285   1.000000
    8       -0.424282   1.000000
    9       -0.415077   1.000000
   10       -0.415074   1.000000
   11        0.554213   1.000000
   12        2.064019   1.000000
   13        2.064022   1.000000
   14        2.064025   1.000000
   15        2.374020   1.000000
   16        2.428406   1.000000
   17        2.428410   1.000000
   18        2.428413   1.000000
   19        2.924260   1.000000
   20        2.924265   1.000000
   21        2.924268   1.000000
   22        3.815414   1.000000
   23        3.815418   1.000000
   24        3.815421   1.000000
   25        3.865467   1.000000
   26        3.865471   1.000000
   27        3.865474   1.000000
   28        4.693482   1.000000
   29        4.693484   1.000000
   30        5.577500   1.000000
   31        5.577502   1.000000
   32        5.577504   1.000000
   33        6.105908   1.000000
   34        6.105910   1.000000
   35        6.105912   1.000000
   36        6.434172   1.000000
   37        6.434175   1.000000
   38        6.766669   1.000000
   39        6.766671   1.000000
   40        6.766674   1.000000
   41        8.785337   1.003917
   42        8.785341   1.003918
   43        8.785343   1.003918
   44        9.183763  -0.015201
   45        9.183764  -0.015200
   46        9.339615  -0.000012
   47        9.339618  -0.000012
   48        9.339619  -0.000012
   49        9.357217  -0.000004
   50        9.575437  -0.000000
   51        9.575441  -0.000000
   52        9.575443  -0.000000
   53       10.064274  -0.000000
   54       10.064708  -0.000000
   55       10.091907  -0.000000
   56       10.351735  -0.000000
   57       10.372394  -0.000000
   58       10.663477  -0.000000
   59       10.682813  -0.000000
   60       10.684094  -0.000000

  0.3742002E-15  0.3742002E-15  0.1111111E+00  0.2743484E-02
    1       -5.654001   1.000000
    2       -3.562671   1.000000
    3       -1.574075   1.000000
    4       -1.574069   1.000000
    5       -1.574067   1.000000
    6       -1.452387   1.000000
    7       -1.452385   1.000000
    8       -1.452381   1.000000
    9       -1.359776   1.000000
   10       -1.359770   1.000000
   11       -1.359767   1.000000
   12        0.381188   1.000000
   13        0.522563   1.000000
   14        0.522565   1.000000
   15        0.522570   1.000000
   16        3.269934   1.000000
   17        3.269934   1.000000
   18        3.269936   1.000000
   19        4.208111   1.000000
   20        4.208112   1.000000
   21        4.208114   1.000000
   22        4.718705   1.000000
   23        4.718710   1.000000
   24        4.718712   1.000000
   25        4.730288   1.000000
   26        4.730290   1.000000
   27        4.730293   1.000000
   28        5.172196   1.000000
   29        5.172200   1.000000
   30        5.172203   1.000000
   31        5.175101   1.000000
   32        5.175105   1.000000
   33        5.413728   1.000000
   34        5.586474   1.000000
   35        5.586475   1.000000
   36        5.586477   1.000000
   37        6.908865   1.000000
   38        7.321431   1.000000
   39        7.321433   1.000000
   40        7.378444   1.000000
   41        7.378449   1.000000
   42        8.542420   1.000000
   43        8.542423   1.000000
   44        9.085223   0.011271
   45        9.085225   0.011267
   46        9.085233   0.011245
   47        9.304961  -0.000098
   48        9.695379  -0.000000
   49       10.015382  -0.000000
   50       10.046564  -0.000000
   51       10.168339  -0.000000
   52       10.189782  -0.000000
   53       12.428299   0.000000
   54       12.430173   0.000000
   55       12.430435   0.000000
   56       13.966757   0.000000
   57       14.185850   0.000000
   58       14.192155   0.000000
   59       14.216068   0.000000
   60       14.250264   0.000000

  0.1111111E+00  0.3874020E-15  0.1111111E+00  0.1646091E-01
    1       -5.594813   1.000000
    2       -3.529680   1.000000
    3       -2.218107   1.000000
    4       -1.783161   1.000000
    5       -1.783159   1.000000
    6       -1.726057   1.000000
    7       -1.583743   1.000000
    8       -1.583738   1.000000
    9       -0.944449   1.000000
   10       -0.944447   1.000000
   11       -0.543011   1.000000
   12        0.453739   1.000000
   13        0.569124   1.000000
   14        0.569128   1.000000
   15        0.748877   1.000000
   16        3.212695   1.000000
   17        3.212696   1.000000
   18        3.326716   1.000000
   19        3.881192   1.000000
   20        4.136414   1.000000
   21        4.136416   1.000000
   22        4.250671   1.000000
   23        4.250672   1.000000
   24        4.751013   1.000000
   25        4.799853   1.000000
   26        4.799858   1.000000
   27        4.975334   1.000000
   28        5.016271   1.000000
   29        5.171628   1.000000
   30        5.182914   1.000000
   31        5.209413   1.000000
   32        5.209417   1.000000
   33        5.423561   1.000000
   34        5.627017   1.000000
   35        6.024004   1.000000
   36        6.024005   1.000000
   37        6.572378   1.000000
   38        6.632731   1.000000
   39        6.819727   1.000000
   40        7.767817   1.000000
   41        7.890161   1.000000
   42        8.696340   1.000055
   43        8.802068   1.007089
   44        8.919018   1.005291
   45        8.919020   1.005286
   46        9.083910   0.014767
   47        9.286196  -0.000267
   48        9.456869  -0.000000
   49        9.727140  -0.000000
   50       10.000789  -0.000000
   51       10.012164  -0.000000
   52       10.095324  -0.000000
   53       10.196353  -0.000000
   54       11.533075  -0.000000
   55       12.397403   0.000000
   56       12.581619   0.000000
   57       12.615373   0.000000
   58       14.419714   0.000000
   59       14.595041   0.000000
   60       14.631219   0.000000

  0.2222222E+00  0.3646540E-15  0.1111111E+00  0.1646091E-01
    1       -5.418458   1.000000
    2       -3.431054   1.000000
    3       -2.965520   1.000000
    4       -2.066189   1.000000
    5       -2.066188   1.000000
    6       -2.057891   1.000000
    7       -1.607278   1.000000
    8       -1.607273   1.000000
    9       -0.413000   1.000000
   10       -0.412998   1.000000
   11        0.355675   1.000000
   12        0.668421   1.000000
   13        0.694276   1.000000
   14        0.694280   1.000000
   15        1.299003   1.000000
   16        3.059058   1.000000
   17        3.059059   1.000000
   18        3.323744   1.000000
   19        3.493812   1.000000
   20        3.493814   1.000000
   21        3.496490   1.000000
   22        4.007327   1.000000
   23        4.007330   1.000000
   24        4.565694   1.000000
   25        4.809108   1.000000
   26        4.954372   1.000000
   27        4.954376   1.000000
   28        5.157559   1.000000
   29        5.216166   1.000000
   30        5.311854   1.000000
   31        5.311859   1.000000
   32        5.360140   1.000000
   33        5.444061   1.000000
   34        5.679095   1.000000
   35        5.739638   1.000000