   57   57   85    1
  0.1298906E+02  0.6042588E-09  0.6042559E-09  0.2341357E-08  0.5000000E-15
   1.0000000000000000E-004
  CAR 
 Name                                    
    199     41    132

  0.3742002E-15  0.3742002E-15  0.1262379E-14  0.1234568E-01
    1      -11.541500   1.000000
    2      -10.971914   1.000000
    3      -10.231586   1.000000
    4       -9.482404   1.000000
    5       -8.729391   1.000000
    6       -8.252378   1.000000
    7       -8.082253   1.000000
    8       -7.966553   1.000000
    9       -7.776082   1.000000
   10       -7.710388   1.000000
   11       -7.694477   1.000000
   12       -7.615218   1.000000
   13       -7.615126   1.000000
   14       -7.528185   1.000000
   15       -7.398236   1.000000
   16       -7.343755   1.000000
   17       -7.280578   1.000000
   18       -7.224165   1.000000
   19       -7.135801   1.000000
   20       -7.064082   1.000000
   21       -6.831591   1.000000
   22       -6.653622   1.000000
   23       -6.279230   1.000000
   24       -6.108905   1.000000
   25       -5.903003   1.000000
   26       -5.845961   1.000000
   27       -5.798150   1.000000
   28       -5.779523   1.000000
   29       -5.666887   1.000000
   30       -5.596083   1.000000
   31       -5.174266   1.000000
   32       -4.750355   1.000000
   33       -4.608952   1.000000
   34       -4.580224   1.000000
   35       -4.473196   1.000000
   36       -4.260809   1.000000
   37       -4.137641   1.000000
   38       -3.237937   1.000000
   39       -3.217520   1.000000
   40       -3.129985   1.000000
   41       -2.846867   1.000000
   42       -2.758294   1.000000
   43       -2.719024   1.000000
   44       -2.527880   1.000000
   45       -2.386258   1.000000
   46       -2.367164   1.000000
   47       -2.100797   1.000000
   48       -2.060696   1.000000
   49       -1.993932   1.000000
   50       -1.965783   1.000000
   51       -1.877244   1.000000
   52       -1.693767   1.000000
   53       -1.663074   1.000000
   54       -1.661523   1.000000
   55       -1.632758   1.000000
   56       -1.449545   1.000000
   57       -1.442945   1.000000
   58       -1.407663   1.000000
   59       -1.395383   1.000000
   60       -1.350762   1.000000
   61       -1.277251   1.000000
   62       -1.226432   1.000000
   63       -1.182966   1.000000
   64       -1.036163   1.000000
   65       -1.008762   1.000000
   66       -0.847999   1.000000
   67       -0.821055   1.000000
   68       -0.801680   1.000000
   69       -0.733488   1.000000
   70       -0.648579   1.000000
   71       -0.554095   1.000000
   72       -0.542108   1.000000
   73       -0.395907   1.000000
   74       -0.237992   1.000000
   75       -0.225044   1.000000
   76       -0.180104   1.000000
   77       -0.172940   1.000000
   78       -0.093171   1.000000
   79       -0.053335   1.000000
   80        0.121852   1.000000
   81        0.275821   1.000000
   82        0.518639   1.000000
   83        0.572970   1.000000
   84        0.797776   1.000000
   85        0.880486   1.000000
   86        1.275039   1.000000
   87        1.278457   1.000000
   88        1.401723   1.000000
   89        1.412852   1.000000
   90        1.522125   1.000000
   91        1.567265   1.000000
   92        1.608039   1.000000
   93        1.624974   1.000000
   94        1.652241   1.000000
   95        1.717075   1.000000
   96        1.785441   1.000003
   97        2.065390   1.004688
   98        2.311715   1.015295
   99        2.627123   0.057496
  100        2.749341  -0.035228
  101        2.805142  -0.025682
  102        2.962770  -0.002377
  103        3.010531  -0.000841
  104        3.011728  -0.000818
  105        3.213971  -0.000002
  106        3.241686  -0.000001
  107        3.321320  -0.000000
  108        3.366483  -0.000000
  109        3.497163  -0.000000
  110        3.528207  -0.000000
  111        3.621404  -0.000000
  112        3.671537  -0.000000
  113        3.703785  -0.000000
  114        3.721609  -0.000000
  115        3.761977  -0.000000
  116        3.788206  -0.000000
  117        3.813623  -0.000000
  118        3.861293  -0.000000
  119        3.932898  -0.000000
  120        3.939225  -0.000000
  121        3.985391  -0.000000
  122        4.011704  -0.000000
  123        4.107181  -0.000000
  124        4.114360  -0.000000
  125        4.143901  -0.000000
  126        4.205748  -0.000000
  127        4.303158  -0.000000
  128        4.330870  -0.000000
  129        4.669851  -0.000000
  130        4.774256  -0.000000
  131        4.788360  -0.000000
  132        4.963700  -0.000000

  0.1111111E+00  0.3867788E-15  0.1262378E-14  0.2469136E-01
    1      -11.484321   1.000000
    2      -10.919115   1.000000
    3      -10.187485   1.000000
    4       -9.446498   1.000000
    5       -8.693424   1.000000
    6       -8.311468   1.000000
    7       -8.285502   1.000000
    8       -8.183175   1.000000
    9       -8.107379   1.000000
   10       -7.904839   1.000000
   11       -7.883088   1.000000
   12       -7.770966   1.000000
   13       -7.746889   1.000000
   14       -7.611193   1.000000
   15       -7.540187   1.000000
   16       -7.205190   1.000000
   17       -7.081188   1.000000
   18       -7.042141   1.000000
   19       -6.794993   1.000000
   20       -6.767710   1.000000
   21       -6.707309   1.000000
   22       -6.473657   1.000000
   23       -6.171410   1.000000
   24       -6.130893   1.000000
   25       -5.940600   1.000000
   26       -5.856190   1.000000
   27       -5.827403   1.000000
   28       -5.712761   1.000000
   29       -5.560470   1.000000
   30       -5.452931   1.000000
   31       -5.123006   1.000000
   32       -4.581428   1.000000
   33       -4.515517   1.000000
   34       -4.478545   1.000000
   35       -4.313557   1.000000
   36       -4.221027   1.000000
   37       -3.970936   1.000000
   38       -3.233886   1.000000
   39       -3.219608   1.000000
   40       -3.094161   1.000000
   41       -2.851790   1.000000
   42       -2.828422   1.000000
   43       -2.770562   1.000000
   44       -2.587714   1.000000
   45       -2.434740   1.000000
   46       -2.414826   1.000000
   47       -2.301300   1.000000
   48       -2.144064   1.000000
   49       -2.047992   1.000000
   50       -1.967433   1.000000
   51       -1.911133   1.000000
   52       -1.823289   1.000000
   53       -1.693191   1.000000
   54       -1.663860   1.000000
   55       -1.652500   1.000000
   56       -1.504086   1.000000
   57       -1.472316   1.000000
   58       -1.429271   1.000000
   59       -1.392989   1.000000
   60       -1.365523   1.000000
   61       -1.288677   1.000000
   62       -1.244157   1.000000
   63       -1.176078   1.000000
   64       -1.120824   1.000000
   65       -1.071986   1.000000
   66       -0.914064   1.000000
   67       -0.882532   1.000000
   68       -0.812118   1.000000
   69       -0.762180   1.000000
   70       -0.643872   1.000000
   71       -0.599257   1.000000
   72       -0.538480   1.000000
   73       -0.402139   1.000000
   74       -0.298430   1.000000
   75       -0.265000   1.000000
   76       -0.207735   1.000000
   77       -0.100053   1.000000
   78       -0.053112   1.000000
   79        0.006869   1.000000
   80        0.155500   1.000000
   81        0.215702   1.000000
   82        0.298212   1.000000
   83        0.578464   1.000000
   84        0.634604   1.000000
   85        0.758821   1.000000
   86        1.099168   1.000000
   87        1.156631   1.000000
   88        1.365401   1.000000
   89        1.445661   1.000000
   90        1.478430   1.000000
   91        1.495949   1.000000
   92        1.532826   1.000000
   93        1.555968   1.000000
   94        1.612056   1.000000
   95        1.800570   1.000005
   96        1.939525   1.000296
   97        2.220329   1.032456
   98        2.497911   0.493865
   99        2.691597  -0.022416
  100        2.709513  -0.030641
  101        2.811546  -0.024203
  102        2.880436  -0.010267
  103        2.916225  -0.005735
  104        3.012752  -0.000799
  105        3.104753  -0.000074
  106        3.318383  -0.000000
  107        3.436747  -0.000000
  108        3.481035  -0.000000
  109        3.507632  -0.000000
  110        3.520403  -0.000000
  111        3.606117  -0.000000
  112        3.660983  -0.000000
  113        3.682431  -0.000000
  114        3.720806  -0.000000
  115        3.739671  -0.000000
  116        3.747945  -0.000000
  117        3.811356  -0.000000
  118        3.828012  -0.000000
  119        3.876585  -0.000000
  120        3.926503  -0.000000
  121        3.973087  -0.000000
  122        3.993008  -0.000000
  123        4.068809  -0.000000
  124        4.080688  -0.000000
  125        4.158508  -0.000000
  126        4.223658  -0.000000
  127        4.250902  -0.000000
  128        4.320828  -0.000000
  129        4.614198  -0.000000
  130        4.725190  -0.000000
  131        4.793976  -0.000000
  132        4.838612  -0.000000

  0.2222222E+00  0.3825705E-15  0.1262378E-14  0.2469136E-01
    1      -11.314794   1.000000
    2      -10.762852   1.000000
    3      -10.057793   1.000000
    4       -9.342062   1.000000
    5       -8.958866   1.000000
    6       -8.681211   1.000000
    7       -8.590266   1.000000
    8       -8.508685   1.000000
    9       -8.187366   1.000000
   10       -8.145765   1.000000
   11       -8.049038   1.000000
   12       -8.014409   1.000000
   13       -7.932986   1.000000
   14       -7.822090   1.000000
   15       -7.713040   1.000000
   16       -7.251884   1.000000
   17       -6.963559   1.000000
   18       -6.659765   1.000000
   19       -6.634550   1.000000
   20       -6.504041   1.000000
   21       -6.428854   1.000000
   22       -6.223367   1.000000
   23       -5.981036   1.000000
   24       -5.891804   1.000000
   25       -5.774676   1.000000
   26       -5.712973   1.000000
   27       -5.646266   1.000000
   28       -5.493755   1.000000
   29       -5.200749   1.000000
   30       -5.118446   1.000000
   31       -4.928371   1.000000
   32       -4.346279   1.000000
   33       -4.320174   1.000000
   34       -4.292075   1.000000
   35       -4.086865   1.000000
   36       -3.798627   1.000000
   37       -3.596242   1.000000
   38       -3.268603   1.000000
   39       -3.249667   1.000000
   40       -3.119271   1.000000
   41       -3.055435   1.000000
   42       -2.980975   1.000000
   43       -2.880913   1.000000
   44       -2.775573   1.000000
   45       -2.757959   1.000000
   46       -2.553102   1.000000
   47       -2.419937   1.000000
   48       -2.275318   1.000000
   49       -2.167394   1.000000
   50       -2.042895   1.000000
   51       -1.965577   1.000000
   52       -1.936674   1.000000
   53       -1.778525   1.000000
   54       -1.747373   1.000000
   55       -1.681507   1.000000
   56       -1.665269   1.000000
   57       -1.568315   1.000000
   58       -1.536061   1.000000
   59       -1.480533   1.000000
   60       -1.411129   1.000000
   61       -1.371025   1.000000
   62       -1.338830   1.000000
   63       -1.311144   1.000000
   64       -1.212516   1.000000
   65       -1.099691   1.000000
   66       -1.051331   1.000000
   67       -1.030097   1.000000
   68       -0.924644   1.000000
   69       -0.883743   1.000000
   70       -0.801907   1.000000
   71       -0.632310   1.000000
   72       -0.596612   1.000000
   73       -0.479185   1.000000
   74       -0.390399   1.000000
   75       -0.358786   1.000000
   76       -0.209767   1.000000
   77       -0.154498   1.000000
   78       -0.072820   1.000000
   79        0.005598   1.000000
   80        0.114504   1.000000
   81        0.203661   1.000000
   82        0.364059   1.000000
   83        0.417010   1.000000
   84        0.587972   1.000000
   85        0.687829   1.000000
   86        0.778161   1.000000
   87        0.997728   1.000000
   88        1.240914   1.000000
   89        1.307243   1.000000
   90        1.426934   1.000000
   91        1.456718   1.000000
   92        1.487640   1.000000
   93        1.505728   1.000000
   94        1.535597   1.000000
   95        1.917887   1.000168
   96        2.011784   1.001619
   97        2.148327   1.016812
   98        2.405392   0.844595
   99        2.531659   0.353591
  100        2.696543  -0.025170
  101        2.866105  -0.012648
  102        2.929571  -0.004517
  103        3.091189  -0.000108
  104        3.172019  -0.000010
  105        3.212723  -0.000003
  106        3.336923  -0.000000
  107        3.357130  -0.000000
  108        3.387220  -0.000000
  109        3.414391  -0.000000
  110        3.441301  -0.000000
  111        3.512655  -0.000000
  112        3.594161  -0.000000
  113        3.639945  -0.000000
  114        3.672538  -0.000000
  115        3.706049  -0.000000
  116        3.716374  -0.000000
  117        3.752943  -0.000000
  118        3.817141  -0.000000
  119        3.908077  -0.000000
  120        3.943470  -0.000000
  121        3.972830  -0.000000
  122        3.991960  -0.000000
  123        4.050200  -0.000000
  124        4.101857  -0.000000
  125        4.130985  -0.000000
  126        4.201088  -0.000000
  127        4.271451  -0.000000
  128        4.361587  -0.000000
  129        4.418358  -0.000000
  130        4.548935  -0.000000
  131        4.646544  -0.000000
  132        4.763258  -0.000000

  0.3333333E+00  0.3885513E-15  0.1262378E-14  0.2469136E-01
    1      -11.039996   1.000000
    2      -10.510081   1.000000
    3       -9.851726   1.000000
    4       -9.583483   1.000000
    5       -9.223911   1.000000
    6       -9.152346   1.000000
    7       -8.860149   1.000000
    8       -8.407078   1.000000
    9       -8.318964   1.000000
   10       -8.255452   1.000000
   11       -8.210662   1.000000
   12       -8.183391   1.000000
   13       -8.120322   1.000000
   14       -8.026911   1.000000
   15       -7.752709   1.000000
   16       -7.369151   1.000000
   17       -7.311223   1.000000
   18       -6.455539   1.000000
   19       -6.447159   1.000000
   20       -6.377573   1.000000
   21       -5.995990   1.000000
   22       -5.979857   1.000000
   23       -5.766291   1.000000
   24       -5.742712   1.000000
   25       -5.713479   1.000000
   26       -5.405740   1.000000
   27       -4.977544   1.000000
   28       -4.889638   1.000000
   29       -4.823397   1.000000
   30       -4.663269   1.000000
   31       -4.492048   1.000000
   32       -4.124390   1.000000
   33       -4.057070   1.000000
   34       -4.022836   1.000000
   35       -3.842508   1.000000
   36       -3.667849   1.000000
   37       -3.549087   1.000000
   38       -3.481010   1.000000
   39       -3.447516   1.000000
   40       -3.360599   1.000000
   41       -3.333519   1.000000
   42       -3.284870   1.000000
   43       -3.032484   1.000000
   44       -2.740347   1.000000
   45       -2.620425   1.000000
   46       -2.592106   1.000000
   47       -2.494126   1.000000
   48       -2.304534   1.000000
   49       -2.267531   1.000000
   50       -2.247640   1.000000
   51       -2.137499   1.000000
   52       -2.071231   1.000000
   53       -1.960586   1.000000
   54       -1.932278   1.000000
   55       -1.915647   1.000000
   56       -1.810782   1.000000
   57       -1.746606   1.000000
   58       -1.671623   1.000000
   59       -1.584838   1.000000
   60       -1.566953   1.000000
   61       -1.483245   1.000000
   62       -1.451573   1.000000
   63       -1.422607   1.000000
   64       -1.354521   1.000000
   65       -1.308497   1.000000
   66       -1.269436   1.000000
   67       -1.102349   1.000000
   68       -1.028927   1.000000
   69       -0.871737   1.000000
   70       -0.830749   1.000000
   71       -0.740372   1.000000
   72       -0.642632   1.000000
   73       -0.606311   1.000000
   74       -0.477668   1.000000
   75       -0.419101   1.000000
   76       -0.254218   1.000000
   77       -0.225357   1.000000
   78       -0.120705   1.000000
   79       -0.052101   1.000000
   80        0.104795   1.000000
   81        0.175345   1.000000
   82        0.268021   1.000000
   83        0.491029   1.000000
   84        0.524089   1.000000
   85        0.733291   1.000000
   86        0.796970   1.000000
   87        0.936107   1.000000
   88        1.163506   1.000000
   89        1.190643   1.000000
   90        1.311018   1.000000
   91        1.366255   1.000000
   92        1.447752   1.000000
   93        1.494665   1.000000
   94        1.589447   1.000000
   95        1.787270   1.000003
   96        1.987800   1.000952
   97        2.177805   1.023377
   98        2.267305   1.034390
   99        2.355059   0.962297
  100        2.620738   0.070620
  101        2.738914  -0.035433
  102        2.851055  -0.015492
  103        2.947545  -0.003218
  104        3.027773  -0.000559
  105        3.102500  -0.000079
  106        3.165157  -0.000012
  107        3.260161  -0.000000
  108        3.323534  -0.000000
  109        3.379415  -0.000000
  110        3.405872  -0.000000
  111        3.507181  -0.000000
  112        3.536168  -0.000000
  113        3.557881  -0.000000
  114        3.608344  -0.000000
  115        3.623129  -0.000000
  116        3.752680  -0.000000
  117        3.808980  -0.000000
  118        3.821675  -0.000000
  119        3.892972  -0.000000
  120        3.946106  -0.000000
  121        3.991000  -0.000000
  122        4.045766  -0.000000
  123        4.086308  -0.000000
  124        4.107173  -0.000000
  125        4.237876  -0.000000
  126        4.263069  -0.000000
  127        4.316505  -0.000000
  128        4.361438  -0.000000
  129        4.405994  -0.000000
  130        4.448443  -0.000000
  131        4.517987  -0.000000
  132        4.683926  -0.000000

  0.4444444E+00  0.3777319E-15  0.1262376E-14  0.2469136E-01
    1      -10.687676   1.000000
    2      -10.188552   1.000000
    3      -10.100519   1.000000
    4       -9.724866   1.000000
    5       -9.541403   1.000000
    6       -9.230826   1.000000
    7       -8.933743   1.000000
    8       -8.528810   1.000000
    9       -8.412065   1.000000
   10       -8.321411   1.000000
   11       -8.284797   1.000000
   12       -8.182569   1.000000
   13       -8.105191   1.000000
   14       -8.072115   1.000000
   15       -7.773927   1.000000
   16       -7.753426   1.000000
   17       -7.343189   1.000000
   18       -6.415274   1.000000
   19       -6.399424   1.000000
   20       -6.394235   1.000000
   21       -5.778136   1.000000
   22       -5.643403   1.000000
   23       -5.637278   1.000000
   24       -5.472808   1.000000
   25       -5.452765   1.000000
   26       -5.209079   1.000000
   27       -4.604426   1.000000
   28       -4.450393   1.000000
   29       -4.244529   1.000000
   30       -4.176337   1.000000
   31       -4.098206   1.000000
   32       -4.066299   1.000000
   33       -3.963259   1.000000
   34       -3.900812   1.000000
   35       -3.833088   1.000000
   36       -3.758077   1.000000
   37       -3.726199   1.000000
   38       -3.701861   1.000000
   39       -3.647758   1.000000
   40       -3.522163   1.000000
   41       -3.416705   1.000000
   42       -3.381416   1.000000
   43       -3.209513   1.000000
   44       -3.031095   1.000000
   45       -2.817617   1.000000
   46       -2.640111   1.000000
   47       -2.490294   1.000000
   48       -2.359080   1.000000
   49       -2.300274   1.000000
   50       -2.277377   1.000000
   51       -2.141712   1.000000
   52       -2.096327   1.000000
   53       -2.054954   1.000000
   54       -1.994517   1.000000
   55       -1.977657   1.000000
   56       -1.913244   1.000000
   57       -1.863132   1.000000
   58       -1.781884   1.000000
   59       -1.702308   1.000000
   60       -1.659798   1.000000
   61       -1.542631   1.000000
   62       -1.503785   1.000000
   63       -1.479677   1.000000
   64       -1.442021   1.000000
   65       -1.416136   1.000000
   66       -1.338695   1.000000
   67       -1.264048   1.000000
   68       -1.221357   1.000000
   69       -1.017238   1.000000
   70       -0.860515   1.000000
   71       -0.766926   1.000000
   72       -0.679395   1.000000
   73       -0.618433   1.000000
   74       -0.510552   1.000000
   75       -0.377129   1.000000
   76       -0.286957   1.000000
   77       -0.206929   1.000000
   78       -0.149669   1.000000
   79       -0.079580   1.000000
   80       -0.039810   1.000000
   81        0.204774   1.000000
   82        0.282073   1.000000
   83        0.387810   1.000000
   84        0.630426   1.000000
   85        0.676851   1.000000
   86        0.840277   1.000000
   87        0.980874   1.000000
   88        1.056489   1.000000
   89        1.164419   1.000000
   90        1.255494   1.000000
   91        1.281187   1.000000
   92        1.428870   1.000000
   93        1.516559   1.000000
   94        1.684301   1.000000
   95        1.891007   1.000080
   96        1.962902   1.000530
   97        2.192676   1.026800
   98        2.240264   1.035007
   99        2.331581   0.996029
  100        2.412127   0.824098
  101        2.482505   0.558897
  102        2.665014  -0.000193
  103        2.777017  -0.031670
  104        2.916525  -0.005705
  105        2.955738  -0.002739
  106        3.084490  -0.000130
  107        3.110575  -0.000063
  108        3.284237  -0.000000
  109        3.304782  -0.000000
  110        3.341353  -0.000000
  111        3.381268  -0.000000
  112        3.472316  -0.000000
  113        3.484453  -0.000000
  114        3.531322  -0.000000
  115        3.590319  -0.000000
  116        3.718466  -0.000000
  117        3.777230  -0.000000
  118        3.810575  -0.000000
  119        3.876019  -0.000000
  120        3.943915  -0.000000
  121        4.036340  -0.000000
  122        4.087742  -0.000000
  123        4.149682  -0.000000
  124        4.169929  -0.000000
  125        4.292727  -0.000000
  126        4.311707  -0.000000
  127        4.366965  -0.000000
  128        4.420345  -0.000000
  129        4.491131  -0.000000
  130        4.511865  -0.000000
  131        4.657270  -0.000000
  132        4.730882  -0.000000

  0.3742002E-15  0.1111111E+00  0.1262378E-14  0.2469136E-01
    1      -11.484321   1.000000
    2      -10.919114   1.000000
    3      -10.187480   1.000000
    4       -9.446485   1.000000
    5       -8.693424   1.000000
    6       -8.311464   1.000000
    7       -8.285467   1.000000
    8       -8.183081   1.000000
    9       -8.107443   1.000000
   10       -7.904948   1.000000
   11       -7.883060   1.000000
   12       -7.770990   1.000000
   13       -7.746877   1.000000
   14       -7.611216   1.000000
   15       -7.540947   1.000000
   16       -7.204417   1.000000
   17       -7.080869   1.000000
   18       -7.042279   1.000000
   19       -6.795251   1.000000
   20       -6.767330   1.000000
   21       -6.707098   1.000000
   22       -6.473824   1.000000
   23       -6.171366   1.000000
   24       -6.130859   1.000000
   25       -5.940841   1.000000
   26       -5.856074   1.000000
   27       -5.827464   1.000000
   28       -5.713492   1.000000
   29       -5.560172   1.000000
   30       -5.453354   1.000000
   31       -5.122446   1.000000
   32       -4.581267   1.000000
   33       -4.515513   1.000000
   34       -4.478364   1.000000
   35       -4.313523   1.000000
   36       -4.220882   1.000000
   37       -3.971348   1.000000
   38       -3.233801   1.000000
   39       -3.219673   1.000000
   40       -3.094149   1.000000
   41       -2.851545   1.000000
   42       -2.828475   1.000000
   43       -2.770771   1.000000
   44       -2.587766   1.000000
   45       -2.434815   1.000000
   46       -2.414685   1.000000
   47       -2.301192   1.000000
   48       -2.144626   1.000000
   49       -2.047166   1.000000
   50       -1.968179   1.000000
   51       -1.910700   1.000000
   52       -1.823548   1.000000
   53       -1.693834   1.000000
   54       -1.663566   1.000000
   55       -1.652182   1.000000
   56       -1.503757   1.000000
   57       -1.472607   1.000000
   58       -1.429163   1.000000
   59       -1.393126   1.000000
   60       -1.364961   1.000000
   61       -1.288367   1.000000
   62       -1.245416   1.000000
   63       -1.176628   1.000000
   64       -1.120647   1.000000
   65       -1.071259   1.000000
   66       -0.914199   1.000000
   67       -0.882425   1.000000
   68       -0.812046   1.000000
   69       -0.761472   1.000000
   70       -0.644257   1.000000
   71       -0.599202   1.000000
   72       -0.538380   1.000000
   73       -0.402466   1.000000
   74       -0.298903   1.000000
   75       -0.264655   1.000000
   76       -0.207919   1.000000
   77       -0.100033   1.000000
   78       -0.052630   1.000000
   79        0.006688   1.000000
   80        0.155453   1.000000
   81        0.215463   1.000000
   82        0.298255   1.000000
   83        0.578306   1.000000
   84        0.634864   1.000000
   85        0.758999   1.000000
   86        1.099223   1.000000
   87        1.156717   1.000000
   88        1.366145   1.000000
   89        1.444869   1.000000
   90        1.478209   1.000000
   91        1.495818   1.000000
   92        1.532823   1.000000
   93        1.555964   1.000000
   94        1.612241   1.000000
   95        1.800552   1.000005
   96        1.939700   1.000297
   97        2.219925   1.032386
   98        2.498047   0.493289
   99        2.691368  -0.022279
  100        2.709377  -0.030596
  101        2.812274  -0.024035
  102        2.880332  -0.010283
  103        2.916080  -0.005749
  104        3.012023  -0.000812
  105        3.105556  -0.000072
  106        3.318235  -0.000000
  107        3.436713  -0.000000
  108        3.480991  -0.000000
  109        3.507563  -0.000000
  110        3.520538  -0.000000
  111        3.605934  -0.000000
  112        3.661147  -0.000000
  113        3.682539  -0.000000
  114        3.720905  -0.000000
  115        3.739488  -0.000000
  116        3.748009  -0.000000
  117        3.811550  -0.000000
  118        3.827990  -0.000000
  119        3.876661  -0.000000
  120        3.926541  -0.000000
  121        3.973017  -0.000000
  122        3.992880  -0.000000
  123        4.068807  -0.000000
  124        4.080617  -0.000000
  125        4.158203  -0.000000
  126        4.223608  -0.000000
  127        4.251078  -0.000000
  128        4.320954  -0.000000
  129        4.614379  -0.000000
  130        4.724447  -0.000000
  131        4.794609  -0.000000
  132        4.838937  -0.000000

  0.1111111E+00  0.1111111E+00  0.1262378E-14  0.2469136E-01
    1      -11.371497   1.000000
    2      -10.814434   1.000000
    3      -10.099084   1.000000
    4       -9.374274   1.000000
    5       -8.687506   1.000000
    6       -8.618294   1.000000
    7       -8.469624   1.000000
    8       -8.424263   1.000000
    9       -8.411998   1.000000
   10       -8.266055   1.000000
   11       -8.197160   1.000000
   12       -7.852499   1.000000
   13       -7.688939   1.000000
   14       -7.587241   1.000000
   15       -7.378324   1.000000
   16       -7.332920   1.000000
   17       -7.192190   1.000000
   18       -6.827939   1.000000
   19       -6.727167   1.000000
   20       -6.681929   1.000000
   21       -6.289895   1.000000
   22       -6.192849   1.000000
   23       -6.014138   1.000000
   24       -5.957578   1.000000
   25       -5.807695   1.000000
   26       -5.738620   1.000000
   27       -5.632870   1.000000
   28       -5.584035   1.000000
   29       -5.484736   1.000000
   30       -5.299007   1.000000
   31       -5.073594   1.000000
   32       -4.614201   1.000000
   33       -4.275725   1.000000
   34       -4.180494   1.000000
   35       -4.032359   1.000000
   36       -4.016835   1.000000
   37       -3.715185   1.000000
   38       -3.280544   1.000000
   39       -3.224320   1.000000
   40       -3.125298   1.000000
   41       -3.031912   1.000000
   42       -2.856181   1.000000
   43       -2.855937   1.000000
   44       -2.760176   1.000000
   45       -2.507764   1.000000
   46       -2.466731   1.000000
   47       -2.317827   1.000000
   48       -2.251727   1.000000
   49       -2.180707   1.000000
   50       -2.065406   1.000000
   51       -2.013081   1.000000
   52       -1.845709   1.000000
   53       -1.831518   1.000000
   54       -1.667353   1.000000
   55       -1.618687   1.000000
   56       -1.598381   1.000000
   57       -1.594593   1.000000
   58       -1.523369   1.000000
   59       -1.519239   1.000000
   60       -1.347525   1.000000
   61       -1.339908   1.000000
   62       -1.304117   1.000000
   63       -1.226679   1.000000
   64       -1.193580   1.000000
   65       -1.138221   1.000000
   66       -1.078414   1.000000
   67       -1.075604   1.000000
   68       -0.859941   1.000000
   69       -0.791195   1.000000
   70       -0.710500   1.000000
   71       -0.619905   1.000000
   72       -0.568484   1.000000
   73       -0.545149   1.000000
   74       -0.375892   1.000000
   75       -0.302211   1.000000
   76       -0.181644   1.000000
   77       -0.152505   1.000000
   78       -0.008714   1.000000
   79        0.086700   1.000000
   80        0.134257   1.000000
   81        0.204626   1.000000
   82        0.348663   1.000000
   83        0.397942   1.000000
   84        0.579464   1.000000
   85        0.672454   1.000000
   86        0.722228   1.000000
   87        1.125858   1.000000
   88        1.353215   1.000000
   89        1.403393   1.000000
   90        1.418303   1.000000
   91        1.429843   1.000000
   92        1.499983   1.000000
   93        1.544313   1.000000
   94        1.585066   1.000000
   95        1.846054   1.000021
   96        2.013151   1.001668
   97        2.237572   1.034778
   98        2.397716   0.866634