   69   69    1    1
  0.2263277E+02  0.1053953E-08  0.6141200E-09  0.2412750E-08  0.5000000E-15
   1.0000000000000000E-004
  CAR 
 Name                                    
    264     15    168

  0.3742002E-15  0.3742002E-15  0.1262379E-14  0.2222222E-01
    1      -14.014281   1.000000
    2      -12.903212   1.000000
    3      -12.737671   1.000000
    4      -12.580085   1.000000
    5      -12.023080   1.000000
    6      -11.755312   1.000000
    7      -11.713637   1.000000
    8      -11.458228   1.000000
    9      -11.441273   1.000000
   10      -11.328121   1.000000
   11      -11.076014   1.000000
   12      -11.060081   1.000000
   13      -10.819458   1.000000
   14      -10.464701   1.000000
   15      -10.222404   1.000000
   16      -10.207224   1.000000
   17      -10.152302   1.000000
   18       -9.950283   1.000000
   19       -9.832637   1.000000
   20       -9.814952   1.000000
   21       -9.597257   1.000000
   22       -9.569886   1.000000
   23       -9.314553   1.000000
   24       -9.247354   1.000000
   25       -9.032162   1.000000
   26       -8.894398   1.000000
   27       -8.437303   1.000000
   28       -8.346125   1.000000
   29       -8.247627   1.000000
   30       -8.198294   1.000000
   31       -8.061192   1.000000
   32       -7.917562   1.000000
   33       -7.669272   1.000000
   34       -7.233886   1.000000
   35       -7.203093   1.000000
   36       -7.097550   1.000000
   37       -7.026061   1.000000
   38       -6.884290   1.000000
   39       -6.807831   1.000000
   40       -6.745251   1.000000
   41       -6.626795   1.000000
   42       -6.625931   1.000000
   43       -6.545642   1.000000
   44       -6.360895   1.000000
   45       -6.314474   1.000000
   46       -6.230106   1.000000
   47       -6.226623   1.000000
   48       -6.036400   1.000000
   49       -6.024074   1.000000
   50       -5.918679   1.000000
   51       -5.682614   1.000000
   52       -5.654060   1.000000
   53       -5.635649   1.000000
   54       -5.504175   1.000000
   55       -5.399162   1.000000
   56       -5.320341   1.000000
   57       -5.266068   1.000000
   58       -5.214855   1.000000
   59       -5.203082   1.000000
   60       -5.067789   1.000000
   61       -4.991240   1.000000
   62       -4.869911   1.000000
   63       -4.766657   1.000000
   64       -4.697602   1.000000
   65       -4.692032   1.000000
   66       -4.590231   1.000000
   67       -4.550825   1.000000
   68       -4.530152   1.000000
   69       -4.378177   1.000000
   70       -4.268782   1.000000
   71       -4.232628   1.000000
   72       -4.195745   1.000000
   73       -4.081972   1.000000
   74       -4.081348   1.000000
   75       -4.028299   1.000000
   76       -3.990616   1.000000
   77       -3.923154   1.000000
   78       -3.888242   1.000000
   79       -3.755757   1.000000
   80       -3.748316   1.000000
   81       -3.695962   1.000000
   82       -3.631915   1.000000
   83       -3.555676   1.000000
   84       -3.474747   1.000000
   85       -3.453158   1.000000
   86       -3.405935   1.000000
   87       -3.311555   1.000000
   88       -3.207834   1.000000
   89       -3.127851   1.000000
   90       -3.050253   1.000000
   91       -2.998872   1.000000
   92       -2.942132   1.000000
   93       -2.929825   1.000000
   94       -2.753899   1.000000
   95       -2.664382   1.000000
   96       -2.632569   1.000000
   97       -2.587493   1.000000
   98       -2.551309   1.000000
   99       -2.443672   1.000000
  100       -2.434689   1.000000
  101       -2.399964   1.000000
  102       -2.390525   1.000000
  103       -2.376801   1.000000
  104       -2.287185   1.000000
  105       -2.250425   1.000000
  106       -2.218150   1.000000
  107       -2.134169   1.000000
  108       -2.042806   1.000000
  109       -2.015815   1.000000
  110       -1.919217   1.000000
  111       -1.860060   1.000000
  112       -1.852785   1.000000
  113       -1.772068   1.000000
  114       -1.667751   1.000000
  115       -1.626573   1.000000
  116       -1.551092   1.000000
  117       -1.303837   1.000000
  118       -1.230284   1.000000
  119       -1.226830   1.000000
  120       -1.158746   1.000000
  121       -1.111641   1.000000
  122       -0.874043   1.000000
  123       -0.869852   1.000000
  124       -0.691282   1.000004
  125       -0.645048   1.000018
  126       -0.529974   1.000453
  127       -0.481336   1.001403
  128       -0.393563   1.007549
  129       -0.262766   1.033015
  130       -0.201635   1.030146
  131       -0.074971   0.825968
  132       -0.029227   0.662349
  133        0.076790   0.233971
  134        0.081036   0.219284
  135        0.124712   0.092115
  136        0.187106  -0.008844
  137        0.197656  -0.017506
  138        0.306766  -0.028358
  139        0.314887  -0.026542
  140        0.522957  -0.000862
  141        0.564031  -0.000318
  142        0.615380  -0.000080
  143        0.663586  -0.000019
  144        0.706176  -0.000005
  145        0.816660  -0.000000
  146        0.888247  -0.000000
  147        0.908283  -0.000000
  148        0.933037  -0.000000
  149        0.994855  -0.000000
  150        1.038242  -0.000000
  151        1.077240  -0.000000
  152        1.140769  -0.000000
  153        1.161761  -0.000000
  154        1.182159  -0.000000
  155        1.209527  -0.000000
  156        1.311188  -0.000000
  157        1.331500  -0.000000
  158        1.385045  -0.000000
  159        1.398300  -0.000000
  160        1.479384  -0.000000
  161        1.521925  -0.000000
  162        1.568847  -0.000000
  163        1.645763  -0.000000
  164        1.662461  -0.000000
  165        1.957696  -0.000000
  166        2.128370  -0.000000
  167        2.310302  -0.000000
  168        2.631266  -0.000000

  0.2000000E+00  0.3742002E-15  0.1262379E-14  0.4444444E-01
    1      -13.987924   1.000000
    2      -13.061326   1.000000
    3      -12.808863   1.000000
    4      -12.257901   1.000000
    5      -12.065375   1.000000
    6      -12.021595   1.000000
    7      -11.504833   1.000000
    8      -11.437970   1.000000
    9      -11.308812   1.000000
   10      -11.267363   1.000000
   11      -11.061496   1.000000
   12      -11.032312   1.000000
   13      -10.796077   1.000000
   14      -10.596902   1.000000
   15      -10.512763   1.000000
   16      -10.269256   1.000000
   17      -10.241712   1.000000
   18       -9.952731   1.000000
   19       -9.828312   1.000000
   20       -9.763134   1.000000
   21       -9.598949   1.000000
   22       -9.576308   1.000000
   23       -9.277047   1.000000
   24       -9.269000   1.000000
   25       -8.993606   1.000000
   26       -8.685531   1.000000
   27       -8.424195   1.000000
   28       -8.225838   1.000000
   29       -8.190430   1.000000
   30       -8.103897   1.000000
   31       -8.060576   1.000000
   32       -7.989872   1.000000
   33       -7.569283   1.000000
   34       -7.406120   1.000000
   35       -7.220958   1.000000
   36       -7.204314   1.000000
   37       -7.056396   1.000000
   38       -6.959551   1.000000
   39       -6.864817   1.000000
   40       -6.767241   1.000000
   41       -6.706328   1.000000
   42       -6.642141   1.000000
   43       -6.569948   1.000000
   44       -6.465656   1.000000
   45       -6.305788   1.000000
   46       -6.294034   1.000000
   47       -6.044438   1.000000
   48       -5.988560   1.000000
   49       -5.964644   1.000000
   50       -5.934473   1.000000
   51       -5.662160   1.000000
   52       -5.590997   1.000000
   53       -5.554085   1.000000
   54       -5.509336   1.000000
   55       -5.434620   1.000000
   56       -5.361347   1.000000
   57       -5.273209   1.000000
   58       -5.188076   1.000000
   59       -5.063966   1.000000
   60       -5.044505   1.000000
   61       -5.024115   1.000000
   62       -4.873876   1.000000
   63       -4.760142   1.000000
   64       -4.732108   1.000000
   65       -4.617851   1.000000
   66       -4.605139   1.000000
   67       -4.522576   1.000000
   68       -4.496653   1.000000
   69       -4.344237   1.000000
   70       -4.234817   1.000000
   71       -4.230340   1.000000
   72       -4.208657   1.000000
   73       -4.136924   1.000000
   74       -4.080246   1.000000
   75       -4.079969   1.000000
   76       -4.003981   1.000000
   77       -3.929245   1.000000
   78       -3.893195   1.000000
   79       -3.819106   1.000000
   80       -3.791104   1.000000
   81       -3.731747   1.000000
   82       -3.635787   1.000000
   83       -3.569081   1.000000
   84       -3.523883   1.000000
   85       -3.415686   1.000000
   86       -3.383386   1.000000
   87       -3.296405   1.000000
   88       -3.208209   1.000000
   89       -3.160075   1.000000
   90       -3.079112   1.000000
   91       -2.969839   1.000000
   92       -2.928713   1.000000
   93       -2.918027   1.000000
   94       -2.791005   1.000000
   95       -2.746694   1.000000
   96       -2.659065   1.000000
   97       -2.596163   1.000000
   98       -2.543922   1.000000
   99       -2.524785   1.000000
  100       -2.442120   1.000000
  101       -2.430610   1.000000
  102       -2.397386   1.000000
  103       -2.301672   1.000000
  104       -2.255495   1.000000
  105       -2.189709   1.000000
  106       -2.140134   1.000000
  107       -2.086103   1.000000
  108       -2.035218   1.000000
  109       -1.983482   1.000000
  110       -1.848897   1.000000
  111       -1.799354   1.000000
  112       -1.787855   1.000000
  113       -1.751541   1.000000
  114       -1.632003   1.000000
  115       -1.610190   1.000000
  116       -1.517778   1.000000
  117       -1.309128   1.000000
  118       -1.264951   1.000000
  119       -1.212401   1.000000
  120       -1.192484   1.000000
  121       -1.130357   1.000000
  122       -0.945575   1.000000
  123       -0.878900   1.000000
  124       -0.733577   1.000001
  125       -0.702869   1.000003
  126       -0.591992   1.000088
  127       -0.573707   1.000146
  128       -0.482878   1.001357
  129       -0.279793   1.029862
  130       -0.244868   1.035106
  131       -0.103369   0.904494
  132       -0.100921   0.898511
  133        0.045075   0.353941
  134        0.047234   0.345289
  135        0.121312   0.100343
  136        0.171645   0.007833
  137        0.266890  -0.034949
  138        0.340321  -0.020692
  139        0.418238  -0.006978
  140        0.499294  -0.001465
  141        0.569251  -0.000278
  142        0.587361  -0.000173
  143        0.666976  -0.000017
  144        0.775692  -0.000000
  145        0.854116  -0.000000
  146        0.862093  -0.000000
  147        0.923526  -0.000000
  148        0.953288  -0.000000
  149        0.980857  -0.000000
  150        1.072571  -0.000000
  151        1.130494  -0.000000
  152        1.163140  -0.000000
  153        1.171741  -0.000000
  154        1.277487  -0.000000
  155        1.307925  -0.000000
  156        1.333702  -0.000000
  157        1.350836  -0.000000
  158        1.399817  -0.000000
  159        1.452107  -0.000000
  160        1.473128  -0.000000
  161        1.493240  -0.000000
  162        1.599892  -0.000000
  163        1.617419  -0.000000
  164        1.681747  -0.000000
  165        1.766977  -0.000000
  166        1.976696  -0.000000
  167        2.102945  -0.000000
  168        2.374062  -0.000000

  0.4000000E+00  0.3742002E-15  0.1262379E-14  0.4444444E-01
    1      -13.935450   1.000000
    2      -13.268428   1.000000
    3      -12.713287   1.000000
    4      -12.394132   1.000000
    5      -12.019121   1.000000
    6      -11.699963   1.000000
    7      -11.547969   1.000000
    8      -11.437725   1.000000
    9      -11.194845   1.000000
   10      -11.160864   1.000000
   11      -11.058725   1.000000
   12      -10.980583   1.000000
   13      -10.749925   1.000000
   14      -10.743616   1.000000
   15      -10.605034   1.000000
   16      -10.567738   1.000000
   17      -10.280471   1.000000
   18      -10.164549   1.000000
   19       -9.955222   1.000000
   20       -9.823842   1.000000
   21       -9.622620   1.000000
   22       -9.331426   1.000000
   23       -9.243577   1.000000
   24       -9.169192   1.000000
   25       -8.896968   1.000000
   26       -8.746457   1.000000
   27       -8.293219   1.000000
   28       -8.113106   1.000000
   29       -7.964912   1.000000
   30       -7.931883   1.000000
   31       -7.931172   1.000000
   32       -7.733272   1.000000
   33       -7.627770   1.000000
   34       -7.619704   1.000000
   35       -7.452184   1.000000
   36       -7.353779   1.000000
   37       -7.285642   1.000000
   38       -7.194310   1.000000
   39       -7.129629   1.000000
   40       -6.844398   1.000000
   41       -6.595830   1.000000
   42       -6.576818   1.000000
   43       -6.556720   1.000000
   44       -6.380436   1.000000
   45       -6.316815   1.000000
   46       -6.153134   1.000000
   47       -6.044792   1.000000
   48       -6.041627   1.000000
   49       -5.954937   1.000000
   50       -5.811017   1.000000
   51       -5.730102   1.000000
   52       -5.657895   1.000000
   53       -5.560930   1.000000
   54       -5.552331   1.000000
   55       -5.404654   1.000000
   56       -5.341339   1.000000
   57       -5.231193   1.000000
   58       -5.065741   1.000000
   59       -5.033851   1.000000
   60       -4.952590   1.000000
   61       -4.874798   1.000000
   62       -4.793304   1.000000
   63       -4.779693   1.000000
   64       -4.691095   1.000000
   65       -4.666117   1.000000
   66       -4.572346   1.000000
   67       -4.464941   1.000000
   68       -4.429717   1.000000
   69       -4.404342   1.000000
   70       -4.292576   1.000000
   71       -4.239456   1.000000
   72       -4.232197   1.000000
   73       -4.153279   1.000000
   74       -4.142163   1.000000
   75       -4.065809   1.000000
   76       -4.013345   1.000000
   77       -3.976240   1.000000
   78       -3.936890   1.000000
   79       -3.897359   1.000000
   80       -3.825412   1.000000
   81       -3.694781   1.000000
   82       -3.679674   1.000000
   83       -3.566703   1.000000
   84       -3.523462   1.000000
   85       -3.382911   1.000000
   86       -3.371813   1.000000
   87       -3.339265   1.000000
   88       -3.184257   1.000000
   89       -3.160259   1.000000
   90       -3.115977   1.000000
   91       -3.103553   1.000000
   92       -2.989970   1.000000
   93       -2.879776   1.000000
   94       -2.870045   1.000000
   95       -2.808736   1.000000
   96       -2.650504   1.000000
   97       -2.639204   1.000000
   98       -2.586321   1.000000
   99       -2.563079   1.000000
  100       -2.446503   1.000000
  101       -2.377133   1.000000
  102       -2.289312   1.000000
  103       -2.268509   1.000000
  104       -2.189070   1.000000
  105       -2.163986   1.000000
  106       -2.112435   1.000000
  107       -2.033182   1.000000
  108       -1.947950   1.000000
  109       -1.927588   1.000000
  110       -1.736763   1.000000
  111       -1.723632   1.000000
  112       -1.686590   1.000000
  113       -1.632812   1.000000
  114       -1.567142   1.000000
  115       -1.540876   1.000000
  116       -1.456107   1.000000
  117       -1.380091   1.000000
  118       -1.320605   1.000000
  119       -1.268134   1.000000
  120       -1.241846   1.000000
  121       -1.123725   1.000000
  122       -1.029638   1.000000
  123       -0.926018   1.000000
  124       -0.821629   1.000000
  125       -0.803589   1.000000
  126       -0.724685   1.000001
  127       -0.665257   1.000010
  128       -0.559299   1.000215
  129       -0.459782   1.002216
  130       -0.341280   1.016170
  131       -0.107488   0.914214
  132       -0.091321   0.873604
  133       -0.002094   0.550919
  134        0.041126   0.369897
  135        0.110326   0.128907
  136        0.159123   0.025147
  137        0.272801  -0.034369
  138        0.344174  -0.019825
  139        0.421021  -0.006659
  140        0.512995  -0.001082
  141        0.544402  -0.000519
  142        0.675199  -0.000013
  143        0.745992  -0.000001
  144        0.777181  -0.000000
  145        0.874551  -0.000000
  146        0.885046  -0.000000
  147        0.946904  -0.000000
  148        1.008445  -0.000000
  149        1.097289  -0.000000
  150        1.152922  -0.000000
  151        1.183946  -0.000000
  152        1.258623  -0.000000
  153        1.259359  -0.000000
  154        1.268904  -0.000000
  155        1.327282  -0.000000
  156        1.378836  -0.000000
  157        1.419568  -0.000000
  158        1.486605  -0.000000
  159        1.501493  -0.000000
  160        1.520454  -0.000000
  161        1.596629  -0.000000
  162        1.663306  -0.000000
  163        1.696369  -0.000000
  164        1.759133  -0.000000
  165        1.895470  -0.000000
  166        1.913891  -0.000000
  167        1.974969  -0.000000
  168        2.283217  -0.000000

  0.3742002E-15  0.1111111E+00  0.1262379E-14  0.4444444E-01
    1      -13.968818   1.000000
    2      -12.862691   1.000000
    3      -12.702219   1.000000
    4      -12.548660   1.000000
    5      -12.103343   1.000000
    6      -11.720733   1.000000
    7      -11.689746   1.000000
    8      -11.498490   1.000000
    9      -11.470026   1.000000
   10      -11.368294   1.000000
   11      -11.072331   1.000000
   12      -11.054947   1.000000
   13      -10.850137   1.000000
   14      -10.473171   1.000000
   15      -10.241440   1.000000
   16      -10.188003   1.000000
   17      -10.141363   1.000000
   18       -9.953477   1.000000
   19       -9.839324   1.000000
   20       -9.781322   1.000000
   21       -9.620665   1.000000
   22       -9.571132   1.000000
   23       -9.321047   1.000000
   24       -9.238924   1.000000
   25       -9.051654   1.000000
   26       -8.867573   1.000000
   27       -8.439668   1.000000
   28       -8.343673   1.000000
   29       -8.252303   1.000000
   30       -8.217249   1.000000
   31       -7.927378   1.000000
   32       -7.915983   1.000000
   33       -7.774788   1.000000
   34       -7.334492   1.000000
   35       -7.306880   1.000000
   36       -7.074995   1.000000
   37       -6.998775   1.000000
   38       -6.860385   1.000000
   39       -6.749837   1.000000
   40       -6.717074   1.000000
   41       -6.620673   1.000000
   42       -6.612816   1.000000
   43       -6.500585   1.000000
   44       -6.394065   1.000000
   45       -6.259404   1.000000
   46       -6.236007   1.000000
   47       -6.194357   1.000000
   48       -6.073331   1.000000
   49       -6.018615   1.000000
   50       -5.883222   1.000000
   51       -5.720522   1.000000
   52       -5.664524   1.000000
   53       -5.559432   1.000000
   54       -5.495690   1.000000
   55       -5.397418   1.000000
   56       -5.291501   1.000000
   57       -5.242280   1.000000
   58       -5.188790   1.000000
   59       -5.165058   1.000000
   60       -5.037243   1.000000
   61       -4.954765   1.000000
   62       -4.873738   1.000000
   63       -4.785955   1.000000
   64       -4.717702   1.000000
   65       -4.646792   1.000000
   66       -4.587527   1.000000
   67       -4.538808   1.000000
   68       -4.503506   1.000000
   69       -4.404603   1.000000
   70       -4.333973   1.000000
   71       -4.319627   1.000000
   72       -4.139409   1.000000
   73       -4.108680   1.000000
   74       -4.072985   1.000000
   75       -4.034824   1.000000
   76       -3.976916   1.000000
   77       -3.934863   1.000000
   78       -3.882822   1.000000
   79       -3.817393   1.000000
   80       -3.753029   1.000000
   81       -3.707037   1.000000
   82       -3.636944   1.000000
   83       -3.571278   1.000000
   84       -3.472351   1.000000
   85       -3.433587   1.000000
   86       -3.407582   1.000000
   87       -3.331725   1.000000
   88       -3.225277   1.000000
   89       -3.170605   1.000000
   90       -3.138999   1.000000
   91       -3.055210   1.000000
   92       -3.010438   1.000000
   93       -2.919644   1.000000
   94       -2.823958   1.000000
   95       -2.780846   1.000000
   96       -2.627116   1.000000
   97       -2.581205   1.000000
   98       -2.547230   1.000000
   99       -2.526598   1.000000
  100       -2.459074   1.000000
  101       -2.435006   1.000000
  102       -2.427320   1.000000
  103       -2.329156   1.000000
  104       -2.287748   1.000000
  105       -2.269010   1.000000
  106       -2.230754   1.000000
  107       -2.148732   1.000000
  108       -1.983346   1.000000
  109       -1.976691   1.000000
  110       -1.908136   1.000000
  111       -1.844782   1.000000
  112       -1.808001   1.000000
  113       -1.704975   1.000000
  114       -1.643096   1.000000
  115       -1.575065   1.000000
  116       -1.545469   1.000000
  117       -1.363027   1.000000
  118       -1.292511   1.000000
  119       -1.187796   1.000000
  120       -1.047541   1.000000
  121       -1.004727   1.000000
  122       -0.883725   1.000000
  123       -0.793353   1.000000
  124       -0.779156   1.000000
  125       -0.673596   1.000007
  126       -0.568453   1.000169
  127       -0.470364   1.001777
  128       -0.369833   1.010927
  129       -0.312344   1.022533
  130       -0.156049   0.997344
  131       -0.123171   0.947313
  132       -0.014619   0.603151
  133        0.037005   0.386730
  134        0.047909   0.342599
  135        0.135147   0.068693
  136        0.219768  -0.029495
  137        0.256297  -0.035451
  138        0.295154  -0.030786
  139        0.397473  -0.009731
  140        0.468457  -0.002782
  141        0.546902  -0.000488
  142        0.619325  -0.000072
  143        0.635427  -0.000045
  144        0.756412  -0.000001
  145        0.794532  -0.000000
  146        0.816787  -0.000000
  147        0.924027  -0.000000
  148        0.946195  -0.000000
  149        1.014400  -0.000000
  150        1.035386  -0.000000
  151        1.091327  -0.000000
  152        1.129327  -0.000000
  153        1.165228  -0.000000
  154        1.215211  -0.000000
  155        1.266386  -0.000000
  156        1.295413  -0.000000
  157        1.317207  -0.000000
  158        1.352362  -0.000000
  159        1.395340  -0.000000
  160        1.419479  -0.000000
  161        1.466954  -0.000000
  162        1.546272  -0.000000
  163        1.553577  -0.000000
  164        1.640258  -0.000000
  165        1.719703  -0.000000
  166        1.829913  -0.000000
  167        2.216336  -0.000000
  168        2.302169  -0.000000

  0.2000000E+00  0.1111111E+00  0.1262379E-14  0.8888889E-01
    1      -13.942714   1.000000
    2      -13.022412   1.000000
    3      -12.770855   1.000000
    4      -12.225600   1.000000
    5      -12.102653   1.000000
    6      -12.033074   1.000000
    7      -11.554469   1.000000
    8      -11.474286   1.000000
    9      -11.294155   1.000000
   10      -11.277324   1.000000
   11      -11.082552   1.000000
   12      -11.010479   1.000000
   13      -10.819181   1.000000
   14      -10.582916   1.000000
   15      -10.519816   1.000000
   16      -10.272379   1.000000
   17      -10.236584   1.000000
   18       -9.958674   1.000000
   19       -9.841280   1.000000
   20       -9.748129   1.000000
   21       -9.609617   1.000000
   22       -9.572379   1.000000
   23       -9.286834   1.000000
   24       -9.261240   1.000000
   25       -8.989851   1.000000
   26       -8.678317   1.000000
   27       -8.419410   1.000000
   28       -8.244764   1.000000
   29       -8.196890   1.000000
   30       -8.127729   1.000000
   31       -8.020024   1.000000
   32       -7.877223   1.000000
   33       -7.665143   1.000000
   34       -7.491188   1.000000
   35       -7.291659   1.000000
   36       -7.188922   1.000000
   37       -7.037755   1.000000
   38       -6.916320   1.000000
   39       -6.823272   1.000000
   40       -6.735592   1.000000
   41       -6.693765   1.000000
   42       -6.633961   1.000000
   43       -6.545987   1.000000
   44       -6.510910   1.000000
   45       -6.352592   1.000000
   46       -6.277332   1.000000
   47       -6.106802   1.000000
   48       -6.001584   1.000000
   49       -5.884446   1.000000
   50       -5.826528   1.000000
   51       -5.644547   1.000000
   52       -5.628406   1.000000
   53       -5.575588   1.000000
   54       -5.498502   1.000000
   55       -5.392794   1.000000
   56       -5.326398   1.000000
   57       -5.225230   1.000000
   58       -5.158971   1.000000
   59       -5.073435   1.000000
   60       -5.023485   1.000000
   61       -4.977176   1.000000
   62       -4.849446   1.000000
   63       -4.785464   1.000000
   64       -4.689303   1.000000
   65       -4.607543   1.000000
   66       -4.592412   1.000000
   67       -4.511839   1.000000
   68       -4.470053   1.000000
   69       -4.372003   1.000000
   70       -4.324371   1.000000
   71       -4.289862   1.000000
   72       -4.175607   1.000000
   73       -4.150807   1.000000
   74       -4.111269   1.000000
   75       -4.057632   1.000000
   76       -4.011344   1.000000
   77       -3.933010   1.000000
   78       -3.872601   1.000000
   79       -3.848928   1.000000
   80       -3.814995   1.000000
   81       -3.726945   1.000000
   82       -3.643723   1.000000
   83       -3.561118   1.000000
   84       -3.531895   1.000000
   85       -3.454892   1.000000
   86       -3.379733   1.000000
   87       -3.334695   1.000000
   88       -3.238284   1.000000
   89       -3.168448   1.000000
   90       -3.136771   1.000000
   91       -3.058641   1.000000
   92       -2.981580   1.000000
   93       -2.929422   1.000000
   94       -2.856992   1.000000
   95       -2.739629   1.000000
   96       -2.709641   1.000000
   97       -2.621887   1.000000
   98       -2.573287   1.000000
   99       -2.534378   1.000000
  100       -2.511778   1.000000
  101       -2.420767   1.000000
  102       -2.367882   1.000000
  103       -2.283378   1.000000
  104       -2.259166   1.000000
  105       -2.211757   1.000000
  106       -2.179834   1.000000
  107       -2.108815   1.000000
  108       -2.033415   1.000000
  109       -1.957365   1.000000
  110       -1.846406   1.000000
  111       -1.794242   1.000000
  112       -1.757988   1.000000
  113       -1.681339   1.000000
  114       -1.610745   1.000000
  115       -1.575308   1.000000
  116       -1.524725   1.000000
  117       -1.381589   1.000000
  118       -1.295562   1.000000
  119       -1.220424   1.000000
  120       -1.108917   1.000000
  121       -1.060304   1.000000
  122       -0.896273   1.000000
  123       -0.838922   1.000000
  124       -0.781770   1.000000
  125       -0.708622   1.000002
  126       -0.675895   1.000007
  127       -0.480400   1.001432
  128       -0.386406   1.008474
  129       -0.343335   1.015752
  130       -0.223229   1.034882
  131       -0.134297   0.967090
  132       -0.031192   0.670122
  133        0.029124   0.419333
  134        0.095871   0.171017
  135        0.115143   0.116011
  136        0.153659   0.033841
  137        0.252948  -0.035443
  138        0.299186  -0.029973
  139        0.462989  -0.003098
  140        0.501948  -0.001382
  141        0.550393  -0.000448
  142        0.621888  -0.000067
  143        0.675662  -0.000013
  144        0.785023  -0.000000
  145        0.819561  -0.000000
  146        0.853355  -0.000000
  147        0.919568  -0.000000
  148        0.966930  -0.000000
  149        1.036709  -0.000000
  150        1.084096  -0.000000
  151        1.108295  -0.000000
  152        1.144084  -0.000000
  153        1.196083  -0.000000
  154        1.258929  -0.000000
  155        1.290308  -0.000000
  156        1.304545  -0.000000
  157        1.345096  -0.000000
  158        1.375850  -0.000000
  159        1.390441  -0.000000
  160        1.449512  -0.000000
  161        1.492160  -0.000000
  162        1.502030  -0.000000
  163        1.612086  -0.000000
  164        1.692265  -0.000000
  165        1.763510  -0.000000
  166        1.982701  -0.000000
  167        2.174425  -0.000000
  168        2.459007  -0.000000

  0.4000000E+00  0.1111111E+00  0.1262379E-14  0.8888889E-01
    1      -13.890770   1.000000
    2      -13.228106   1.000000
    3      -12.676449   1.000000
    4      -12.356766   1.000000
    5      -12.093479   1.000000
    6      -11.693293   1.000000
    7      -11.593731   1.000000
    8      -11.472095   1.000000
    9      -11.209752   1.000000
   10      -11.135790   1.000000
   11      -11.082860   1.000000
   12      -10.959916   1.000000
   13      -10.755647   1.000000
   14      -10.728371   1.000000
   15      -10.619019   1.000000
   16      -10.550088   1.000000
   17      -10.297385   1.000000
   18      -10.150503   1.000000
   19       -9.968581   1.000000
   20       -9.842832   1.000000
   21       -9.626775   1.000000
   22       -9.326300   1.000000
   23       -9.253652   1.000000
   24       -9.163179   1.000000
   25       -8.890082   1.000000
   26       -8.735414   1.000000
   27       -8.296121   1.000000
   28       -8.144128   1.000000
   29       -7.951757   1.000000
   30       -7.937782   1.000000
   31       -7.817919   1.000000
   32       -7.729718   1.000000
   33       -7.668769   1.000000
   34       -7.627926   1.000000
   35       -7.486451   1.000000
   36       -7.393180   1.000000
   37       -7.319179   1.000000
   38       -7.164119   1.000000
   39       -7.035619   1.000000
   40       -6.920424   1.000000
   41       -6.642510   1.000000
   42       -6.562011   1.000000
   43       -6.533723   1.000000
   44       -6.446781   1.000000
   45       -6.274497   1.000000
   46       -6.138880   1.000000
   47       -6.060945   1.000000
   48       -6.035536   1.000000
   49       -5.939010   1.000000
   50       -5.829327   1.000000
   51       -5.689966   1.000000