 running on   72 total cores
 distrk:  each k-point on   72 cores,    1 groups
 distr:  one band on    9 cores,    8 groups
 using from now: INCAR     
 vasp.5.4.4.18Apr17-6-g9f103f2a35 (build Dec  7 2020 12:43:57) complex           
 POSCAR found type information on POSCAR  Mo V  B 
 POSCAR found :  3 types and      69 ions
 scaLAPACK will be used

 ----------------------------------------------------------------------------- 
|                                                                             |
|  ADVICE TO THIS USER RUNNING 'VASP/VAMP'   (HEAR YOUR MASTER'S VOICE ...):  |
|                                                                             |
|      You enforced a specific xc-type in the INCAR file,                     |
|      a different type was found on the POTCAR file                          |
|          I HOPE YOU KNOW, WHAT YOU ARE  DOING                               |
|                                                                             |
 ----------------------------------------------------------------------------- 

 LDA part: xc-table for Pade appr. of Perdew
 POSCAR, INCAR and KPOINTS ok, starting setup
 resort distribution
 resort distribution
 resort distribution
 resort distribution
 resort distribution
 resort distribution
 resort distribution
 resort distribution
 resort distribution
 resort distribution
 resort distribution
 resort distribution
 resort distribution
 resort distribution
 resort distribution
 resort distribution
 resort distribution
 resort distribution
 resort distribution
 resort distribution
 resort distribution
 resort distribution
 resort distribution
 resort distribution
 resort distribution
 resort distribution
 resort distribution
 resort distribution
 resort distribution
 resort distribution
 resort distribution
 resort distribution
 resort distribution
 resort distribution
 resort distribution
 resort distribution
 resort distribution
 resort distribution
 resort distribution
 resort distribution
 resort distribution
 resort distribution
 resort distribution
 resort distribution
 resort distribution
 resort distribution
 resort distribution
 resort distribution
 resort distribution
 resort distribution
 resort distribution
 resort distribution
 resort distribution
 resort distribution
 resort distribution
 resort distribution
 resort distribution
 resort distribution
 resort distribution
 resort distribution
 resort distribution
 resort distribution
 resort distribution
 resort distribution
 resort distribution
 resort distribution
 resort distribution
 resort distribution
 resort distribution
 resort distribution
 resort distribution
 resort distribution
 FFT: planning ...
 WAVECAR not read
 augmentation electrons   264.01687632396943     
 soft         electrons   0.0000000000000000     
 augmentation electrons   264.01687632396943     
 soft         electrons   0.0000000000000000     
 augmentation electrons   264.01687632396943     
 soft         electrons   0.0000000000000000     
 augmentation electrons   264.01687632396943     
 soft         electrons   0.0000000000000000     
 augmentation electrons   264.01687632396943     
 soft         electrons   0.0000000000000000     
 augmentation electrons   264.01687632396943     
 soft         electrons   0.0000000000000000     
 augmentation electrons   264.01687632396943     
 soft         electrons   0.0000000000000000     
 augmentation electrons   264.01687632396943     
 soft         electrons   0.0000000000000000     
 augmentation electrons   264.01687632396943     
 soft         electrons   0.0000000000000000     
 augmentation electrons   264.01687632396943     
 soft         electrons   0.0000000000000000     
 augmentation electrons   264.01687632396943     
 soft         electrons   0.0000000000000000     
 augmentation electrons   264.01687632396943     
 soft         electrons   0.0000000000000000     
 augmentation electrons   264.01687632396943     
 soft         electrons   0.0000000000000000     
 augmentation electrons   264.01687632396943     
 soft         electrons   0.0000000000000000     
 augmentation electrons   264.01687632396943     
 soft         electrons   0.0000000000000000     
 augmentation electrons   264.01687632396943     
 soft         electrons   0.0000000000000000     
 augmentation electrons   264.01687632396943     
 soft         electrons   0.0000000000000000     
 augmentation electrons   264.01687632396943     
 soft         electrons   0.0000000000000000     
 augmentation electrons   264.01687632396943     
 soft         electrons   0.0000000000000000     
 augmentation electrons   264.01687632396943     
 soft         electrons   0.0000000000000000     
 augmentation electrons   264.01687632396943     
 soft         electrons   0.0000000000000000     
 augmentation electrons   264.01687632396943     
 soft         electrons   0.0000000000000000     
 augmentation electrons   264.01687632396943     
 soft         electrons   0.0000000000000000     
 augmentation electrons   264.01687632396943     
 soft         electrons   0.0000000000000000     
 augmentation electrons   264.01687632396943     
 soft         electrons   0.0000000000000000     
 augmentation electrons   264.01687632396943     
 soft         electrons   0.0000000000000000     
 augmentation electrons   264.01687632396943     
 soft         electrons   0.0000000000000000     
 augmentation electrons   264.01687632396943     
 soft         electrons   0.0000000000000000     
 augmentation electrons   264.01687632396943     
 soft         electrons   0.0000000000000000     
 augmentation electrons   264.01687632396943     
 soft         electrons   0.0000000000000000     
 augmentation electrons   264.01687632396943     
 soft         electrons   0.0000000000000000     
 augmentation electrons   264.01687632396943     
 soft         electrons   0.0000000000000000     
 augmentation electrons   264.01687632396943     
 soft         electrons   0.0000000000000000     
 augmentation electrons   264.01687632396943     
 soft         electrons   0.0000000000000000     
 augmentation electrons   264.01687632396943     
 soft         electrons   0.0000000000000000     
 augmentation electrons   264.01687632396943     
 soft         electrons   0.0000000000000000     
 augmentation electrons   264.01687632396943     
 soft         electrons   0.0000000000000000     
 augmentation electrons   264.01687632396943     
 soft         electrons   0.0000000000000000     
 augmentation electrons   264.01687632396943     
 soft         electrons   0.0000000000000000     
 augmentation electrons   264.01687632396943     
 soft         electrons   0.0000000000000000     
 augmentation electrons   264.01687632396943     
 soft         electrons   0.0000000000000000     
 augmentation electrons   264.01687632396943     
 soft         electrons   0.0000000000000000     
 augmentation electrons   264.01687632396943     
 soft         electrons   0.0000000000000000     
 augmentation electrons   264.01687632396943     
 soft         electrons   0.0000000000000000     
 augmentation electrons   264.01687632396943     
 soft         electrons   0.0000000000000000     
 augmentation electrons   264.01687632396943     
 soft         electrons   0.0000000000000000     
 augmentation electrons   264.01687632396943     
 soft         electrons   0.0000000000000000     
 augmentation electrons   264.01687632396943     
 soft         electrons   0.0000000000000000     
 augmentation electrons   264.01687632396943     
 soft         electrons   0.0000000000000000     
 augmentation electrons   264.01687632396943     
 soft         electrons   0.0000000000000000     
 augmentation electrons   264.01687632396943     
 soft         electrons   0.0000000000000000     
 augmentation electrons   264.01687632396943     
 soft         electrons   0.0000000000000000     
 augmentation electrons   264.01687632396943     
 soft         electrons   0.0000000000000000     
 augmentation electrons   264.01687632396943     
 soft         electrons   0.0000000000000000     
 augmentation electrons   264.01687632396943     
 soft         electrons   0.0000000000000000     
 augmentation electrons   264.01687632396943     
 soft         electrons   0.0000000000000000     
 augmentation electrons   264.01687632396943     
 soft         electrons   0.0000000000000000     
 augmentation electrons   264.01687632396943     
 soft         electrons   0.0000000000000000     
 augmentation electrons   264.01687632396943     
 soft         electrons   0.0000000000000000     
 augmentation electrons   264.01687632396943     
 soft         electrons   0.0000000000000000     
 augmentation electrons   264.01687632396943     
 soft         electrons   0.0000000000000000     
 augmentation electrons   264.01687632396943     
 soft         electrons   0.0000000000000000     
 augmentation electrons   264.01687632396943     
 soft         electrons   0.0000000000000000     
 augmentation electrons   264.01687632396943     
 soft         electrons   0.0000000000000000     
 augmentation electrons   264.01687632396943     
 soft         electrons   0.0000000000000000     
 augmentation electrons   264.01687632396943     
 soft         electrons   0.0000000000000000     
 augmentation electrons   264.01687632396943     
 soft         electrons   0.0000000000000000     
 augmentation electrons   264.01687632396943     
 soft         electrons   0.0000000000000000     
 augmentation electrons   264.01687632396943     
 soft         electrons   0.0000000000000000     
 augmentation electrons   264.01687632396943     
 soft         electrons   0.0000000000000000     
 augmentation electrons   264.01687632396943     
 soft         electrons   0.0000000000000000     
 augmentation electrons   264.01687632396943     
 soft         electrons   0.0000000000000000     
 total        electrons   264.01687632396943     
 total        electrons   264.01687632396943     
 total        electrons   264.01687632396943     
 total        electrons   264.01687632396943     
 total        electrons   264.01687632396943     
 total        electrons   264.01687632396943     
 total        electrons   264.01687632396943     
 total        electrons   264.01687632396943     
 total        electrons   264.01687632396943     
 total        electrons   264.01687632396943     
 total        electrons   264.01687632396943     
 total        electrons   264.01687632396943     
 total        electrons   264.01687632396943     
 total        electrons   264.01687632396943     
 total        electrons   264.01687632396943     
 total        electrons   264.01687632396943     
 total        electrons   264.01687632396943     
 total        electrons   264.01687632396943     
 total        electrons   264.01687632396943     
 total        electrons   264.01687632396943     
 total        electrons   264.01687632396943     
 total        electrons   264.01687632396943     
 total        electrons   264.01687632396943     
 total        electrons   264.01687632396943     
 total        electrons   264.01687632396943     
 total        electrons   264.01687632396943     
 total        electrons   264.01687632396943     
 total        electrons   264.01687632396943     
 total        electrons   264.01687632396943     
 total        electrons   264.01687632396943     
 total        electrons   264.01687632396943     
 total        electrons   264.01687632396943     
 total        electrons   264.01687632396943     
 total        electrons   264.01687632396943     
 total        electrons   264.01687632396943     
 total        electrons   264.01687632396943     
 total        electrons   264.01687632396943     
 total        electrons   264.01687632396943     
 total        electrons   264.01687632396943     
 total        electrons   264.01687632396943     
 total        electrons   264.01687632396943     
 total        electrons   264.01687632396943     
 total        electrons   264.01687632396943     
 total        electrons   264.01687632396943     
 total        electrons   264.01687632396943     
 total        electrons   264.01687632396943     
 total        electrons   264.01687632396943     
 total        electrons   264.01687632396943     
 total        electrons   264.01687632396943     
 total        electrons   264.01687632396943     
 total        electrons   264.01687632396943     
 total        electrons   264.01687632396943     
 total        electrons   264.01687632396943     
 total        electrons   264.01687632396943     
 total        electrons   264.01687632396943     
 total        electrons   264.01687632396943     
 total        electrons   264.01687632396943     
 total        electrons   264.01687632396943     
 total        electrons   264.01687632396943     
 total        electrons   264.01687632396943     
 total        electrons   264.01687632396943     
 total        electrons   264.01687632396943     
 total        electrons   264.01687632396943     
 total        electrons   264.01687632396943     
 total        electrons   264.01687632396943     
 total        electrons   264.01687632396943     
 total        electrons   264.01687632396943     
 total        electrons   264.01687632396943     
 total        electrons   264.01687632396943     
 total        electrons   264.01687632396943     
 total        electrons   264.01687632396943     
 total        electrons   264.01687632396943     
 augmentation electrons   853.25752882276413     
 soft         electrons   0.0000000000000000     
 augmentation electrons   853.25752882276413     
 soft         electrons   0.0000000000000000     
 augmentation electrons   853.25752882276413     
 soft         electrons   0.0000000000000000     
 augmentation electrons   853.25752882276413     
 soft         electrons   0.0000000000000000     
 augmentation electrons   853.25752882276413     
 soft         electrons   0.0000000000000000     
 augmentation electrons   853.25752882276413     
 soft         electrons   0.0000000000000000     
 augmentation electrons   853.25752882276413     
 soft         electrons   0.0000000000000000     
 augmentation electrons   853.25752882276413     
 soft         electrons   0.0000000000000000     
 augmentation electrons   853.25752882276413     
 soft         electrons   0.0000000000000000     
 augmentation electrons   853.25752882276413     
 soft         electrons   0.0000000000000000     
 augmentation electrons   853.25752882276413     
 soft         electrons   0.0000000000000000     
 augmentation electrons   853.25752882276413     
 soft         electrons   0.0000000000000000     
 augmentation electrons   853.25752882276413     
 soft         electrons   0.0000000000000000     
 augmentation electrons   853.25752882276413     
 soft         electrons   0.0000000000000000     
 augmentation electrons   853.25752882276413     
 soft         electrons   0.0000000000000000     
 augmentation electrons   853.25752882276413     
 soft         electrons   0.0000000000000000     
 augmentation electrons   853.25752882276413     
 soft         electrons   0.0000000000000000     
 augmentation electrons   853.25752882276413     
 soft         electrons   0.0000000000000000     
 augmentation electrons   853.25752882276413     
 soft         electrons   0.0000000000000000     
 augmentation electrons   853.25752882276413     
 soft         electrons   0.0000000000000000     
 augmentation electrons   853.25752882276413     
 soft         electrons   0.0000000000000000     
 augmentation electrons   853.25752882276413     
 soft         electrons   0.0000000000000000     
 augmentation electrons   853.25752882276413     
 soft         electrons   0.0000000000000000     
 augmentation electrons   853.25752882276413     
 soft         electrons   0.0000000000000000     
 augmentation electrons   853.25752882276413     
 soft         electrons   0.0000000000000000     
 augmentation electrons   853.25752882276413     
 soft         electrons   0.0000000000000000     
 augmentation electrons   853.25752882276413     
 soft         electrons   0.0000000000000000     
 augmentation electrons   853.25752882276413     
 soft         electrons   0.0000000000000000     
 augmentation electrons   853.25752882276413     
 soft         electrons   0.0000000000000000     
 augmentation electrons   853.25752882276413     
 soft         electrons   0.0000000000000000     
 augmentation electrons   853.25752882276413     
 soft         electrons   0.0000000000000000     
 augmentation electrons   853.25752882276413     
 soft         electrons   0.0000000000000000     
 augmentation electrons   853.25752882276413     
 soft         electrons   0.0000000000000000     
 augmentation electrons   853.25752882276413     
 soft         electrons   0.0000000000000000     
 augmentation electrons   853.25752882276413     
 soft         electrons   0.0000000000000000     
 augmentation electrons   853.25752882276413     
 soft         electrons   0.0000000000000000     
 augmentation electrons   853.25752882276413     
 soft         electrons   0.0000000000000000     
 augmentation electrons   853.25752882276413     
 soft         electrons   0.0000000000000000     
 augmentation electrons   853.25752882276413     
 soft         electrons   0.0000000000000000     
 augmentation electrons   853.25752882276413     
 soft         electrons   0.0000000000000000     
 augmentation electrons   853.25752882276413     
 soft         electrons   0.0000000000000000     
 augmentation electrons   853.25752882276413     
 soft         electrons   0.0000000000000000     
 augmentation electrons   853.25752882276413     
 augmentation electrons   853.25752882276413     
 soft         electrons   0.0000000000000000     
 augmentation electrons   853.25752882276413     
 soft         electrons   0.0000000000000000     
 augmentation electrons   853.25752882276413     
 soft         electrons   0.0000000000000000     
 augmentation electrons   853.25752882276413     
 soft         electrons   0.0000000000000000     
 augmentation electrons   853.25752882276413     
 soft         electrons   0.0000000000000000     
 augmentation electrons   853.25752882276413     
 soft         electrons   0.0000000000000000     
 augmentation electrons   853.25752882276413     
 soft         electrons   0.0000000000000000     
 augmentation electrons   853.25752882276413     
 soft         electrons   0.0000000000000000     
 augmentation electrons   853.25752882276413     
 soft         electrons   0.0000000000000000     
 augmentation electrons   853.25752882276413     
 soft         electrons   0.0000000000000000     
 augmentation electrons   853.25752882276413     
 soft         electrons   0.0000000000000000     
 augmentation electrons   853.25752882276413     
 soft         electrons   0.0000000000000000     
 augmentation electrons   853.25752882276413     
 soft         electrons   0.0000000000000000     
 augmentation electrons   853.25752882276413     
 soft         electrons   0.0000000000000000     
 augmentation electrons   853.25752882276413     
 soft         electrons   0.0000000000000000     
 augmentation electrons   853.25752882276413     
 soft         electrons   0.0000000000000000     
 augmentation electrons   853.25752882276413     
 soft         electrons   0.0000000000000000     
 augmentation electrons   853.25752882276413     
 soft         electrons   0.0000000000000000     
 augmentation electrons   853.25752882276413     
 soft         electrons   0.0000000000000000     
 augmentation electrons   853.25752882276413     
 soft         electrons   0.0000000000000000     
 augmentation electrons   853.25752882276413     
 soft         electrons   0.0000000000000000     
 augmentation electrons   853.25752882276413     
 soft         electrons   0.0000000000000000     
 augmentation electrons   853.25752882276413     
 soft         electrons   0.0000000000000000     
 augmentation electrons   853.25752882276413     
 soft         electrons   0.0000000000000000     
 augmentation electrons   853.25752882276413     
 soft         electrons   0.0000000000000000     
 augmentation electrons   853.25752882276413     
 soft         electrons   0.0000000000000000     
 augmentation electrons   853.25752882276413     
 soft         electrons   0.0000000000000000     
 soft         electrons   0.0000000000000000     
 total        electrons   853.25752882276413     
 total        electrons   853.25752882276413     
 total        electrons   853.25752882276413     
 total        electrons   853.25752882276413     
 augmentation electrons   853.25752882276413     
 soft         electrons   0.0000000000000000     
 total        electrons   853.25752882276413     
 total        electrons   853.25752882276413     
 total        electrons   853.25752882276413     
 total        electrons   853.25752882276413     
 total        electrons   853.25752882276413     
 total        electrons   853.25752882276413     
 total        electrons   853.25752882276413     
 total        electrons   853.25752882276413     
 total        electrons   853.25752882276413     
 total        electrons   853.25752882276413     
 total        electrons   853.25752882276413     
 augmentation electrons   853.25752882276413     
 soft         electrons   0.0000000000000000     
 total        electrons   853.25752882276413     
 total        electrons   853.25752882276413     
 total        electrons   853.25752882276413     
 total        electrons   853.25752882276413     
 total        electrons   853.25752882276413     
 total        electrons   853.25752882276413     
 total        electrons   853.25752882276413     
 total        electrons   853.25752882276413     
 total        electrons   853.25752882276413     
 total        electrons   853.25752882276413     
 total        electrons   853.25752882276413     
 total        electrons   853.25752882276413     
 total        electrons   853.25752882276413     
 total        electrons   853.25752882276413     
 total        electrons   853.25752882276413     
 total        electrons   853.25752882276413     
 total        electrons   853.25752882276413     
 total        electrons   853.25752882276413     
 total        electrons   853.25752882276413     
 total        electrons   853.25752882276413     
 total        electrons   853.25752882276413     
 total        electrons   853.25752882276413     
 total        electrons   853.25752882276413     
 total        electrons   853.25752882276413     
 total        electrons   853.25752882276413     
 total        electrons   853.25752882276413     
 total        electrons   853.25752882276413     
 total        electrons   853.25752882276413     
 total        electrons   853.25752882276413     
 total        electrons   853.25752882276413     
 total        electrons   853.25752882276413     
 total        electrons   853.25752882276413     
 total        electrons   853.25752882276413     
 total        electrons   853.25752882276413     
 total        electrons   853.25752882276413     
 total        electrons   853.25752882276413     
 total        electrons   853.25752882276413     
 total        electrons   853.25752882276413     
 total        electrons   853.25752882276413     
 total        electrons   853.25752882276413     
 total        electrons   853.25752882276413     
 total        electrons   853.25752882276413     
 total        electrons   853.25752882276413     
 total        electrons   853.25752882276413     
 total        electrons   853.25752882276413     
 total        electrons   853.25752882276413     
 total        electrons   853.25752882276413     
 total        electrons   853.25752882276413     
 total        electrons   853.25752882276413     
 total        electrons   853.25752882276413     
 total        electrons   853.25752882276413     
 total        electrons   853.25752882276413     
 total        electrons   853.25752882276413     
 total        electrons   853.25752882276413     
 total        electrons   853.25752882276413     
 total        electrons   853.25752882276413     
 total        electrons   853.25752882276413     
 entering main loop
       N       E                     dE             d eps       ncg     rms          rms(c)
DAV:   1     0.232798024395E+04    0.23280E+04   -0.94707E+04  5040   0.128E+03
DAV:   2    -0.158434716531E+03   -0.24864E+04   -0.23163E+04  5840   0.309E+02
DAV:   3    -0.585677728437E+03   -0.42724E+03   -0.40951E+03  7096   0.149E+02
DAV:   4    -0.621620967492E+03   -0.35943E+02   -0.34636E+02  8128   0.484E+01
DAV:   5    -0.623713635988E+03   -0.20927E+01   -0.20245E+01  8552   0.116E+01    0.134E+02
RMM:   6    -0.574168869669E+03    0.49545E+02   -0.12070E+03  8076   0.938E+01    0.634E+01
RMM:   7    -0.637096692556E+03   -0.62928E+02   -0.41213E+02  6386   0.697E+01    0.527E+01
RMM:   8    -0.563468361018E+03    0.73628E+02   -0.15945E+02  7091   0.269E+01    0.360E+01
RMM:   9    -0.531060667426E+03    0.32408E+02   -0.40868E+01  6725   0.191E+01    0.239E+01
RMM:  10    -0.521224935634E+03    0.98357E+01   -0.27266E+01  6622   0.141E+01    0.162E+01
RMM:  11    -0.520915627079E+03    0.30931E+00   -0.59569E+00  6804   0.657E+00    0.142E+01
RMM:  12    -0.520733797484E+03    0.18183E+00   -0.19306E+00  6976   0.271E+00    0.127E+01
RMM:  13    -0.520487516797E+03    0.24628E+00   -0.77643E-01  6378   0.253E+00    0.111E+01
RMM:  14    -0.520448519713E+03    0.38997E-01   -0.32555E+00  5890   0.598E+00    0.779E+00
RMM:  15    -0.519860571694E+03    0.58795E+00   -0.14646E+00  5857   0.414E+00    0.359E+00
RMM:  16    -0.519763380691E+03    0.97191E-01   -0.95197E-01  7442   0.202E+00    0.217E+00
RMM:  17    -0.519743309007E+03    0.20072E-01   -0.37953E-01  7136   0.151E+00    0.168E+00
RMM:  18    -0.519734029792E+03    0.92792E-02   -0.20952E-01  7390   0.108E+00    0.130E+00
RMM:  19    -0.519712481730E+03    0.21548E-01   -0.89672E-02  6246   0.884E-01    0.708E-01
RMM:  20    -0.519708468947E+03    0.40128E-02   -0.49849E-02  7486   0.472E-01    0.609E-01
RMM:  21    -0.519703151973E+03    0.53170E-02   -0.14745E-02  6150   0.356E-01    0.276E-01
RMM:  22    -0.519702734211E+03    0.41776E-03   -0.78677E-03  7717   0.144E-01    0.194E-01
RMM:  23    -0.519702105486E+03    0.62872E-03   -0.26294E-03  7339   0.113E-01    0.125E-01
RMM:  24    -0.519701369326E+03    0.73616E-03   -0.19644E-03  6411   0.125E-01    0.147E-01
RMM:  25    -0.519700729194E+03    0.64013E-03   -0.14340E-03  6692   0.901E-02    0.125E-01
RMM:  26    -0.519700800010E+03   -0.70816E-04   -0.69325E-04  6879   0.651E-02    0.457E-02
RMM:  27    -0.519701485897E+03   -0.68589E-03   -0.67528E-04  7022   0.530E-02    0.406E-02
RMM:  28    -0.519701919129E+03   -0.43323E-03   -0.31494E-04  6397   0.434E-02    0.533E-02
RMM:  29    -0.519702212961E+03   -0.29383E-03   -0.28761E-04  6970   0.303E-02    0.257E-02
RMM:  30    -0.519702349748E+03   -0.13679E-03   -0.12510E-04  6993   0.224E-02    0.174E-02
RMM:  31    -0.519702409737E+03   -0.59990E-04   -0.53986E-05  6030   0.170E-02    0.186E-02
RMM:  32    -0.519702533327E+03   -0.12359E-03   -0.26326E-05  5529   0.127E-02    0.112E-02
RMM:  33    -0.519702577491E+03   -0.44164E-04   -0.21577E-05  5124   0.748E-03    0.780E-03
RMM:  34    -0.519702727530E+03   -0.15004E-03   -0.19798E-05  5666   0.123E-02    0.122E-02
RMM:  35    -0.519702833058E+03   -0.10553E-03   -0.12132E-05  4897   0.732E-03    0.539E-03
RMM:  36    -0.519702911794E+03   -0.78735E-04   -0.80611E-06  4623   0.569E-03    0.874E-03
RMM:  37    -0.519702938620E+03   -0.26826E-04   -0.33745E-06  4377   0.551E-03    0.207E-03
RMM:  38    -0.519702959573E+03   -0.20954E-04   -0.21220E-06  4177   0.380E-03    0.372E-03
RMM:  39    -0.519702973636E+03   -0.14063E-04   -0.18415E-06  4101   0.352E-03    0.132E-03
RMM:  40    -0.519702978511E+03   -0.48750E-05   -0.81925E-07  3700   0.248E-03    0.121E-03
RMM:  41    -0.519702981285E+03   -0.27735E-05   -0.46865E-07  3201   0.181E-03    0.497E-04
RMM:  42    -0.519702982601E+03   -0.13163E-05   -0.28138E-07  2812   0.132E-03    0.592E-04
RMM:  43    -0.519702983842E+03   -0.12412E-05   -0.22581E-07  2638   0.116E-03    0.318E-04
RMM:  44    -0.519702984055E+03   -0.21257E-06   -0.11886E-07  2133   0.957E-04
   1 F= -.51970298E+03 E0= -.51969000E+03  d E =-.389401E-01
 augmentation electrons   27.504472800021663     
 soft         electrons   236.57130256361344     
 augmentation electrons   27.504472800021663     
 soft         electrons   236.57130256361344     
 augmentation electrons   27.504472800021663     
 soft         electrons   236.57130256361344     
 augmentation electrons   27.504472800021663     
 soft         electrons   236.57130256361344     
 augmentation electrons   27.504472800021663     
 soft         electrons   236.57130256361344     
 augmentation electrons   27.504472800021663     
 soft         electrons   236.57130256361344     
 augmentation electrons   27.504472800021663     
 soft         electrons   236.57130256361344     
 augmentation electrons   27.504472800021663     
 soft         electrons   236.57130256361344     
 augmentation electrons   27.504472800021663     
 soft         electrons   236.57130256361344     
 augmentation electrons   27.504472800021663     
 soft         electrons   236.57130256361344     
 augmentation electrons   27.504472800021663     
 soft         electrons   236.57130256361344     
 augmentation electrons   27.504472800021663     
 soft         electrons   236.57130256361344     
 augmentation electrons   27.504472800021663     
 soft         electrons   236.57130256361344     
 augmentation electrons   27.504472800021663     
 soft         electrons   236.57130256361344     
 augmentation electrons   27.504472800021663     
 soft         electrons   236.57130256361344     
 augmentation electrons   27.504472800021663     
 soft         electrons   236.57130256361344     
 augmentation electrons   27.504472800021663     
 soft         electrons   236.57130256361344     
 augmentation electrons   27.504472800021663     
 soft         electrons   236.57130256361344     
 augmentation electrons   27.504472800021663     
 soft         electrons   236.57130256361344     
 augmentation electrons   27.504472800021663     
 soft         electrons   236.57130256361344     
 augmentation electrons   27.504472800021663     
 soft         electrons   236.57130256361344     
 augmentation electrons   27.504472800021663     
 soft         electrons   236.57130256361344     
 augmentation electrons   27.504472800021663     
 soft         electrons   236.57130256361344     
 augmentation electrons   27.504472800021663     
 soft         electrons   236.57130256361344     
 augmentation electrons   27.504472800021663     
 soft         electrons   236.57130256361344     
 augmentation electrons   27.504472800021663     
 soft         electrons   236.57130256361344     
 augmentation electrons   27.504472800021663     
 soft         electrons   236.57130256361344     
 augmentation electrons   27.504472800021663     
 soft         electrons   236.57130256361344     
 augmentation electrons   27.504472800021663     
 soft         electrons   236.57130256361344     
 augmentation electrons   27.504472800021663     
 soft         electrons   236.57130256361344     
 augmentation electrons   27.504472800021663     
 soft         electrons   236.57130256361344     
 augmentation electrons   27.504472800021663     
 soft         electrons   236.57130256361344     
 augmentation electrons   27.504472800021663     
 soft         electrons   236.57130256361344     
 augmentation electrons   27.504472800021663     
 soft         electrons   236.57130256361344     
 augmentation electrons   27.504472800021663     
 soft         electrons   236.57130256361344     
 augmentation electrons   27.504472800021663     
 soft         electrons   236.57130256361344     
 augmentation electrons   27.504472800021663     
 soft         electrons   236.57130256361344     
 augmentation electrons   27.504472800021663     
 soft         electrons   236.57130256361344     
 augmentation electrons   27.504472800021663     
 soft         electrons   236.57130256361344     
 augmentation electrons   27.504472800021663     
 soft         electrons   236.57130256361344     
 augmentation electrons   27.504472800021663     
 soft         electrons   236.57130256361344     
 augmentation electrons   27.504472800021663     
 soft         electrons   236.57130256361344     
 augmentation electrons   27.504472800021663     
 soft         electrons   236.57130256361344     
 augmentation electrons   27.504472800021663     
 soft         electrons   236.57130256361344     
 augmentation electrons   27.504472800021663     
 soft         electrons   236.57130256361344     
 augmentation electrons   27.504472800021663     
 soft         electrons   236.57130256361344     
 augmentation electrons   27.504472800021663     
 soft         electrons   236.57130256361344     
 augmentation electrons   27.504472800021663     
 soft         electrons   236.57130256361344     
 augmentation electrons   27.504472800021663     
 soft         electrons   236.57130256361344     
 augmentation electrons   27.504472800021663     
 soft         electrons   236.57130256361344     
 augmentation electrons   27.504472800021663     
 soft         electrons   236.57130256361344     
 augmentation electrons   27.504472800021663     
 soft         electrons   236.57130256361344     
 augmentation electrons   27.504472800021663     
 soft         electrons   236.57130256361344     
 augmentation electrons   27.504472800021663     
 soft         electrons   236.57130256361344     
 augmentation electrons   27.504472800021663     
 soft         electrons   236.57130256361344     
 augmentation electrons   27.504472800021663     
 soft         electrons   236.57130256361344     
 augmentation electrons   27.504472800021663     
 soft         electrons   236.57130256361344     
 augmentation electrons   27.504472800021663     
 soft         electrons   236.57130256361344     
 augmentation electrons   27.504472800021663     
 soft         electrons   236.57130256361344     
 augmentation electrons   27.504472800021663     
 soft         electrons   236.57130256361344     
 augmentation electrons   27.504472800021663     
 soft         electrons   236.57130256361344     
 augmentation electrons   27.504472800021663     
 soft         electrons   236.57130256361344     
 augmentation electrons   27.504472800021663     
 soft         electrons   236.57130256361344     
 augmentation electrons   27.504472800021663     
 soft         electrons   236.57130256361344     
 augmentation electrons   27.504472800021663     
 soft         electrons   236.57130256361344     
 augmentation electrons   27.504472800021663     
 soft         electrons   236.57130256361344     
 augmentation electrons   27.504472800021663     
 soft         electrons   236.57130256361344     
 augmentation electrons   27.504472800021663     
 soft         electrons   236.57130256361344     
 augmentation electrons   27.504472800021663     
 soft         electrons   236.57130256361344     
 augmentation electrons   27.504472800021663     
 soft         electrons   236.57130256361344     
 augmentation electrons   27.504472800021663     
 soft         electrons   236.57130256361344     
 augmentation electrons   27.504472800021663     
 soft         electrons   236.57130256361344     
 total        electrons   264.07577536363510     
 total        electrons   264.07577536363510     
 total        electrons   264.07577536363510     
 total        electrons   264.07577536363510     
 total        electrons   264.07577536363510     
 total        electrons   264.07577536363510     
 total        electrons   264.07577536363510     
 total        electrons   264.07577536363510     
 total        electrons   264.07577536363510     
 total        electrons   264.07577536363510     
 total        electrons   264.07577536363510     
 total        electrons   264.07577536363510     
 total        electrons   264.07577536363510     
 total        electrons   264.07577536363510     
 total        electrons   264.07577536363510     
 total        electrons   264.07577536363510     
 total        electrons   264.07577536363510     
 total        electrons   264.07577536363510     
 total        electrons   264.07577536363510     
 total        electrons   264.07577536363510     
 total        electrons   264.07577536363510     
 total        electrons   264.07577536363510     
 total        electrons   264.07577536363510     
 total        electrons   264.07577536363510     
 total        electrons   264.07577536363510     
 total        electrons   264.07577536363510     
 total        electrons   264.07577536363510     
 total        electrons   264.07577536363510     
 total        electrons   264.07577536363510     
 total        electrons   264.07577536363510     
 total        electrons   264.07577536363510     
 total        electrons   264.07577536363510     
 total        electrons   264.07577536363510     
 total        electrons   264.07577536363510     
 total        electrons   264.07577536363510     
 total        electrons   264.07577536363510     
 total        electrons   264.07577536363510     
 total        electrons   264.07577536363510     
 total        electrons   264.07577536363510     
 total        electrons   264.07577536363510     
 total        electrons   264.07577536363510     
 total        electrons   264.07577536363510     
 total        electrons   264.07577536363510     
 total        electrons   264.07577536363510     
 total        electrons   264.07577536363510     
 total        electrons   264.07577536363510     
 total        electrons   264.07577536363510     
 total        electrons   264.07577536363510     
 total        electrons   264.07577536363510     
 total        electrons   264.07577536363510     
 total        electrons   264.07577536363510     
 total        electrons   264.07577536363510     
 total        electrons   264.07577536363510     
 total        electrons   264.07577536363510     
 total        electrons   264.07577536363510     
 total        electrons   264.07577536363510     
 total        electrons   264.07577536363510     
 total        electrons   264.07577536363510     
 total        electrons   264.07577536363510     
 total        electrons   264.07577536363510     
 total        electrons   264.07577536363510     
 total        electrons   264.07577536363510     
 total        electrons   264.07577536363510     
 total        electrons   264.07577536363510     
 total        electrons   264.07577536363510     
 total        electrons   264.07577536363510     
 total        electrons   264.07577536363510     
 total        electrons   264.07577536363510     
 total        electrons   264.07577536363510     
 total        electrons   264.07577536363510     
 total        electrons   264.07577536363510     
 total        electrons   264.07577536363510     
Note: The following floating-point exceptions are signalling: IEEE_OVERFLOW_FLAG
Note: The following floating-point exceptions are signalling: IEEE_OVERFLOW_FLAG
Note: The following floating-point exceptions are signalling: IEEE_OVERFLOW_FLAG
Note: The following floating-point exceptions are signalling: IEEE_OVERFLOW_FLAG
Note: The following floating-point exceptions are signalling: IEEE_OVERFLOW_FLAG
Note: The following floating-point exceptions are signalling: IEEE_OVERFLOW_FLAG
Note: The following floating-point exceptions are signalling: IEEE_OVERFLOW_FLAG
Note: The following floating-point exceptions are signalling: IEEE_OVERFLOW_FLAG
Note: The following floating-point exceptions are signalling: IEEE_OVERFLOW_FLAG
Note: The following floating-point exceptions are signalling: IEEE_OVERFLOW_FLAG
Note: The following floating-point exceptions are signalling: IEEE_OVERFLOW_FLAG
Note: The following floating-point exceptions are signalling: IEEE_OVERFLOW_FLAG
Note: The following floating-point exceptions are signalling: IEEE_OVERFLOW_FLAG
Note: The following floating-point exceptions are signalling: IEEE_OVERFLOW_FLAG
Note: The following floating-point exceptions are signalling: IEEE_OVERFLOW_FLAG
Note: The following floating-point exceptions are signalling: IEEE_OVERFLOW_FLAG
Note: The following floating-point exceptions are signalling: IEEE_OVERFLOW_FLAG
Note: The following floating-point exceptions are signalling: IEEE_OVERFLOW_FLAG
Note: The following floating-point exceptions are signalling: IEEE_OVERFLOW_FLAG
Note: The following floating-point exceptions are signalling: IEEE_OVERFLOW_FLAG
Note: The following floating-point exceptions are signalling: IEEE_OVERFLOW_FLAG
Note: The following floating-point exceptions are signalling: IEEE_OVERFLOW_FLAG
Note: The following floating-point exceptions are signalling: IEEE_OVERFLOW_FLAG
Note: The following floating-point exceptions are signalling: IEEE_OVERFLOW_FLAG
Note: The following floating-point exceptions are signalling: IEEE_OVERFLOW_FLAG
Note: The following floating-point exceptions are signalling: IEEE_OVERFLOW_FLAG
Note: The following floating-point exceptions are signalling: IEEE_OVERFLOW_FLAG
Note: The following floating-point exceptions are signalling: IEEE_OVERFLOW_FLAG
Note: The following floating-point exceptions are signalling: IEEE_OVERFLOW_FLAG
Note: The following floating-point exceptions are signalling: IEEE_OVERFLOW_FLAG
Note: The following floating-point exceptions are signalling: IEEE_OVERFLOW_FLAG
Note: The following floating-point exceptions are signalling: IEEE_OVERFLOW_FLAG
Note: The following floating-point exceptions are signalling: IEEE_OVERFLOW_FLAG
Note: The following floating-point exceptions are signalling: IEEE_OVERFLOW_FLAG
Note: The following floating-point exceptions are signalling: IEEE_OVERFLOW_FLAG
Note: The following floating-point exceptions are signalling: IEEE_OVERFLOW_FLAG
Note: The following floating-point exceptions are signalling: IEEE_OVERFLOW_FLAG
Note: The following floating-point exceptions are signalling: IEEE_INVALID_FLAG IEEE_OVERFLOW_FLAG
Note: The following floating-point exceptions are signalling: IEEE_OVERFLOW_FLAG
Note: The following floating-point exceptions are signalling: IEEE_OVERFLOW_FLAG
Note: The following floating-point exceptions are signalling: IEEE_OVERFLOW_FLAG
Note: The following floating-point exceptions are signalling: IEEE_OVERFLOW_FLAG
Note: The following floating-point exceptions are signalling: IEEE_OVERFLOW_FLAG
Note: The following floating-point exceptions are signalling: IEEE_OVERFLOW_FLAG
Note: The following floating-point exceptions are signalling: IEEE_OVERFLOW_FLAG
Note: The following floating-point exceptions are signalling: IEEE_OVERFLOW_FLAG
Note: The following floating-point exceptions are signalling: IEEE_OVERFLOW_FLAG
Note: The following floating-point exceptions are signalling: IEEE_OVERFLOW_FLAG
Note: The following floating-point exceptions are signalling: IEEE_OVERFLOW_FLAG
Note: The following floating-point exceptions are signalling: IEEE_OVERFLOW_FLAG
Note: The following floating-point exceptions are signalling: IEEE_OVERFLOW_FLAG
Note: The following floating-point exceptions are signalling: IEEE_OVERFLOW_FLAG
Note: The following floating-point exceptions are signalling: IEEE_OVERFLOW_FLAG
Note: The following floating-point exceptions are signalling: IEEE_OVERFLOW_FLAG
Note: The following floating-point exceptions are signalling: IEEE_OVERFLOW_FLAG
Note: The following floating-point exceptions are signalling: IEEE_OVERFLOW_FLAG
Note: The following floating-point exceptions are signalling: IEEE_OVERFLOW_FLAG
Note: The following floating-point exceptions are signalling: IEEE_OVERFLOW_FLAG
Note: The following floating-point exceptions are signalling: IEEE_OVERFLOW_FLAG
Note: The following floating-point exceptions are signalling: IEEE_OVERFLOW_FLAG
Note: The following floating-point exceptions are signalling: IEEE_OVERFLOW_FLAG
Note: The following floating-point exceptions are signalling: IEEE_OVERFLOW_FLAG
Note: The following floating-point exceptions are signalling: IEEE_OVERFLOW_FLAG
Note: The following floating-point exceptions are signalling: IEEE_OVERFLOW_FLAG
Note: The following floating-point exceptions are signalling: IEEE_OVERFLOW_FLAG
Note: The following floating-point exceptions are signalling: IEEE_OVERFLOW_FLAG
Note: The following floating-point exceptions are signalling: IEEE_OVERFLOW_FLAG
Note: The following floating-point exceptions are signalling: IEEE_INVALID_FLAG IEEE_OVERFLOW_FLAG
Note: The following floating-point exceptions are signalling: IEEE_OVERFLOW_FLAG
Note: The following floating-point exceptions are signalling: IEEE_OVERFLOW_FLAG
Note: The following floating-point exceptions are signalling: IEEE_INVALID_FLAG IEEE_OVERFLOW_FLAG
Note: The following floating-point exceptions are signalling: IEEE_OVERFLOW_FLAG
