   24   24   60    1
  0.8144829E+01  0.6023873E-09  0.6023873E-09  0.6222041E-09  0.5000000E-15
   1.0000000000000000E-004
  CAR 
 Name                                    
     94    125     60

  0.3742002E-15  0.3742002E-15  0.3742002E-15  0.1371742E-02
    1       -5.456477   1.000000
    2       -3.065042   1.000000
    3       -2.313817   1.000000
    4       -2.179720   1.000000
    5       -2.035234   1.000000
    6       -1.559735   1.000000
    7       -1.516041   1.000000
    8       -1.505325   1.000000
    9       -0.910154   1.000000
   10       -0.875677   1.000000
   11       -0.820588   1.000000
   12        0.324463   1.000000
   13        0.861518   1.000000
   14        0.982385   1.000000
   15        1.064883   1.000000
   16        2.622310   1.000000
   17        2.674638   1.000000
   18        2.821539   1.000000
   19        3.137366   1.000000
   20        3.405926   1.000000
   21        3.535556   1.000000
   22        3.965530   1.000000
   23        4.278044   1.000000
   24        4.373203   1.000000
   25        4.562899   1.000000
   26        4.817230   1.000000
   27        4.894882   1.000000
   28        4.943050   1.000000
   29        4.984060   1.000000
   30        4.991837   1.000000
   31        5.017105   1.000000
   32        5.068980   1.000000
   33        5.449335   1.000000
   34        5.483565   1.000000
   35        5.514614   1.000000
   36        5.539340   1.000000
   37        6.553573   1.000000
   38        6.913658   1.000000
   39        7.011257   1.000000
   40        7.724233   1.000000
   41        7.769239   1.000000
   42        7.908790   1.000000
   43        7.919534   1.000000
   44        8.959268   1.000000
   45        8.964956   1.000000
   46        9.071108   1.000000
   47        9.706250   1.002054
   48        9.723601   1.004072
   49       10.410720  -0.000000
   50       10.853027  -0.000000
   51       10.956580  -0.000000
   52       11.039850  -0.000000
   53       11.108213  -0.000000
   54       11.250596  -0.000000
   55       11.315201  -0.000000
   56       11.393086  -0.000000
   57       11.513394  -0.000000
   58       11.833076  -0.000000
   59       11.983997  -0.000000
   60       12.162945  -0.000000

  0.1111111E+00  0.3747219E-15  0.3742002E-15  0.5486968E-02
    1       -5.394061   1.000000
    2       -3.050781   1.000000
    3       -2.322095   1.000000
    4       -2.159625   1.000000
    5       -2.063058   1.000000
    6       -2.040165   1.000000
    7       -1.663511   1.000000
    8       -1.653396   1.000000
    9       -0.661569   1.000000
   10       -0.658827   1.000000
   11       -0.323965   1.000000
   12        0.414264   1.000000
   13        0.887262   1.000000
   14        0.915217   1.000000
   15        1.115168   1.000000
   16        2.670009   1.000000
   17        2.722277   1.000000
   18        2.872104   1.000000
   19        3.149314   1.000000
   20        3.455737   1.000000
   21        3.527128   1.000000
   22        4.015786   1.000000
   23        4.136492   1.000000
   24        4.203540   1.000000
   25        4.321945   1.000000
   26        4.395059   1.000000
   27        4.671404   1.000000
   28        4.866594   1.000000
   29        4.940910   1.000000
   30        5.054196   1.000000
   31        5.232052   1.000000
   32        5.414910   1.000000
   33        5.415381   1.000000
   34        5.488449   1.000000
   35        5.738556   1.000000
   36        5.872746   1.000000
   37        6.327885   1.000000
   38        6.401803   1.000000
   39        6.411828   1.000000
   40        7.748520   1.000000
   41        7.994317   1.000000
   42        8.289434   1.000000
   43        8.394102   1.000000
   44        8.700043   1.000000
   45        8.741170   1.000000
   46        9.049197   1.000000
   47        9.687009   1.000884
   48        9.920383   0.685773
   49       10.436781  -0.000000
   50       10.776438  -0.000000
   51       10.837656  -0.000000
   52       10.976424  -0.000000
   53       11.042939  -0.000000
   54       11.231822  -0.000000
   55       11.298500  -0.000000
   56       11.357703  -0.000000
   57       11.395503  -0.000000
   58       11.614704  -0.000000
   59       11.917231  -0.000000
   60       12.087319  -0.000000

  0.2222222E+00  0.3915532E-15  0.3742002E-15  0.5486968E-02
    1       -5.208740   1.000000
    2       -3.007125   1.000000
    3       -2.735476   1.000000
    4       -2.389505   1.000000
    5       -2.107082   1.000000
    6       -2.082405   1.000000
    7       -1.865419   1.000000
    8       -1.859168   1.000000
    9       -0.227710   1.000000
   10       -0.221024   1.000000
   11        0.445298   1.000000
   12        0.685443   1.000000
   13        0.756524   1.000000
   14        0.770952   1.000000
   15        1.464691   1.000000
   16        2.788715   1.000000
   17        2.827858   1.000000
   18        3.019102   1.000000
   19        3.059348   1.000000
   20        3.445032   1.000000
   21        3.464285   1.000000
   22        3.567645   1.000000
   23        3.597058   1.000000
   24        4.156997   1.000000
   25        4.208295   1.000000
   26        4.445933   1.000000
   27        4.448432   1.000000
   28        4.840616   1.000000
   29        5.062129   1.000000
   30        5.098523   1.000000
   31        5.249692   1.000000
   32        5.301712   1.000000
   33        5.391003   1.000000
   34        5.419389   1.000000
   35        5.463677   1.000000
   36        5.637579   1.000000
   37        6.040737   1.000000
   38        6.448653   1.000000
   39        6.552717   1.000000
   40        7.341293   1.000000
   41        8.137675   1.000000
   42        8.146341   1.000000
   43        8.218724   1.000000
   44        9.074320   1.000000
   45        9.094053   1.000000
   46        9.368739   1.000000
   47        9.621590   1.000027
   48       10.431637  -0.000000
   49       10.433999  -0.000000
   50       10.446584  -0.000000
   51       10.513650  -0.000000
   52       10.704401  -0.000000
   53       10.847241  -0.000000
   54       11.178840  -0.000000
   55       11.198873  -0.000000
   56       11.327265  -0.000000
   57       11.393498  -0.000000
   58       11.446979  -0.000000
   59       11.548235  -0.000000
   60       12.015251  -0.000000

  0.3333333E+00  0.4235786E-15  0.3742002E-15  0.5486968E-02
    1       -4.906105   1.000000
    2       -3.394363   1.000000
    3       -2.932105   1.000000
    4       -2.530817   1.000000
    5       -2.046307   1.000000
    6       -2.044485   1.000000
    7       -2.015858   1.000000
    8       -2.012411   1.000000
    9        0.278710   1.000000
   10        0.289177   1.000000
   11        0.590119   1.000000
   12        0.608520   1.000000
   13        1.059822   1.000000
   14        1.285740   1.000000
   15        2.030755   1.000000
   16        2.634798   1.000000
   17        2.763003   1.000000
   18        2.836101   1.000000
   19        2.911410   1.000000
   20        2.925723   1.000000
   21        3.275878   1.000000
   22        3.512536   1.000000
   23        3.801336   1.000000
   24        3.808829   1.000000
   25        4.262719   1.000000
   26        4.378787   1.000000
   27        4.630952   1.000000
   28        4.753965   1.000000
   29        4.763044   1.000000
   30        4.951961   1.000000
   31        5.046567   1.000000
   32        5.120571   1.000000
   33        5.219553   1.000000
   34        5.307020   1.000000
   35        5.470631   1.000000
   36        5.529499   1.000000
   37        5.610461   1.000000
   38        6.726753   1.000000
   39        7.251913   1.000000
   40        7.252414   1.000000
   41        7.586687   1.000000
   42        7.595053   1.000000
   43        8.566061   1.000000
   44        9.174066   1.000000
   45        9.523824   1.000000
   46        9.811701   1.034405
   47        9.817420   1.035319
   48        9.833054   1.032589
   49       10.187195  -0.001492
   50       10.335550  -0.000000
   51       10.629188  -0.000000
   52       10.747527  -0.000000
   53       10.762449  -0.000000
   54       10.870209  -0.000000
   55       11.073425  -0.000000
   56       11.084594  -0.000000
   57       11.229214  -0.000000
   58       11.322432  -0.000000
   59       11.428346  -0.000000
   60       11.604718  -0.000000

  0.4444444E+00  0.3534447E-15  0.3742002E-15  0.5486968E-02
    1       -4.494907   1.000000
    2       -3.986467   1.000000
    3       -2.824562   1.000000
    4       -2.686962   1.000000
    5       -2.092935   1.000000
    6       -2.091826   1.000000
    7       -2.006170   1.000000
    8       -2.003209   1.000000
    9        0.489766   1.000000
   10        0.497693   1.000000
   11        0.731442   1.000000
   12        0.739093   1.000000
   13        1.590264   1.000000
   14        2.062932   1.000000
   15        2.090947   1.000000
   16        2.227684   1.000000
   17        2.296465   1.000000
   18        2.720161   1.000000
   19        2.832890   1.000000
   20        2.970611   1.000000
   21        3.000786   1.000000
   22        3.556997   1.000000
   23        3.650387   1.000000
   24        3.988752   1.000000
   25        3.996462   1.000000
   26        4.103431   1.000000
   27        4.638776   1.000000
   28        4.698011   1.000000
   29        4.798138   1.000000
   30        4.813543   1.000000
   31        4.894245   1.000000
   32        5.145144   1.000000
   33        5.170496   1.000000
   34        5.192033   1.000000
   35        5.477134   1.000000
   36        5.539640   1.000000
   37        5.800882   1.000000
   38        6.233407   1.000000
   39        7.241249   1.000000
   40        7.244115   1.000000
   41        7.851211   1.000000
   42        7.858677   1.000000
   43        8.934670   1.000000
   44        9.163955   1.000000
   45        9.285766   1.000000
   46        9.319526   1.000000
   47        9.406950   1.000000
   48        9.642458   1.000091
   49       10.459524  -0.000000
   50       10.495585  -0.000000
   51       10.498061  -0.000000
   52       10.764216  -0.000000
   53       10.788028  -0.000000
   54       10.908344  -0.000000
   55       10.943175  -0.000000
   56       11.125824  -0.000000
   57       11.268967  -0.000000
   58       11.280667  -0.000000
   59       11.329339  -0.000000
   60       11.445237  -0.000000

  0.1111111E+00  0.1111111E+00  0.3742002E-15  0.2743484E-02
    1       -5.270151   1.000000
    2       -3.019816   1.000000
    3       -2.355731   1.000000
    4       -2.340553   1.000000
    5       -2.335396   1.000000
    6       -2.183496   1.000000
    7       -2.047528   1.000000
    8       -1.304958   1.000000
    9       -0.799189   1.000000
   10        0.014222   1.000000
   11        0.143053   1.000000
   12        0.593696   1.000000
   13        0.614122   1.000000
   14        1.162558   1.000000
   15        1.191826   1.000000
   16        2.726404   1.000000
   17        2.777986   1.000000
   18        3.009487   1.000000
   19        3.127321   1.000000
   20        3.391852   1.000000
   21        3.436270   1.000000
   22        3.641395   1.000000
   23        4.115497   1.000000
   24        4.174704   1.000000
   25        4.411834   1.000000
   26        4.413328   1.000000
   27        4.415680   1.000000
   28        4.434175   1.000000
   29        4.746657   1.000000
   30        5.294226   1.000000
   31        5.332672   1.000000
   32        5.398880   1.000000
   33        5.411330   1.000000
   34        5.660792   1.000000
   35        5.743865   1.000000
   36        5.777215   1.000000
   37        5.869166   1.000000
   38        6.139665   1.000000
   39        6.538707   1.000000
   40        7.483922   1.000000
   41        8.086089   1.000000
   42        8.134389   1.000000
   43        8.732199   1.000000
   44        8.756907   1.000000
   45        8.944777   1.000000
   46        9.124999   1.000000
   47        9.630681   1.000046
   48       10.283172  -0.000008
   49       10.486974  -0.000000
   50       10.607078  -0.000000
   51       10.624940  -0.000000
   52       10.750848  -0.000000
   53       10.912989  -0.000000
   54       11.087735  -0.000000
   55       11.198613  -0.000000
   56       11.346260  -0.000000
   57       11.415349  -0.000000
   58       11.522037  -0.000000
   59       11.685106  -0.000000
   60       11.835373  -0.000000

  0.2222222E+00  0.1111111E+00  0.3742002E-15  0.5486968E-02
    1       -5.026087   1.000000
    2       -3.029549   1.000000
    3       -2.959272   1.000000
    4       -2.567572   1.000000
    5       -2.426244   1.000000
    6       -2.261905   1.000000
    7       -1.903447   1.000000
    8       -1.295587   1.000000
    9       -0.452875   1.000000
   10        0.290986   1.000000
   11        0.523945   1.000000
   12        0.853731   1.000000
   13        0.968491   1.000000
   14        1.158955   1.000000
   15        1.665965   1.000000
   16        2.597135   1.000000
   17        2.845176   1.000000
   18        2.865037   1.000000
   19        2.996660   1.000000
   20        3.216510   1.000000
   21        3.366266   1.000000
   22        3.597005   1.000000
   23        3.882806   1.000000
   24        3.896546   1.000000
   25        4.246226   1.000000
   26        4.444930   1.000000
   27        4.477519   1.000000
   28        4.626539   1.000000
   29        4.691174   1.000000
   30        4.890257   1.000000
   31        5.087852   1.000000
   32        5.235059   1.000000
   33        5.293421   1.000000
   34        5.375980   1.000000
   35        5.527245   1.000000
   36        5.751072   1.000000
   37        5.802861   1.000000
   38        6.417466   1.000000
   39        7.084228   1.000000
   40        7.258056   1.000000
   41        7.426017   1.000000
   42        8.305232   1.000000
   43        8.417804   1.000000
   44        8.904078   1.000000
   45        9.525271   1.000000
   46        9.548507   1.000000
   47       10.013728   0.037477
   48       10.119655  -0.015734
   49       10.193212  -0.001145
   50       10.441449  -0.000000
   51       10.514166  -0.000000
   52       10.586628  -0.000000
   53       10.866671  -0.000000
   54       10.929751  -0.000000
   55       11.112279  -0.000000
   56       11.160609  -0.000000
   57       11.236465  -0.000000
   58       11.348277  -0.000000
   59       11.377258  -0.000000
   60       11.408531  -0.000000

  0.3333333E+00  0.1111111E+00  0.3742002E-15  0.5486968E-02
    1       -4.668951   1.000000
    2       -3.657291   1.000000
    3       -2.867471   1.000000
    4       -2.701020   1.000000
    5       -2.593063   1.000000
    6       -2.254439   1.000000
    7       -1.767048   1.000000
    8       -1.382709   1.000000
    9        0.033353   1.000000
   10        0.095756   1.000000
   11        0.990060   1.000000
   12        1.107008   1.000000
   13        1.382685   1.000000
   14        1.691135   1.000000
   15        1.881421   1.000000
   16        2.311297   1.000000
   17        2.537008   1.000000
   18        2.887239   1.000000
   19        3.018549   1.000000
   20        3.028601   1.000000
   21        3.145195   1.000000
   22        3.498023   1.000000
   23        3.515465   1.000000
   24        3.834412   1.000000
   25        4.180147   1.000000
   26        4.290094   1.000000
   27        4.641922   1.000000
   28        4.659141   1.000000
   29        4.724395   1.000000
   30        4.805832   1.000000
   31        4.838514   1.000000
   32        4.859057   1.000000
   33        5.176214   1.000000
   34        5.339710   1.000000
   35        5.509217   1.000000
   36        5.725518   1.000000
   37        5.812065   1.000000
   38        6.436891   1.000000
   39        6.893156   1.000000
   40        7.185825   1.000000
   41        7.894586   1.000000
   42        7.990125   1.000000
   43        8.811420   1.000000
   44        9.055322   1.000000
   45        9.381906   1.000000
   46        9.538681   1.000000
   47        9.563121   1.000001
   48        9.968632   0.290488
   49       10.209259  -0.000542
   50       10.257444  -0.000041
   51       10.558068  -0.000000
   52       10.724346  -0.000000
   53       10.921354  -0.000000
   54       10.943192  -0.000000
   55       11.009901  -0.000000
   56       11.028040  -0.000000
   57       11.077396  -0.000000
   58       11.206752  -0.000000
   59       11.333936  -0.000000
   60       11.537246  -0.000000

  0.4444444E+00  0.1111111E+00  0.3742002E-15  0.5486968E-02
    1       -4.208696   1.000000
    2       -4.208645   1.000000
    3       -2.750527   1.000000
    4       -2.745045   1.000000
    5       -2.744659   1.000000
    6       -2.241735   1.000000
    7       -1.706823   1.000000
    8       -1.417776   1.000000
    9       -0.064402   1.000000
   10        0.448509   1.000000
   11        1.078765   1.000000
   12        1.243248   1.000000
   13        1.476207   1.000000
   14        1.929003   1.000000
   15        1.954549   1.000000
   16        2.447961   1.000000
   17        2.453746   1.000000
   18        2.763007   1.000000
   19        2.854257   1.000000
   20        3.059157   1.000000
   21        3.085860   1.000000
   22        3.100685   1.000000
   23        3.530890   1.000000
   24        3.861560   1.000000
   25        3.887439   1.000000
   26        4.384103   1.000000
   27        4.553768   1.000000
   28        4.631414   1.000000
   29        4.754403   1.000000
   30        4.845045   1.000000
   31        4.932121   1.000000
   32        5.020968   1.000000
   33        5.041978   1.000000
   34        5.044279   1.000000
   35        5.712252   1.000000
   36        5.716086   1.000000
   37        6.003025   1.000000
   38        6.050315   1.000000
   39        6.667966   1.000000
   40        7.453641   1.000000
   41        7.727769   1.000000
   42        8.535458   1.000000
   43        8.985808   1.000000
   44        9.115938   1.000000
   45        9.217495   1.000000
   46        9.222949   1.000000
   47        9.443362   1.000000
   48        9.457470   1.000000
   49       10.266105  -0.000024
   50       10.276361  -0.000013
   51       10.838194  -0.000000
   52       10.851866  -0.000000
   53       10.872308  -0.000000
   54       10.878903  -0.000000
   55       10.903731  -0.000000
   56       10.928441  -0.000000
   57       10.962665  -0.000000
   58       11.157284  -0.000000
   59       11.475148  -0.000000
   60       11.705448  -0.000000

 -0.4444444E+00  0.1111111E+00  0.3742002E-15  0.5486968E-02
    1       -4.669095   1.000000
    2       -3.657435   1.000000
    3       -2.877362   1.000000
    4       -2.699522   1.000000
    5       -2.596777   1.000000
    6       -2.241898   1.000000
    7       -1.761659   1.000000
    8       -1.386735   1.000000
    9        0.045345   1.000000
   10        0.091482   1.000000
   11        1.011613   1.000000
   12        1.096362   1.000000
   13        1.374507   1.000000
   14        1.663175   1.000000
   15        1.932906   1.000000
   16        2.261017   1.000000
   17        2.495765   1.000000
   18        2.912442   1.000000
   19        3.047051   1.000000
   20        3.081081   1.000000
   21        3.169001   1.000000
   22        3.440160   1.000000
   23        3.483005   1.000000
   24        3.846661   1.000000
   25        4.112704   1.000000
   26        4.327618   1.000000
   27        4.618061   1.000000
   28        4.652732   1.000000
   29        4.686528   1.000000
   30        4.708602   1.000000
   31        4.990455   1.000000
   32        5.007019   1.000000
   33        5.015797   1.000000
   34        5.393723   1.000000
   35        5.522399   1.000000
   36        5.762239   1.000000
   37        5.798810   1.000000
   38        6.448668   1.000000
   39        6.890491   1.000000
   40        7.166665   1.000000
   41        7.880979   1.000000
   42        7.943117   1.000000
   43        8.850776   1.000000
   44        9.050817   1.000000
   45        9.388589   1.000000
   46        9.493278   1.000000
   47        9.609703   1.000013
   48        9.966259   0.308646
   49       10.227331  -0.000218
   50       10.250793  -0.000060
   51       10.574597  -0.000000
   52       10.723562  -0.000000
   53       10.923179  -0.000000
   54       10.925454  -0.000000
   55       11.025746  -0.000000
   56       11.039512  -0.000000
   57       11.056161  -0.000000
   58       11.251923  -0.000000
   59       11.380420  -0.000000
   60       11.415917  -0.000000

 -0.3333333E+00  0.1111111E+00  0.3742002E-15  0.5486968E-02
    1       -5.026247   1.000000
    2       -3.029988   1.000000
    3       -2.969203   1.000000
    4       -2.564579   1.000000
    5       -2.442890   1.000000
    6       -2.250787   1.000000
    7       -1.877828   1.000000
    8       -1.305954   1.000000
    9       -0.450779   1.000000
   10        0.304517   1.000000
   11        0.553974   1.000000
   12        0.831369   1.000000
   13        0.965790   1.000000
   14        1.146095   1.000000
   15        1.627420   1.000000
   16        2.633836   1.000000
   17        2.863062   1.000000
   18        2.975667   1.000000
   19        2.977270   1.000000
   20        3.109321   1.000000
   21        3.399251   1.000000
   22        3.602989   1.000000
   23        3.793197   1.000000
   24        3.853844   1.000000
   25        4.266689   1.000000
   26        4.430292   1.000000
   27        4.475714   1.000000
   28        4.499072   1.000000
   29        4.804057   1.000000
   30        5.088630   1.000000
   31        5.120161   1.000000
   32        5.132757   1.000000
   33        5.189101   1.000000
   34        5.405395   1.000000
   35        5.529357   1.000000
   36        5.793892   1.000000
   37        5.795682   1.000000
   38        6.576382   1.000000
   39        6.966968   1.000000
   40        7.195472   1.000000
   41        7.428608   1.000000
   42        8.284906   1.000000
   43        8.445973   1.000000
   44        8.900053   1.000000
   45        9.533983   1.000000
   46        9.571760   1.000001
   47        9.987839   0.159316
   48       10.119313  -0.015872
   49       10.189246  -0.001365
   50       10.445744  -0.000000
   51       10.517796  -0.000000
   52       10.589329  -0.000000
   53       10.876019  -0.000000
   54       10.963740  -0.000000
   55       11.102417  -0.000000
   56       11.168626  -0.000000
   57       11.270574  -0.000000
   58       11.291675  -0.000000
   59       11.337579  -0.000000
   60       11.525354  -0.000000

 -0.2222222E+00  0.1111111E+00  0.3742002E-15  0.5486968E-02
    1       -5.270271   1.000000
    2       -3.026965   1.000000
    3       -2.346422   1.000000
    4       -2.341025   1.000000
    5       -2.328628   1.000000
    6       -2.252167   1.000000
    7       -1.971514   1.000000
    8       -1.324389   1.000000
    9       -0.787125   1.000000
   10        0.079611   1.000000
   11        0.085609   1.000000
   12        0.589251   1.000000
   13        0.616298   1.000000
   14        1.150217   1.000000
   15        1.177279   1.000000
   16        2.797178   1.000000
   17        2.833714   1.000000
   18        2.893214   1.000000
   19        3.211259   1.000000
   20        3.323211   1.000000
   21        3.439221   1.000000
   22        3.627187   1.000000
   23        4.095986   1.000000
   24        4.216224   1.000000
   25        4.317200   1.000000
   26        4.364314   1.000000
   27        4.365167   1.000000
   28        4.473401   1.000000
   29        4.848363   1.000000
   30        5.283497   1.000000
   31        5.326159   1.000000
   32        5.348837   1.000000
   33        5.410943   1.000000
   34        5.726275   1.000000
   35        5.757676   1.000000
   36        5.811955   1.000000
   37        5.927281   1.000000
   38        6.170251   1.000000
   39        6.450858   1.000000
   40        7.457975   1.000000
   41        8.089780   1.000000
   42        8.141772   1.000000
   43        8.753742   1.000000
   44        8.756038   1.000000
   45        8.930286   1.000000
   46        9.095319   1.000000
   47        9.643817   1.000098
   48       10.284579  -0.000008
   49       10.488378  -0.000000
   50       10.570627  -0.000000
   51       10.688665  -0.000000
   52       10.710948  -0.000000
   53       10.984302  -0.000000
   54       11.021195  -0.000000
   55       11.222950  -0.000000
   56       11.306395  -0.000000
   57       11.485426  -0.000000
   58       11.579709  -0.000000
   59       11.756834  -0.000000
   60       12.202409  -0.000000

 -0.1111111E+00  0.1111111E+00  0.3742002E-15  0.2743484E-02
    1       -5.394105   1.000000
    2       -3.053369   1.000000
    3       -2.303158   1.000000
    4       -2.226612   1.000000
    5       -2.032366   1.000000
    6       -2.006738   1.000000
    7       -1.670577   1.000000
    8       -1.660814   1.000000
    9       -0.661066   1.000000
   10       -0.645579   1.000000
   11       -0.329574   1.000000
   12        0.412744   1.000000
   13        0.842469   1.000000
   14        0.952130   1.000000
   15        1.115081   1.000000
   16        2.707319   1.000000
   17        2.732463   1.000000
   18        2.826381   1.000000
   19        3.198010   1.000000
   20        3.353766   1.000000
   21        3.570343   1.000000
   22        4.006954   1.000000
   23        4.196799   1.000000
   24        4.240694   1.000000
   25        4.299051   1.000000
   26        4.419487   1.000000
   27        4.531781   1.000000
   28        4.796293   1.000000
   29        4.903229   1.000000
   30        5.095969   1.000000
   31        5.376822   1.000000
   32        5.433151   1.000000
   33        5.465318   1.000000
   34        5.533683   1.000000
   35        5.677342   1.000000
   36        5.794928   1.000000
   37        6.313101   1.000000
   38        6.413094   1.000000
   39        6.426421   1.000000
   40        7.758465   1.000000
   41        7.980303   1.000000
   42        8.302659   1.000000
   43        8.372442   1.000000
   44        8.684170   1.000000
   45        8.817772   1.000000
   46        8.982826   1.000000
   47        9.702435   1.001750
   48        9.915202   0.725182
   49       10.437205  -0.000000
   50       10.764247  -0.000000
   51       10.908051  -0.000000
   52       10.920710  -0.000000
   53       11.135028  -0.000000
   54       11.140098  -0.000000
   55       11.245215  -0.000000
   56       11.346479  -0.000000
   57       11.525078  -0.000000
   58       11.777125  -0.000000
   59       11.930967  -0.000000
   60       12.158215  -0.000000

  0.2222222E+00  0.2222222E+00  0.3742002E-15  0.2743484E-02
    1       -4.727354   1.000000
    2       -3.237616   1.000000
    3       -3.214718   1.000000
    4       -2.881419   1.000000
    5       -2.480482   1.000000
    6       -2.419556   1.000000
    7       -1.652452   1.000000
    8       -0.708905   1.000000
    9       -0.565589   1.000000
   10       -0.156291   1.000000
   11        1.186291   1.000000
   12        1.373876   1.000000
   13        1.385543   1.000000
   14        1.619261   1.000000
   15        1.790438   1.000000
   16        1.854476   1.000000
   17        2.858803   1.000000
   18        2.912530   1.000000
   19        3.002096   1.000000
   20        3.037403   1.000000
   21        3.367697   1.000000
   22        3.442495   1.000000
   23        3.696254   1.000000
   24        3.906634   1.000000
   25        3.993322   1.000000
   26        4.269360   1.000000
   27        4.375178   1.000000
   28        4.583747   1.000000
   29        4.683583   1.000000
   30        4.841128   1.000000
   31        4.890362   1.000000
   32        4.894339   1.000000
   33        5.291717   1.000000
   34        5.322545   1.000000
   35        5.398773   1.000000
   36        5.783003   1.000000
   37        6.172138   1.000000
   38        6.447993   1.000000
   39        6.763564   1.000000
   40        6.818423   1.000000
   41        8.000956   1.000000
   42        8.523261   1.000000
   43        8.553627   1.000000
   44        8.760527   1.000000
   45        9.336571   1.000000
   46        9.826307   1.034893
   47        9.893067   0.869512
   48        9.945260   0.480548
   49       10.096952  -0.025842
   50       10.387479  -0.000000
   51       10.432936  -0.000000
   52       10.596668  -0.000000
   53       10.700862  -0.000000
   54       10.833866  -0.000000
   55       10.924127  -0.000000
   56       11.111164  -0.000000
   57       11.149059  -0.000000
   58       11.263843  -0.000000
   59       11.355902  -0.000000
   60       11.417994  -0.000000

  0.3333333E+00  0.2222222E+00  0.3742002E-15  0.5486968E-02
    1       -4.320522   1.000000
    2       -3.816513   1.000000
    3       -3.323439   1.000000
    4       -2.771817   1.000000
    5       -2.651473   1.000000
    6       -2.430135   1.000000
    7       -1.416985   1.000000
    8       -0.705230   1.000000
    9       -0.491689   1.000000
   10       -0.024184   1.000000
   11        1.073156   1.000000
   12        1.641316   1.000000
   13        1.720367   1.000000
   14        1.822922   1.000000
   15        2.060588   1.000000
   16        2.410867   1.000000
   17        2.447326   1.000000
   18        2.722899   1.000000
   19        2.855605   1.000000
   20        2.970008   1.000000
   21        3.169054   1.000000
   22        3.239263   1.000000
   23        3.421707   1.000000
   24        3.695663   1.000000
   25        4.024659   1.000000
   26        4.168007   1.000000
   27        4.421289   1.000000
   28        4.554774   1.000000
   29        4.656813   1.000000
   30        4.744231   1.000000
   31        4.893839   1.000000
   32        5.046954   1.000000
   33        5.192784   1.000000
   34        5.219351   1.000000
   35        5.521190   1.000000