    3    3   60    1
  0.8144830E+01  0.3039000E-09  0.3039000E-09  0.3055000E-09  0.5000000E-15
   1.0000000000000000E-004
  CAR 
 Name                                    
     12    216     10

  0.3742002E-15  0.3742002E-15  0.3742002E-15  0.2962963E-03
    1       -5.677698   1.000000
    2        4.172232   1.000000
    3        4.172235   1.000000
    4        5.398267   1.000000
    5        5.867431   1.000000
    6        8.584211   1.000000
    7        8.584212   1.000000
    8       11.651277  -0.000000
    9       11.651280  -0.000000
   10       13.154575   0.000000

  0.6666667E-01  0.3766815E-15  0.3742002E-15  0.1777778E-02
    1       -5.591917   1.000000
    2        3.959954   1.000000
    3        4.206094   1.000000
    4        5.444857   1.000000
    5        5.618098   1.000000
    6        8.550718   1.000000
    7        8.920560   1.000000
    8       11.113161  -0.000000
    9       11.190577  -0.000000
   10       13.622036   0.000000

  0.1333333E+00  0.3754153E-15  0.3742002E-15  0.1777778E-02
    1       -5.338048   1.000000
    2        3.394505   1.000000
    3        4.294327   1.000000
    4        5.101297   1.000000
    5        5.548246   1.000000
    6        8.457678   1.000000
    7        9.673761  -0.000268
    8       10.291540  -0.000000
    9       10.551547  -0.000000
   10       14.200122   0.000000

  0.2000000E+00  0.3870416E-15  0.3742002E-15  0.1777778E-02
    1       -4.926130   1.000000
    2        2.615225   1.000000
    3        4.401129   1.000000
    4        4.565803   1.000000
    5        5.588500   1.000000
    6        8.324564   1.000000
    7        9.736312  -0.000007
    8       10.098908  -0.000000
    9       10.502334  -0.000000
   10       14.610911   0.000000

  0.2666667E+00  0.4120044E-15  0.3742002E-15  0.1777778E-02
    1       -4.371666   1.000000
    2        1.729442   1.000000
    3        4.104415   1.000000
    4        4.484928   1.000000
    5        5.427211   1.000000
    6        8.177152   1.000000
    7        9.694950  -0.000086
    8        9.885699  -0.000000
    9       11.112371  -0.000000
   10       14.866071   0.000000

  0.3333333E+00  0.4025434E-15  0.3742002E-15  0.1777778E-02
    1       -3.694550   1.000000
    2        0.796168   1.000000
    3        3.748573   1.000000
    4        4.523172   1.000000
    5        5.099171   1.000000
    6        8.041178   1.000000
    7        9.881777  -0.000000
    8       10.156737  -0.000000
    9       11.292863  -0.000000
   10       15.022419   0.000000

  0.4000000E+00  0.3732510E-15  0.3742002E-15  0.1777778E-02
    1       -2.919269   1.000000
    2       -0.150271   1.000000
    3        3.509112   1.000000
    4        4.524987   1.000000
    5        4.777112   1.000000
    6        7.938080   1.000000
    7        9.991777  -0.000000
    8       10.880661  -0.000000
    9       11.195338  -0.000000
   10       15.140776   0.000000

  0.4666667E+00  0.3915456E-15  0.3742002E-15  0.1777778E-02
    1       -2.093512   1.000000
    2       -1.061526   1.000000
    3        3.389104   1.000000
    4        4.516253   1.000000
    5        4.589286   1.000000
    6        7.882760   1.000000
    7       10.091429  -0.000000
    8       11.085689  -0.000000
    9       11.485953  -0.000000
   10       15.278397   0.000000

  0.6666667E-01  0.6666667E-01  0.3742002E-15  0.1777778E-02
    1       -5.422061   1.000000
    2        3.586123   1.000000
    3        4.246650   1.000000
    4        5.250126   1.000000
    5        5.526561   1.000000
    6        8.469532   1.000000
    7        9.470295   0.018345
    8       10.539830  -0.000000
    9       10.663802  -0.000000
   10       14.314778   0.000000

  0.1333333E+00  0.6666667E-01  0.3742002E-15  0.3555556E-02
    1       -5.088974   1.000000
    2        2.948844   1.000000
    3        4.271303   1.000000
    4        4.759571   1.000000
    5        5.646351   1.000000
    6        8.308102   1.000000
    7        9.850150  -0.000000
    8       10.248924  -0.000000
    9       10.292033  -0.000000
   10       14.691986   0.000000

  0.2000000E+00  0.6666667E-01  0.3742002E-15  0.3555556E-02
    1       -4.605179   1.000000
    2        2.154031   1.000000
    3        4.224064   1.000000
    4        4.297160   1.000000
    5        5.714170   1.000000
    6        8.099559   1.000000
    7        9.402057   0.427096
    8       10.131500  -0.000000
    9       11.098348  -0.000000
   10       14.968855   0.000000

  0.2666667E+00  0.6666667E-01  0.3742002E-15  0.3555556E-02
    1       -3.988089   1.000000
    2        1.274463   1.000000
    3        3.919857   1.000000
    4        4.077369   1.000000
    5        5.665343   1.000000
    6        7.880150   1.000000
    7        9.337698   0.899824
    8       10.332196  -0.000000
    9       11.588371  -0.000000
   10       14.969300   0.000000

  0.3333333E+00  0.6666667E-01  0.3742002E-15  0.3555556E-02
    1       -3.259196   1.000000
    2        0.352425   1.000000
    3        3.647031   1.000000
    4        3.876668   1.000000
    5        5.543040   1.000000
    6        7.687318   1.000000
    7        9.560011  -0.020049
    8       10.772207  -0.000000
    9       11.662775  -0.000000
   10       15.276807   0.000000

  0.4000000E+00  0.6666667E-01  0.3742002E-15  0.3555556E-02
    1       -2.447194   1.000000
    2       -0.577319   1.000000
    3        3.483548   1.000000
    4        3.709972   1.000000
    5        5.435210   1.000000
    6        7.555150   1.000000
    7        9.835486  -0.000000
    8       11.261714  -0.000000
    9       11.575111  -0.000000
   10       15.421260   0.000000

  0.4666667E+00  0.6666667E-01  0.3742002E-15  0.1777778E-02
    1       -1.745572   1.000000
    2       -1.318538   1.000000
    3        3.429234   1.000000
    4        3.646414   1.000000
    5        5.394298   1.000000
    6        7.508100   1.000000
    7        9.954955  -0.000000
    8       11.491737  -0.000000
    9       11.527661  -0.000000
   10       15.574757   0.000000

  0.1333333E+00  0.1333333E+00  0.3742002E-15  0.1777778E-02
    1       -4.683553   1.000000
    2        2.357420   1.000000
    3        4.033013   1.000000
    4        4.383366   1.000000
    5        5.864263   1.000000
    6        8.003965   1.000000
    7        9.288974   1.029137
    8       10.232101  -0.000000
    9       11.165052  -0.000000
   10       14.953386   0.000000

  0.2000000E+00  0.1333333E+00  0.3742002E-15  0.3555556E-02
    1       -4.135640   1.000000
    2        1.655370   1.000000
    3        3.635428   1.000000
    4        4.059971   1.000000
    5        6.130666   1.000000
    6        7.624299   1.000000
    7        8.881448   1.000000
    8       10.504495  -0.000000
    9       12.026904  -0.000000
   10       14.670458   0.000000

  0.2666667E+00  0.1333333E+00  0.3742002E-15  0.3555556E-02
    1       -3.463599   1.000000
    2        0.857564   1.000000
    3        3.222650   1.000000
    4        3.821657   1.000000
    5        6.286296   1.000000
    6        7.248142   1.000000
    7        8.844426   1.000000
    8       10.888544  -0.000000
    9       12.516285   0.000000
   10       14.913377   0.000000

  0.3333333E+00  0.1333333E+00  0.3742002E-15  0.3555556E-02
    1       -2.690379   1.000000
    2       -0.012208   1.000000
    3        2.905575   1.000000
    4        3.672135   1.000000
    5        6.282265   1.000000
    6        6.947416   1.000000
    7        9.162597   1.002614
    8       11.167515  -0.000000
    9       12.582431   0.000000
   10       15.603226   0.000000

  0.4000000E+00  0.1333333E+00  0.3742002E-15  0.3555556E-02
    1       -1.852422   1.000000
    2       -0.904503   1.000000
    3        2.738039   1.000000
    4        3.602114   1.000000
    5        6.235246   1.000000
    6        6.780238   1.000000
    7        9.523429  -0.034667
    8       11.230881  -0.000000
    9       12.541419   0.000000
   10       16.167398   0.000000

  0.2000000E+00  0.2000000E+00  0.3742002E-15  0.1777778E-02
    1       -3.531751   1.000000
    2        1.120452   1.000000
    3        2.908782   1.000000
    4        3.906543   1.000000
    5        6.656723   1.000000
    6        7.051171   1.000000
    7        8.462500   1.000000
    8       10.941936  -0.000000
    9       13.056684   0.000000
   10       14.495649   0.000000

  0.2666667E+00  0.2000000E+00  0.3742002E-15  0.3555556E-02
    1       -2.812708   1.000000
    2        0.489827   1.000000
    3        2.280709   1.000000
    4        3.846179   1.000000
    5        6.512886   1.000000
    6        7.032706   1.000000
    7        8.414641   1.000000
    8       11.159605  -0.000000
    9       13.663207   0.000000
   10       14.840474   0.000000

  0.3333333E+00  0.2000000E+00  0.3742002E-15  0.3555556E-02
    1       -2.004522   1.000000
    2       -0.280961   1.000000
    3        1.896712   1.000000
    4        3.850942   1.000000
    5        6.120231   1.000000
    6        7.082609   1.000000
    7        8.833471   1.000000
    8       11.015834  -0.000000
    9       13.703910   0.000000
   10       15.635103   0.000000

  0.4000000E+00  0.2000000E+00  0.3742002E-15  0.1777778E-02
    1       -1.192470   1.000000
    2       -1.089175   1.000000
    3        1.773956   1.000000
    4        3.864179   1.000000
    5        5.973210   1.000000
    6        7.058297   1.000000
    7        9.143328   1.001154
    8       10.822711  -0.000000
    9       13.685462   0.000000
   10       16.013057   0.000000

  0.2666667E+00  0.2666667E+00  0.3742002E-15  0.1777778E-02
    1       -2.058260   1.000000
    2        0.113254   1.000000
    3        1.431239   1.000000
    4        3.993950   1.000000
    5        5.831089   1.000000
    6        7.782815   1.000000
    7        8.162972   1.000000
    8       10.945578  -0.000000
    9       14.757802   0.000000
   10       14.818343   0.000000

  0.3333333E+00  0.2666667E+00  0.3742002E-15  0.3555556E-02
    1       -1.242723   1.000000
    2       -0.451675   1.000000
    3        0.936719   1.000000
    4        4.193288   1.000000
    5        5.349450   1.000000
    6        7.875863   1.000000
    7        8.609361   1.000000
    8       10.468809  -0.000000
    9       14.736353   0.000000
   10       15.594004   0.000000

  0.3333333E+00  0.3333333E+00  0.3742002E-15  0.5925926E-03
    1       -0.618783   1.000000
    2       -0.618780   1.000000
    3        0.354871   1.000000
    4        4.697240   1.000000
    5        4.697242   1.000000
    6        8.418675   1.000000
    7        8.418676   1.000000
    8       10.091220  -0.000000
    9       15.376988   0.000000
   10       15.376988   0.000000

  0.3742002E-15  0.3742002E-15  0.6666667E-01  0.5925926E-03
    1       -5.613842   1.000000
    2        4.225328   1.000000
    3        4.225331   1.000000
    4        4.767962   1.000000
    5        6.446469   1.000000
    6        8.378366   1.000000
    7        8.378367   1.000000
    8       11.502425  -0.000000
    9       11.502427  -0.000000
   10       13.576902   0.000000

  0.6666667E-01  0.3766815E-15  0.6666667E-01  0.3555556E-02
    1       -5.529078   1.000000
    2        4.006774   1.000000
    3        4.253218   1.000000
    4        4.747924   1.000000
    5        6.222944   1.000000
    6        8.335336   1.000000
    7        8.737604   1.000000
    8       11.113835  -0.000000
    9       11.191738  -0.000000
   10       13.780452   0.000000

  0.1333333E+00  0.3754153E-15  0.6666667E-01  0.3555556E-02
    1       -5.278347   1.000000
    2        3.422488   1.000000
    3        4.321457   1.000000
    4        4.628277   1.000000
    5        5.899569   1.000000
    6        8.232622   1.000000
    7        9.393152   0.502155
    8       10.542589  -0.000000
    9       10.695904  -0.000000
   10       14.208676   0.000000

  0.2000000E+00  0.3870416E-15  0.6666667E-01  0.3555556E-02
    1       -4.871761   1.000000
    2        2.618895   1.000000
    3        4.358157   1.000000
    4        4.390735   1.000000
    5        5.685415   1.000000
    6        8.134442   1.000000
    7        9.579515  -0.012196
    8       10.308609  -0.000000
    9       10.690832  -0.000000
   10       14.425938   0.000000

  0.2666667E+00  0.4120044E-15  0.6666667E-01  0.3555556E-02
    1       -4.324914   1.000000
    2        1.713378   1.000000
    3        4.036008   1.000000
    4        4.420979   1.000000
    5        5.432091   1.000000
    6        8.094101   1.000000
    7        9.649586  -0.000875
    8       10.078642  -0.000000
    9       11.166557  -0.000000
   10       14.556201   0.000000

  0.3333333E+00  0.4025434E-15  0.6666667E-01  0.3555556E-02
    1       -3.657301   1.000000
    2        0.769501   1.000000
    3        3.758971   1.000000
    4        4.402167   1.000000
    5        5.089876   1.000000
    6        8.106644   1.000000
    7       10.005125  -0.000000
    8       10.067254  -0.000000
    9       11.330289  -0.000000
   10       15.010830   0.000000

  0.4000000E+00  0.3732510E-15  0.6666667E-01  0.3555556E-02
    1       -2.891543   1.000000
    2       -0.179502   1.000000
    3        3.566510   1.000000
    4        4.359269   1.000000
    5        4.772924   1.000000
    6        8.129323   1.000000
    7       10.046380  -0.000000
    8       10.539292  -0.000000
    9       11.458324  -0.000000
   10       15.173135   0.000000

  0.4666667E+00  0.3915456E-15  0.6666667E-01  0.3555556E-02
    1       -2.062786   1.000000
    2       -1.099092   1.000000
    3        3.469709   1.000000
    4        4.327017   1.000000
    5        4.588940   1.000000
    6        8.139697   1.000000
    7       10.109397  -0.000000
    8       10.657327  -0.000000
    9       11.853295  -0.000000
   10       14.997347   0.000000

  0.6666667E-01  0.6666667E-01  0.6666667E-01  0.3555556E-02
    1       -5.361306   1.000000
    2        3.625493   1.000000
    3        4.267849   1.000000
    4        4.681191   1.000000
    5        5.992446   1.000000
    6        8.219398   1.000000
    7        9.276180   1.035002
    8       10.645892  -0.000000
    9       10.821561  -0.000000
   10       14.346894   0.000000

  0.1333333E+00  0.6666667E-01  0.6666667E-01  0.7111111E-02
    1       -5.032466   1.000000
    2        2.971821   1.000000
    3        4.202770   1.000000
    4        4.526503   1.000000
    5        5.851811   1.000000
    6        8.018708   1.000000
    7        9.788025  -0.000000
    8       10.207439  -0.000000
    9       10.658534  -0.000000
   10       14.629964   0.000000

  0.2000000E+00  0.6666667E-01  0.6666667E-01  0.7111111E-02
    1       -4.555232   1.000000
    2        2.154225   1.000000
    3        4.002497   1.000000
    4        4.351986   1.000000
    5        5.779322   1.000000
    6        7.853758   1.000000
    7        9.616978  -0.003472
    8       10.170663  -0.000000
    9       11.153888  -0.000000
   10       14.593771   0.000000

  0.2666667E+00  0.6666667E-01  0.6666667E-01  0.7111111E-02
    1       -3.946922   1.000000
    2        1.256611   1.000000
    3        3.768321   1.000000
    4        4.142013   1.000000
    5        5.628193   1.000000
    6        7.809929   1.000000
    7        9.558843  -0.020575
    8       10.321601  -0.000000
    9       11.569432  -0.000000
   10       14.735846   0.000000

  0.3333333E+00  0.6666667E-01  0.6666667E-01  0.7111111E-02
    1       -3.228246   1.000000
    2        0.326315   1.000000
    3        3.593815   1.000000
    4        3.901488   1.000000
    5        5.418954   1.000000
    6        7.831448   1.000000
    7        9.686696  -0.000135
    8       10.664020  -0.000000
    9       11.682825  -0.000000
   10       15.188913   0.000000

  0.4000000E+00  0.6666667E-01  0.6666667E-01  0.7111111E-02
    1       -2.424070   1.000000
    2       -0.605401   1.000000
    3        3.510952   1.000000
    4        3.692808   1.000000
    5        5.254224   1.000000
    6        7.837624   1.000000
    7        9.883479  -0.000000
    8       10.923504  -0.000000
    9       11.836328  -0.000000
   10       15.206840   0.000000

  0.4666667E+00  0.6666667E-01  0.6666667E-01  0.3555556E-02
    1       -1.681842   1.000000
    2       -1.390155   1.000000
    3        3.507414   1.000000
    4        3.592042   1.000000
    5        5.194012   1.000000
    6        7.834269   1.000000
    7        9.977353  -0.000000
    8       10.973859  -0.000000
    9       11.990383  -0.000000
   10       15.134794   0.000000

  0.1333333E+00  0.1333333E+00  0.6666667E-01  0.3555556E-02
    1       -4.632564   1.000000
    2        2.376689   1.000000
    3        3.828853   1.000000
    4        4.381747   1.000000
    5        6.014545   1.000000
    6        7.618668   1.000000
    7        9.655778  -0.000655
    8       10.199977  -0.000000
    9       11.204858  -0.000000
   10       14.770697   0.000000

  0.2000000E+00  0.1333333E+00  0.6666667E-01  0.7111111E-02
    1       -4.092599   1.000000
    2        1.659407   1.000000
    3        3.426730   1.000000
    4        4.148909   1.000000
    5        6.206590   1.000000
    6        7.290077   1.000000
    7        9.289485   1.028733
    8       10.510052  -0.000000
    9       11.956993  -0.000000
   10       14.519900   0.000000

  0.2666667E+00  0.1333333E+00  0.6666667E-01  0.7111111E-02
    1       -3.430753   1.000000
    2        0.843842   1.000000
    3        3.086609   1.000000
    4        3.913973   1.000000
    5        6.117539   1.000000
    6        7.284282   1.000000
    7        9.143929   1.001185
    8       10.870186  -0.000000
    9       12.404365   0.000000
   10       14.740267   0.000000

  0.3333333E+00  0.1333333E+00  0.6666667E-01  0.7111111E-02
    1       -2.668828   1.000000
    2       -0.034174   1.000000
    3        2.840301   1.000000
    4        3.746631   1.000000
    5        5.874136   1.000000
    6        7.380682   1.000000
    7        9.303896   1.010540
    8       11.110244  -0.000000
    9       12.519751   0.000000
   10       15.229287   0.000000

  0.4000000E+00  0.1333333E+00  0.6666667E-01  0.7111111E-02
    1       -1.835094   1.000000
    2       -0.930809   1.000000
    3        2.710203   1.000000
    4        3.665424   1.000000
    5        5.715251   1.000000
    6        7.398154   1.000000
    7        9.579833  -0.012086
    8       11.146385  -0.000000
    9       12.549412   0.000000
   10       15.471413   0.000000

  0.2000000E+00  0.2000000E+00  0.6666667E-01  0.3555556E-02
    1       -3.498282   1.000000
    2        1.121762   1.000000
    3        2.768464   1.000000
    4        3.978806   1.000000
    5        6.669218   1.000000
    6        6.781810   1.000000
    7        8.902067   1.000000
    8       10.941887  -0.000000
    9       12.892491   0.000000
   10       14.375555   0.000000

  0.2666667E+00  0.2000000E+00  0.6666667E-01  0.7111111E-02
    1       -2.791445   1.000000
    2        0.478244   1.000000
    3        2.213570   1.000000
    4        3.897225   1.000000
    5        6.133163   1.000000
    6        7.292859   1.000000
    7        8.731687   1.000000
    8       11.152309  -0.000000
    9       13.488236   0.000000
   10       14.668767   0.000000

  0.3333333E+00  0.2000000E+00  0.6666667E-01  0.7111111E-02
    1       -1.997019   1.000000
    2       -0.299042   1.000000
    3        1.879419   1.000000
    4        3.888830   1.000000
    5        5.747143   1.000000
    6        7.511940   1.000000
    7        8.970552   1.000000
    8       11.017344  -0.000000
    9       13.591222   0.000000
   10       15.337518   0.000000

  0.4000000E+00  0.2000000E+00  0.6666667E-01  0.3555556E-02
    1       -1.149644   1.000000
    2       -1.148645   1.000000
    3        1.772561   1.000000
    4        3.898446   1.000000
    5        5.603157   1.000000
    6        7.532210   1.000000
    7        9.222001   1.017939
    8       10.837880  -0.000000
    9       13.593578   0.000000
   10       15.655393   0.000000

  0.2666667E+00  0.2666667E+00  0.6666667E-01  0.3555556E-02
    1       -2.052436   1.000000
    2        0.095081   1.000000
    3        1.417802   1.000000
    4        4.013975   1.000000
    5        5.617597   1.000000
    6        7.906343   1.000000
    7        8.471802   1.000000
    8       10.959549  -0.000000
    9       14.581901   0.000000
   10       14.649675   0.000000

  0.3333333E+00  0.2666667E+00  0.6666667E-01  0.7111111E-02
    1       -1.258292   1.000000
    2       -0.470994   1.000000
    3        0.960454   1.000000
    4        4.190864   1.000000
    5        5.193741   1.000000
    6        8.122445   1.000000
    7        8.745596   1.000000
    8       10.506580  -0.000000
    9       14.616718   0.000000
   10       15.397276   0.000000

  0.3333333E+00  0.3333333E+00  0.6666667E-01  0.1185185E-02
    1       -0.658437   1.000000
    2       -0.658435   1.000000
    3        0.428023   1.000000
    4        4.637376   1.000000
    5        4.637378   1.000000
    6        8.590440   1.000000
    7        8.590441   1.000000
    8       10.139082  -0.000000
    9       15.243168   0.000000
   10       15.243168   0.000000

  0.3742002E-15  0.3742002E-15  0.1333333E+00  0.5925926E-03
    1       -5.425800   1.000000
    2        3.903871   1.000000
    3        4.384185   1.000000
    4        4.384188   1.000000
    5        7.176092   1.000000
    6        7.895334   1.000000
    7        7.895336   1.000000
    8       11.084777  -0.000000
    9       11.084780  -0.000000
   10       13.570248   0.000000

  0.6666667E-01  0.3766815E-15  0.1333333E+00  0.3555556E-02
    1       -5.344237   1.000000
    2        3.897064   1.000000
    3        4.155135   1.000000
    4        4.392038   1.000000
    5        6.750240   1.000000
    6        7.848054   1.000000
    7        8.416844   1.000000
    8       10.920360  -0.000000
    9       11.020024  -0.000000
   10       13.856379   0.000000

  0.1333333E+00  0.3754153E-15  0.1333333E+00  0.3555556E-02
    1       -5.103207   1.000000
    2        3.462314   1.000000
    3        3.955955   1.000000
    4        4.395209   1.000000
    5        6.244704   1.000000
    6        7.771609   1.000000
    7        9.054796   1.000009
    8       10.735264  -0.000000
    9       10.865977  -0.000000
   10       14.444931   0.000000

  0.2000000E+00  0.3870416E-15  0.1333333E+00  0.3555556E-02
    1       -4.713334   1.000000
    2        2.608900   1.000000
    3        3.925446   1.000000
    4        4.350761   1.000000
    5        5.824309   1.000000
    6        7.791193   1.000000
    7        9.324537   0.955864
    8       10.679897  -0.000000
    9       10.996896  -0.000000
   10       14.170460   0.000000

  0.2666667E+00  0.4120044E-15  0.1333333E+00  0.3555556E-02
    1       -4.190432   1.000000
    2        1.666393   1.000000
    3        3.860114   1.000000
    4        4.240476   1.000000
    5        5.427707   1.000000
    6        7.971587   1.000000
    7        9.503873  -0.032857
    8       10.496032  -0.000000
    9       11.381396  -0.000000
   10       14.133513   0.000000

  0.3333333E+00  0.4025434E-15  0.1333333E+00  0.3555556E-02
    1       -3.553400   1.000000
    2        0.707999   1.000000
    3        3.780295   1.000000
    4        4.095272   1.000000
    5        5.046306   1.000000
    6        8.270662   1.000000
    7        9.828822  -0.000000
    8       10.337972  -0.000000
    9       11.528758  -0.000000
   10       14.502011   0.000000

  0.4000000E+00  0.3732510E-15  0.1333333E+00  0.3555556E-02
    1       -2.821905   1.000000
    2       -0.235229   1.000000
    3        3.717228   1.000000
    4        3.965994   1.000000
    5        4.736978   1.000000
    6        8.577519   1.000000
    7       10.083978  -0.000000
    8       10.224035  -0.000000
    9       11.787423  -0.000000
   10       14.734691   0.000000

  0.4666667E+00  0.3915456E-15  0.1333333E+00  0.3555556E-02
    1       -2.014986   1.000000
    2       -1.146399   1.000000
    3        3.685565   1.000000
    4        3.891803   1.000000
    5        4.563394   1.000000
    6        8.770641   1.000000
    7       10.131486  -0.000000
    8       10.165482  -0.000000
    9       12.259522   0.000000
   10       14.463578   0.000000

  0.6666667E-01  0.6666667E-01  0.1333333E+00  0.3555556E-02
    1       -5.182924   1.000000
    2        3.740122   1.000000
    3        3.860855   1.000000
    4        4.401871   1.000000
    5        6.422532   1.000000
    6        7.692127   1.000000
    7        8.990088   1.000000
    8       10.677136  -0.000000
    9       10.960663  -0.000000
   10       14.369118   0.000000

  0.1333333E+00  0.6666667E-01  0.1333333E+00  0.7111111E-02
    1       -4.867359   1.000000
    2        3.023987   1.000000
    3        3.764923   1.000000
    4        4.386362   1.000000
    5        6.160143   1.000000
    6        7.489845   1.000000
    7        9.521963  -0.034934
    8       10.490417  -0.000000
    9       10.997066  -0.000000
   10       14.541823   0.000000

  0.2000000E+00  0.6666667E-01  0.1333333E+00  0.7111111E-02
    1       -4.410620   1.000000
    2        2.144933   1.000000
    3        3.641304   1.000000
    4        4.299878   1.000000
    5        5.872122   1.000000
    6        7.505724   1.000000
    7        9.700506  -0.000062
    8       10.450248  -0.000000
    9       11.339259  -0.000000
   10       14.240205   0.000000

  0.2666667E+00  0.6666667E-01  0.1333333E+00  0.7111111E-02
    1       -3.830075   1.000000
    2        1.210517   1.000000
    3        3.523729   1.000000
    4        4.138004   1.000000
    5        5.504573   1.000000
    6        7.780787   1.000000
    7        9.868082  -0.000000
    8       10.394807  -0.000000
    9       11.649190  -0.000000
   10       14.306172   0.000000

  0.3333333E+00  0.6666667E-01  0.1333333E+00  0.7111111E-02
    1       -3.145161   1.000000
    2        0.270598   1.000000
    3        3.443887   1.000000
    4        3.944872   1.000000
    5        5.157668   1.000000
    6        8.156102   1.000000
    7       10.008205  -0.000000
    8       10.428278  -0.000000
    9       11.812667  -0.000000
   10       14.661034   0.000000

  0.4000000E+00  0.6666667E-01  0.1333333E+00  0.7111111E-02
    1       -2.375687   1.000000
    2       -0.650315   1.000000
    3        3.412017   1.000000
    4        3.783226   1.000000
    5        4.920419   1.000000
    6        8.453723   1.000000
    7       10.036004  -0.000000
    8       10.482520  -0.000000
    9       12.134812   0.000000
   10       14.676308   0.000000

  0.4666667E+00  0.6666667E-01  0.1333333E+00  0.3555556E-02
    1       -1.580923   1.000000
    2       -1.495097   1.000000
    3        3.409227   1.000000
    4        3.716792   1.000000
    5        4.837128   1.000000
    6        8.561809   1.000000
    7       10.041927  -0.000000
    8       10.485549  -0.000000
    9       12.374159   0.000000
   10       14.521849   0.000000

  0.1333333E+00  0.1333333E+00  0.1333333E+00  0.3555556E-02
    1       -4.484655   1.000000
    2        2.430632   1.000000
    3        3.386035   1.000000
    4        4.326122   1.000000
    5        6.359687   1.000000
    6        6.977335   1.000000
    7       10.090249  -0.000000
    8       10.178631  -0.000000
    9       11.353167  -0.000000
   10       14.520684   0.000000

  0.2000000E+00  0.1333333E+00  0.1333333E+00  0.7111111E-02
    1       -3.969553   1.000000
    2        1.667770   1.000000
    3        3.062432   1.000000
    4        4.194244   1.000000
    5        6.199920   1.000000
    6        7.002044   1.000000
    7        9.935359  -0.000000
    8       10.499004  -0.000000
    9       11.882315  -0.000000
   10       14.237127   0.000000

  0.2666667E+00  0.1333333E+00  0.1333333E+00  0.7111111E-02
    1       -3.340085   1.000000
    2        0.810214   1.000000
    3        2.838110   1.000000
    4        4.032039   1.000000
    5        5.711628   1.000000
    6        7.513334   1.000000
    7        9.771655  -0.000001
    8       10.796795  -0.000000
    9       12.249454   0.000000
   10       14.363244   0.000000

  0.3333333E+00  0.1333333E+00  0.1333333E+00  0.7111111E-02
    1       -2.616583   1.000000
    2       -0.077470   1.000000
    3        2.696186   1.000000
    4        3.898646   1.000000
    5        5.327541   1.000000
    6        8.000741   1.000000
    7        9.705618  -0.000046
    8       10.945166  -0.000000
    9       12.446181   0.000000
   10       14.694214   0.000000

  0.4000000E+00  0.1333333E+00  0.1333333E+00  0.7111111E-02
    1       -1.823429   1.000000
    2       -0.954926   1.000000
    3        2.626283   1.000000
    4        3.829274   1.000000
    5        5.118647   1.000000
    6        8.274887   1.000000
    7        9.748087  -0.000003
    8       10.940215  -0.000000
    9       12.596367   0.000000
   10       14.813594   0.000000

  0.2000000E+00  0.2000000E+00  0.1333333E+00  0.3555556E-02
    1       -3.405139   1.000000
    2        1.123306   1.000000
    3        2.486517   1.000000
    4        4.074607   1.000000
    5        6.044078   1.000000
    6        7.130009   1.000000
    7        9.669398  -0.000336
    8       10.925686  -0.000000
    9       12.598041   0.000000
   10       14.117723   0.000000

  0.2666667E+00  0.2000000E+00  0.1333333E+00  0.7111111E-02
    1       -2.736797   1.000000
    2        0.447396   1.000000
    3        2.071312   1.000000
    4        3.997210   1.000000
    5        5.567838   1.000000
    6        7.711558   1.000000
    7        9.433713   0.187677
    8       11.126452  -0.000000
    9       13.145953   0.000000
   10       14.321342   0.000000
