 running on    4 total cores
 distrk:  each k-point on    4 cores,    1 groups
 distr:  one band on    2 cores,    2 groups
 using from now: INCAR     
 vasp.5.4.4.18Apr17-6-g9f103f2a35 (build Dec  7 2020 12:43:57) complex           
 POSCAR found type information on POSCAR  Mo B 
 POSCAR found :  2 types and       3 ions
 scaLAPACK will be used
 LDA part: xc-table for Pade appr. of Perdew
 POSCAR, INCAR and KPOINTS ok, starting setup
 FFT: planning ...
 WAVECAR not read
 augmentation electrons   12.018373587906812     
 soft         electrons   0.0000000000000000     
 augmentation electrons   12.018373587906812     
 soft         electrons   0.0000000000000000     
 augmentation electrons   12.018373587906812     
 augmentation electrons   12.018373587906812     
 soft         electrons   0.0000000000000000     
 soft         electrons   0.0000000000000000     
 total        electrons   12.018373587906812     
 total        electrons   12.018373587906812     
 total        electrons   12.018373587906812     
 total        electrons   12.018373587906812     
 augmentation electrons   169.75791458332097     
 soft         electrons   0.0000000000000000     
 augmentation electrons   169.75791458332097     
 soft         electrons   0.0000000000000000     
 augmentation electrons   169.75791458332097     
 soft         electrons   0.0000000000000000     
 augmentation electrons   169.75791458332097     
 soft         electrons   0.0000000000000000     
 total        electrons   169.75791458332097     
 total        electrons   169.75791458332097     
 total        electrons   169.75791458332097     
 total        electrons   169.75791458332097     
 entering main loop
       N       E                     dE             d eps       ncg     rms          rms(c)
DAV:   1     0.395349818125E+02    0.39535E+02   -0.57057E+03  4320   0.105E+03
DAV:   2    -0.171010406285E+02   -0.56636E+02   -0.53699E+02  5166   0.218E+02
DAV:   3    -0.193306113263E+02   -0.22296E+01   -0.21263E+01  6198   0.380E+01
DAV:   4    -0.193593166401E+02   -0.28705E-01   -0.28499E-01  5576   0.318E+00
DAV:   5    -0.193597477890E+02   -0.43115E-03   -0.43050E-03  5644   0.300E-01    0.333E+01
RMM:   6    -0.148511310498E+02    0.45086E+01   -0.14855E+01  4345   0.255E+01    0.727E+00
RMM:   7    -0.149743664587E+02   -0.12324E+00   -0.75385E-01  4329   0.587E+00    0.434E+00
RMM:   8    -0.151272163024E+02   -0.15285E+00   -0.93889E-01  4320   0.130E+01    0.509E+00
RMM:   9    -0.151054762540E+02    0.21740E-01   -0.20931E-01  4323   0.409E+00    0.114E+00
RMM:  10    -0.151036331216E+02    0.18431E-02   -0.24344E-02  4328   0.229E+00    0.659E-01
RMM:  11    -0.151052958203E+02   -0.16627E-02   -0.12387E-02  4320   0.133E+00    0.314E-01
RMM:  12    -0.151196717135E+02   -0.14376E-01   -0.94214E-02  4320   0.461E+00    0.180E-01
RMM:  13    -0.151188284413E+02    0.84327E-03   -0.31956E-03  4321   0.707E-01    0.859E-02
RMM:  14    -0.151190738910E+02   -0.24545E-03   -0.10750E-03  4327   0.463E-01    0.758E-02
RMM:  15    -0.151189838379E+02    0.90053E-04   -0.67797E-04  4320   0.327E-01    0.344E-02
RMM:  16    -0.151190404599E+02   -0.56622E-04   -0.74983E-05  4342   0.108E-01    0.582E-02
RMM:  17    -0.151190200189E+02    0.20441E-04   -0.76728E-05  4320   0.127E-01    0.334E-02
RMM:  18    -0.151190557841E+02   -0.35765E-04   -0.12599E-04  4320   0.166E-01    0.159E-02
RMM:  19    -0.151190564012E+02   -0.61707E-06   -0.47573E-06  3448   0.260E-02
   1 F= -.15119056E+02 E0= -.15119017E+02  d E =-.151191E+02
 curvature:   0.00 expect dE= 0.000E+00 dE for cont linesearch  0.000E+00
 trial: gam= 0.00000 g(F)=  0.499E-43 g(S)=  0.107E+01 ort = 0.000E+00 (trialstep = 0.100E+01)
 search vector abs. value=  0.107E+01
 bond charge predicted
       N       E                     dE             d eps       ncg     rms          rms(c)
DAV:   1    -0.155943639263E+02   -0.47531E+00   -0.26237E+01  4358   0.490E+01    0.158E+01
RMM:   2    -0.150346233231E+02    0.55974E+00   -0.16096E+00  4320   0.898E+00    0.579E+00
RMM:   3    -0.149820231989E+02    0.52600E-01   -0.14081E-01  4321   0.336E+00    0.407E+00
RMM:   4    -0.149925739635E+02   -0.10551E-01   -0.13917E-01  4320   0.369E+00    0.807E-01
RMM:   5    -0.149949349192E+02   -0.23610E-02   -0.17805E-02  4341   0.102E+00    0.220E-01
RMM:   6    -0.149931229694E+02    0.18119E-02   -0.55781E-03  4320   0.875E-01    0.375E-02
RMM:   7    -0.149932927481E+02   -0.16978E-03   -0.85935E-04  4330   0.170E-01    0.583E-02
RMM:   8    -0.149932515123E+02    0.41236E-04   -0.57083E-05  4336   0.746E-02    0.362E-02
RMM:   9    -0.149932900287E+02   -0.38516E-04   -0.62152E-05  4333   0.110E-01    0.284E-02
RMM:  10    -0.149933739388E+02   -0.83910E-04   -0.58273E-04  4328   0.338E-01    0.108E-02
RMM:  11    -0.149933993441E+02   -0.25405E-04   -0.24963E-04  4355   0.212E-01    0.498E-03
RMM:  12    -0.149934052318E+02   -0.58877E-05   -0.62757E-05  4383   0.958E-02    0.435E-03
RMM:  13    -0.149934066160E+02   -0.13842E-05   -0.69764E-05  4329   0.115E-01    0.223E-03
RMM:  14    -0.149934079747E+02   -0.13587E-05   -0.91960E-06  4102   0.483E-02    0.799E-04
RMM:  15    -0.149934080105E+02   -0.35810E-07   -0.31651E-07  2748   0.722E-03
   2 F= -.14993408E+02 E0= -.14993392E+02  d E =0.125648E+00
 trial-energy change:    0.125648  1 .order    0.047315   -1.069597    1.164228
 step:   0.4273(harm=  0.4788)  dis= 0.00000  next Energy=   -15.341479 (dE=-0.222E+00)
 bond charge predicted
       N       E                     dE             d eps       ncg     rms          rms(c)
DAV:   1    -0.155150628778E+02   -0.52165E+00   -0.89194E+00  4342   0.301E+01    0.815E+00
RMM:   2    -0.153436655668E+02    0.17140E+00   -0.28644E-01  4320   0.413E+00    0.271E+00
RMM:   3    -0.153286439120E+02    0.15022E-01   -0.44913E-02  4321   0.167E+00    0.133E+00
RMM:   4    -0.153303079532E+02   -0.16640E-02   -0.30625E-02  4320   0.173E+00    0.439E-01
RMM:   5    -0.153313288909E+02   -0.10209E-02   -0.33670E-03  4349   0.643E-01    0.852E-02
RMM:   6    -0.153310506572E+02    0.27823E-03   -0.68573E-04  4320   0.347E-01    0.332E-02
RMM:   7    -0.153310346415E+02    0.16016E-04   -0.27708E-04  4325   0.112E-01    0.208E-02
RMM:   8    -0.153310304649E+02    0.41766E-05   -0.47479E-05  4321   0.795E-02    0.843E-03
RMM:   9    -0.153310462552E+02   -0.15790E-04   -0.63042E-05  4322   0.119E-01    0.131E-02
RMM:  10    -0.153310485534E+02   -0.22982E-05   -0.72036E-06  3972   0.330E-02    0.569E-03
RMM:  11    -0.153310503263E+02   -0.17730E-05   -0.39813E-05  4272   0.956E-02    0.136E-03
RMM:  12    -0.153310506947E+02   -0.36836E-06   -0.22986E-06  3111   0.245E-02
   3 F= -.15331051E+02 E0= -.15331050E+02  d E =-.211994E+00
 curvature:  -0.24 expect dE=-0.417E-02 dE for cont linesearch -0.157E-03
 ZBRENT: interpolating
 opt :   0.4170  next Energy=   -15.331188 (dE=-0.212E+00)
 bond charge predicted
       N       E                     dE             d eps       ncg     rms          rms(c)
DAV:   1    -0.153312609266E+02   -0.21060E-03   -0.29139E-03  4614   0.542E-01    0.170E-01
RMM:   2    -0.153312075085E+02    0.53418E-04   -0.10433E-04  4320   0.765E-02    0.613E-02
RMM:   3    -0.153312058634E+02    0.16452E-05   -0.14532E-05  4320   0.334E-02    0.335E-02
RMM:   4    -0.153312091579E+02   -0.32945E-05   -0.11542E-05  4316   0.368E-02    0.950E-03
RMM:   5    -0.153312096128E+02   -0.45497E-06   -0.13636E-06  2590   0.156E-02
   4 F= -.15331210E+02 E0= -.15331208E+02  d E =-.212153E+00
 curvature:  -0.21 expect dE=-0.337E-02 dE for cont linesearch -0.121E-05
 trial: gam= 0.01743 g(F)=  0.168E-43 g(S)=  0.162E-01 ort =-0.249E-02 (trialstep = 0.883E+00)
 search vector abs. value=  0.164E-01
 bond charge predicted
       N       E                     dE             d eps       ncg     rms          rms(c)
DAV:   1    -0.153422757207E+02   -0.11067E-01   -0.39248E-01  4392   0.538E+00    0.315E-01
RMM:   2    -0.153403645268E+02    0.19112E-02   -0.10091E-02  4325   0.935E-01    0.348E-01
RMM:   3    -0.153401904970E+02    0.17403E-03   -0.50823E-04  4390   0.182E-01    0.227E-01
RMM:   4    -0.153401749974E+02    0.15500E-04   -0.60721E-04  4320   0.298E-01    0.399E-02
RMM:   5    -0.153401792106E+02   -0.42131E-05   -0.13285E-05  4135   0.318E-02    0.383E-02
RMM:   6    -0.153402571619E+02   -0.77951E-04   -0.24803E-04  4320   0.217E-01    0.262E-02
RMM:   7    -0.153402644553E+02   -0.72934E-05   -0.18748E-05  4310   0.512E-02    0.104E-02
RMM:   8    -0.153402796268E+02   -0.15172E-04   -0.10548E-04  4318   0.153E-01    0.525E-03
RMM:   9    -0.153402793668E+02    0.26001E-06   -0.26060E-06  3185   0.174E-02
   5 F= -.15340279E+02 E0= -.15340215E+02  d E =-.906975E-02
 trial-energy change:   -0.009070  1 .order   -0.009072   -0.014229   -0.003915
 step:   1.2187(harm=  1.2187)  dis= 0.00000  next Energy=   -15.341024 (dE=-0.981E-02)
 bond charge predicted
       N       E                     dE             d eps       ncg     rms          rms(c)
DAV:   1    -0.153413106109E+02   -0.10310E-02   -0.56370E-02  4440   0.204E+00    0.120E-01
RMM:   2    -0.153410238416E+02    0.28677E-03   -0.14959E-03  4325   0.358E-01    0.133E-01
RMM:   3    -0.153410020691E+02    0.21773E-04   -0.72472E-05  4378   0.655E-02    0.865E-02
RMM:   4    -0.153410022117E+02   -0.14259E-06   -0.73169E-05  4320   0.103E-01    0.141E-02
RMM:   5    -0.153410026554E+02   -0.44372E-06   -0.14745E-06  3010   0.106E-02
   6 F= -.15341003E+02 E0= -.15340904E+02  d E =-.979304E-02
 curvature:  -0.62 expect dE=-0.927E-06 dE for cont linesearch -0.883E-06
 trial: gam= 0.00000 g(F)=  0.166E-42 g(S)=  0.150E-05 ort =-0.153E-03 (trialstep = 0.950E+00)
 search vector abs. value=  0.150E-05
 reached required accuracy - stopping structural energy minimisation
 writing wavefunctions
 augmentation electrons   1.1751262777071023     
 soft         electrons   10.846578378267289     
 augmentation electrons   1.1751262777071023     
 soft         electrons   10.846578378267289     
 augmentation electrons   1.1751262777071023     
 soft         electrons   10.846578378267289     
 total        electrons   12.021704655974391     
 augmentation electrons   1.1751262777071023     
 soft         electrons   10.846578378267289     
 total        electrons   12.021704655974391     
 total        electrons   12.021704655974391     
 total        electrons   12.021704655974391     
