   56   56   85    1
  0.1358781E+02  0.6088057E-09  0.6088057E-09  0.2372246E-08  0.5000000E-15
   1.0000000000000000E-004
  CAR 
 Name                                    
    202     41    132

  0.3742002E-15  0.3742002E-15  0.1262379E-14  0.1234568E-01
    1      -11.662992   1.000000
    2      -11.087595   1.000000
    3      -10.282554   1.000000
    4       -9.263045   1.000000
    5       -8.850258   1.000000
    6       -8.781104   1.000000
    7       -8.396102   1.000000
    8       -8.210014   1.000000
    9       -8.076842   1.000000
   10       -7.960149   1.000000
   11       -7.898912   1.000000
   12       -7.852961   1.000000
   13       -7.823021   1.000000
   14       -7.813449   1.000000
   15       -7.531250   1.000000
   16       -7.497539   1.000000
   17       -7.461326   1.000000
   18       -7.320928   1.000000
   19       -7.163820   1.000000
   20       -7.099918   1.000000
   21       -7.001112   1.000000
   22       -6.504175   1.000000
   23       -6.299604   1.000000
   24       -6.249031   1.000000
   25       -6.153183   1.000000
   26       -6.117287   1.000000
   27       -6.025179   1.000000
   28       -6.013793   1.000000
   29       -5.708810   1.000000
   30       -5.444561   1.000000
   31       -5.028152   1.000000
   32       -4.869400   1.000000
   33       -4.738255   1.000000
   34       -4.733688   1.000000
   35       -4.501183   1.000000
   36       -4.461109   1.000000
   37       -4.302578   1.000000
   38       -3.790135   1.000000
   39       -3.368173   1.000000
   40       -3.285308   1.000000
   41       -3.200707   1.000000
   42       -3.086270   1.000000
   43       -2.850190   1.000000
   44       -2.803896   1.000000
   45       -2.709026   1.000000
   46       -2.623215   1.000000
   47       -2.580138   1.000000
   48       -2.413559   1.000000
   49       -2.401248   1.000000
   50       -2.347634   1.000000
   51       -2.160209   1.000000
   52       -2.086776   1.000000
   53       -2.069628   1.000000
   54       -2.014018   1.000000
   55       -1.990446   1.000000
   56       -1.960487   1.000000
   57       -1.906556   1.000000
   58       -1.820254   1.000000
   59       -1.817019   1.000000
   60       -1.660594   1.000000
   61       -1.491807   1.000000
   62       -1.446425   1.000000
   63       -1.437494   1.000000
   64       -1.319743   1.000000
   65       -1.267244   1.000000
   66       -1.246448   1.000000
   67       -1.071628   1.000000
   68       -0.974371   1.000000
   69       -0.943399   1.000000
   70       -0.903609   1.000000
   71       -0.811009   1.000000
   72       -0.807229   1.000000
   73       -0.772113   1.000000
   74       -0.725766   1.000000
   75       -0.541070   1.000000
   76       -0.375773   1.000000
   77       -0.266794   1.000000
   78       -0.247520   1.000000
   79       -0.221310   1.000000
   80        0.159753   1.000000
   81        0.172087   1.000000
   82        0.399854   1.000000
   83        0.499697   1.000000
   84        0.616069   1.000000
   85        0.906579   1.000000
   86        0.948761   1.000000
   87        1.003810   1.000000
   88        1.116666   1.000000
   89        1.151108   1.000000
   90        1.282711   1.000000
   91        1.319650   1.000000
   92        1.357532   1.000000
   93        1.387241   1.000000
   94        1.439920   1.000000
   95        1.454518   1.000000
   96        1.495446   1.000000
   97        1.932975   1.000109
   98        2.050057   1.001896
   99        2.489450   0.656996
  100        2.541950   0.438167
  101        2.591716   0.242453
  102        2.779612  -0.035259
  103        2.801552  -0.032769
  104        3.010307  -0.001678
  105        3.035796  -0.000956
  106        3.063520  -0.000496
  107        3.151006  -0.000047
  108        3.387146  -0.000000
  109        3.432983  -0.000000
  110        3.447320  -0.000000
  111        3.487977  -0.000000
  112        3.560041  -0.000000
  113        3.664387  -0.000000
  114        3.670952  -0.000000
  115        3.737417  -0.000000
  116        3.742448  -0.000000
  117        3.749067  -0.000000
  118        3.769000  -0.000000
  119        3.856367  -0.000000
  120        3.864160  -0.000000
  121        3.925367  -0.000000
  122        4.003968  -0.000000
  123        4.019097  -0.000000
  124        4.042409  -0.000000
  125        4.076929  -0.000000
  126        4.130854  -0.000000
  127        4.190947  -0.000000
  128        4.236422  -0.000000
  129        4.351701  -0.000000
  130        4.423591  -0.000000
  131        4.636980  -0.000000
  132        4.705945  -0.000000

  0.1111111E+00  0.3857958E-15  0.1262379E-14  0.2469136E-01
    1      -11.605668   1.000000
    2      -11.034994   1.000000
    3      -10.241495   1.000000
    4       -9.233253   1.000000
    5       -8.817460   1.000000
    6       -8.799253   1.000000
    7       -8.548093   1.000000
    8       -8.422625   1.000000
    9       -8.238088   1.000000
   10       -8.146976   1.000000
   11       -8.119800   1.000000
   12       -8.077685   1.000000
   13       -7.950702   1.000000
   14       -7.905418   1.000000
   15       -7.425952   1.000000
   16       -7.301165   1.000000
   17       -7.248699   1.000000
   18       -7.091683   1.000000
   19       -7.008953   1.000000
   20       -6.919636   1.000000
   21       -6.818947   1.000000
   22       -6.592100   1.000000
   23       -6.294132   1.000000
   24       -6.247948   1.000000
   25       -6.151120   1.000000
   26       -6.043414   1.000000
   27       -5.986383   1.000000
   28       -5.859656   1.000000
   29       -5.708019   1.000000
   30       -5.388661   1.000000
   31       -5.011320   1.000000
   32       -4.751297   1.000000
   33       -4.705510   1.000000
   34       -4.551598   1.000000
   35       -4.422970   1.000000
   36       -4.359522   1.000000
   37       -4.143056   1.000000
   38       -3.757052   1.000000
   39       -3.361366   1.000000
   40       -3.319954   1.000000
   41       -3.224140   1.000000
   42       -3.073896   1.000000
   43       -2.935554   1.000000
   44       -2.827927   1.000000
   45       -2.785418   1.000000
   46       -2.747335   1.000000
   47       -2.657445   1.000000
   48       -2.557175   1.000000
   49       -2.399241   1.000000
   50       -2.327747   1.000000
   51       -2.201707   1.000000
   52       -2.114894   1.000000
   53       -2.045996   1.000000
   54       -2.003133   1.000000
   55       -1.961828   1.000000
   56       -1.937825   1.000000
   57       -1.881806   1.000000
   58       -1.825876   1.000000
   59       -1.815723   1.000000
   60       -1.654561   1.000000
   61       -1.530838   1.000000
   62       -1.514068   1.000000
   63       -1.471992   1.000000
   64       -1.399723   1.000000
   65       -1.305284   1.000000
   66       -1.278320   1.000000
   67       -1.161007   1.000000
   68       -1.112339   1.000000
   69       -0.985014   1.000000
   70       -0.963405   1.000000
   71       -0.883969   1.000000
   72       -0.790669   1.000000
   73       -0.725904   1.000000
   74       -0.678268   1.000000
   75       -0.537592   1.000000
   76       -0.415272   1.000000
   77       -0.359718   1.000000
   78       -0.254287   1.000000
   79       -0.140323   1.000000
   80       -0.038835   1.000000
   81        0.086166   1.000000
   82        0.303044   1.000000
   83        0.347745   1.000000
   84        0.607058   1.000000
   85        0.750265   1.000000
   86        0.770659   1.000000
   87        0.918853   1.000000
   88        0.991700   1.000000
   89        1.159613   1.000000
   90        1.261881   1.000000
   91        1.283127   1.000000
   92        1.311311   1.000000
   93        1.333518   1.000000
   94        1.417717   1.000000
   95        1.547425   1.000000
   96        1.620473   1.000000
   97        2.188210   1.018747
   98        2.245674   1.031472
   99        2.456026   0.781384
  100        2.537701   0.456030
  101        2.595703   0.228455
  102        2.653377   0.066804
  103        2.741295  -0.030950
  104        2.832343  -0.026513
  105        3.102828  -0.000182
  106        3.177645  -0.000021
  107        3.298585  -0.000000
  108        3.390455  -0.000000
  109        3.423955  -0.000000
  110        3.449239  -0.000000
  111        3.486703  -0.000000
  112        3.536699  -0.000000
  113        3.614519  -0.000000
  114        3.632099  -0.000000
  115        3.679919  -0.000000
  116        3.735157  -0.000000
  117        3.744571  -0.000000
  118        3.765678  -0.000000
  119        3.812082  -0.000000
  120        3.838687  -0.000000
  121        3.885174  -0.000000
  122        3.959694  -0.000000
  123        3.981200  -0.000000
  124        4.011521  -0.000000
  125        4.068187  -0.000000
  126        4.088466  -0.000000
  127        4.144317  -0.000000
  128        4.225938  -0.000000
  129        4.344429  -0.000000
  130        4.450983  -0.000000
  131        4.557238  -0.000000
  132        4.697554  -0.000000

  0.2222222E+00  0.3935346E-15  0.1262379E-14  0.2469136E-01
    1      -11.435861   1.000000
    2      -10.879615   1.000000
    3      -10.121461   1.000000
    4       -9.157338   1.000000
    5       -9.116188   1.000000
    6       -8.908121   1.000000
    7       -8.872675   1.000000
    8       -8.709908   1.000000
    9       -8.394513   1.000000
   10       -8.336426   1.000000
   11       -8.304367   1.000000
   12       -8.158139   1.000000
   13       -8.154573   1.000000
   14       -8.106998   1.000000
   15       -7.460050   1.000000
   16       -7.215385   1.000000
   17       -7.104527   1.000000
   18       -6.927106   1.000000
   19       -6.903837   1.000000
   20       -6.676177   1.000000
   21       -6.616661   1.000000
   22       -6.279467   1.000000
   23       -6.168519   1.000000
   24       -6.038926   1.000000
   25       -5.963910   1.000000
   26       -5.900982   1.000000
   27       -5.796046   1.000000
   28       -5.724759   1.000000
   29       -5.387243   1.000000
   30       -5.188225   1.000000
   31       -4.915563   1.000000
   32       -4.583582   1.000000
   33       -4.554135   1.000000
   34       -4.292744   1.000000
   35       -4.156522   1.000000
   36       -4.041833   1.000000
   37       -3.743963   1.000000
   38       -3.682434   1.000000
   39       -3.514162   1.000000
   40       -3.420960   1.000000
   41       -3.321867   1.000000
   42       -3.273859   1.000000
   43       -3.241065   1.000000
   44       -3.033680   1.000000
   45       -2.987826   1.000000
   46       -2.741859   1.000000
   47       -2.658138   1.000000
   48       -2.610720   1.000000
   49       -2.393342   1.000000
   50       -2.321188   1.000000
   51       -2.249564   1.000000
   52       -2.200600   1.000000
   53       -2.129894   1.000000
   54       -2.066676   1.000000
   55       -2.043072   1.000000
   56       -1.961162   1.000000
   57       -1.899692   1.000000
   58       -1.882007   1.000000
   59       -1.791580   1.000000
   60       -1.682327   1.000000
   61       -1.670003   1.000000
   62       -1.593991   1.000000
   63       -1.566790   1.000000
   64       -1.520240   1.000000
   65       -1.430497   1.000000
   66       -1.367333   1.000000
   67       -1.331482   1.000000
   68       -1.256811   1.000000
   69       -1.142106   1.000000
   70       -1.102956   1.000000
   71       -1.078161   1.000000
   72       -0.869983   1.000000
   73       -0.779365   1.000000
   74       -0.665930   1.000000
   75       -0.607984   1.000000
   76       -0.529869   1.000000
   77       -0.388905   1.000000
   78       -0.297814   1.000000
   79       -0.274359   1.000000
   80       -0.119664   1.000000
   81        0.017131   1.000000
   82        0.175087   1.000000
   83        0.321060   1.000000
   84        0.371065   1.000000
   85        0.485893   1.000000
   86        0.697841   1.000000
   87        0.760208   1.000000
   88        0.832442   1.000000
   89        1.055855   1.000000
   90        1.081280   1.000000
   91        1.215976   1.000000
   92        1.247132   1.000000
   93        1.333727   1.000000
   94        1.366300   1.000000
   95        1.581531   1.000000
   96        1.782361   1.000001
   97        2.128175   1.008109
   98        2.186985   1.018480
   99        2.277098   1.035356
  100        2.527677   0.498377
  101        2.617866   0.156882
  102        2.835904  -0.025698
  103        2.918027  -0.009259
  104        2.986996  -0.002716
  105        3.136895  -0.000071
  106        3.157416  -0.000039
  107        3.222708  -0.000005
  108        3.238217  -0.000003
  109        3.278774  -0.000001
  110        3.336632  -0.000000
  111        3.415809  -0.000000
  112        3.467212  -0.000000
  113        3.537896  -0.000000
  114        3.569486  -0.000000
  115        3.599370  -0.000000
  116        3.655772  -0.000000
  117        3.683970  -0.000000
  118        3.722799  -0.000000
  119        3.771537  -0.000000
  120        3.823918  -0.000000
  121        3.842400  -0.000000
  122        3.905177  -0.000000
  123        3.933296  -0.000000
  124        4.045974  -0.000000
  125        4.089806  -0.000000
  126        4.122522  -0.000000
  127        4.193844  -0.000000
  128        4.239524  -0.000000
  129        4.263756  -0.000000
  130        4.442679  -0.000000
  131        4.503287  -0.000000
  132        4.691589  -0.000000

  0.3333333E+00  0.3939838E-15  0.1262379E-14  0.2469136E-01
    1      -11.160945   1.000000
    2      -10.629106   1.000000
    3       -9.932023   1.000000
    4       -9.725377   1.000000
    5       -9.387270   1.000000
    6       -9.114388   1.000000
    7       -9.016834   1.000000
    8       -8.541868   1.000000
    9       -8.498350   1.000000
   10       -8.467507   1.000000
   11       -8.453531   1.000000
   12       -8.310865   1.000000
   13       -8.230252   1.000000
   14       -8.137550   1.000000
   15       -7.619657   1.000000
   16       -7.575100   1.000000
   17       -7.289733   1.000000
   18       -6.742967   1.000000
   19       -6.688732   1.000000
   20       -6.324374   1.000000
   21       -6.187986   1.000000
   22       -6.151780   1.000000
   23       -6.006274   1.000000
   24       -5.967769   1.000000
   25       -5.880381   1.000000
   26       -5.700984   1.000000
   27       -5.260952   1.000000
   28       -5.134286   1.000000
   29       -4.903179   1.000000
   30       -4.831029   1.000000
   31       -4.656683   1.000000
   32       -4.364580   1.000000
   33       -4.282997   1.000000
   34       -4.077679   1.000000
   35       -3.945523   1.000000
   36       -3.892426   1.000000
   37       -3.811279   1.000000
   38       -3.767654   1.000000
   39       -3.732630   1.000000
   40       -3.634328   1.000000
   41       -3.601528   1.000000
   42       -3.506972   1.000000
   43       -3.280098   1.000000
   44       -3.007042   1.000000
   45       -2.890567   1.000000
   46       -2.837010   1.000000
   47       -2.717495   1.000000
   48       -2.619050   1.000000
   49       -2.570056   1.000000
   50       -2.438784   1.000000
   51       -2.358470   1.000000
   52       -2.303471   1.000000
   53       -2.245364   1.000000
   54       -2.184312   1.000000
   55       -2.147076   1.000000
   56       -2.109869   1.000000
   57       -2.005248   1.000000
   58       -1.971357   1.000000
   59       -1.949446   1.000000
   60       -1.814642   1.000000
   61       -1.785197   1.000000
   62       -1.710209   1.000000
   63       -1.627381   1.000000
   64       -1.597970   1.000000
   65       -1.554478   1.000000
   66       -1.475962   1.000000
   67       -1.434951   1.000000
   68       -1.354293   1.000000
   69       -1.273381   1.000000
   70       -1.233339   1.000000
   71       -1.172303   1.000000
   72       -0.903630   1.000000
   73       -0.849343   1.000000
   74       -0.761323   1.000000
   75       -0.668313   1.000000
   76       -0.585090   1.000000
   77       -0.538881   1.000000
   78       -0.448667   1.000000
   79       -0.259804   1.000000
   80       -0.210939   1.000000
   81       -0.043139   1.000000
   82        0.093118   1.000000
   83        0.222739   1.000000
   84        0.399214   1.000000
   85        0.482013   1.000000
   86        0.622183   1.000000
   87        0.689378   1.000000
   88        0.800220   1.000000
   89        0.925469   1.000000
   90        0.988102   1.000000
   91        1.091037   1.000000
   92        1.192338   1.000000
   93        1.254438   1.000000
   94        1.303921   1.000000
   95        1.485452   1.000000
   96        1.921663   1.000080
   97        1.972180   1.000310
   98        2.032987   1.001314
   99        2.097540   1.004801
  100        2.423171   0.881210
  101        2.622092   0.144521
  102        2.669952   0.035572
  103        2.765308  -0.035264
  104        2.845459  -0.023490
  105        2.920480  -0.008911
  106        3.033665  -0.001003
  107        3.090316  -0.000253
  108        3.156254  -0.000041
  109        3.189099  -0.000015
  110        3.276417  -0.000001
  111        3.327896  -0.000000
  112        3.373813  -0.000000
  113        3.403930  -0.000000
  114        3.507369  -0.000000
  115        3.533540  -0.000000
  116        3.634248  -0.000000
  117        3.686523  -0.000000
  118        3.733032  -0.000000
  119        3.782181  -0.000000
  120        3.851518  -0.000000
  121        3.871442  -0.000000
  122        3.949048  -0.000000
  123        4.016022  -0.000000
  124        4.037289  -0.000000
  125        4.099037  -0.000000
  126        4.143348  -0.000000
  127        4.199324  -0.000000
  128        4.329246  -0.000000
  129        4.349126  -0.000000
  130        4.466739  -0.000000
  131        4.543596  -0.000000
  132        4.590890  -0.000000

  0.4444444E+00  0.3881204E-15  0.1262379E-14  0.2469136E-01
    1      -10.807302   1.000000
    2      -10.304845   1.000000
    3      -10.245832   1.000000
    4       -9.842625   1.000000
    5       -9.688494   1.000000
    6       -9.388560   1.000000
    7       -8.923378   1.000000
    8       -8.551390   1.000000
    9       -8.544053   1.000000
   10       -8.521320   1.000000
   11       -8.387591   1.000000
   12       -8.297397   1.000000
   13       -8.269376   1.000000
   14       -8.127827   1.000000
   15       -7.948289   1.000000
   16       -7.780302   1.000000
   17       -7.364206   1.000000
   18       -6.694016   1.000000
   19       -6.574052   1.000000
   20       -6.166346   1.000000
   21       -6.041695   1.000000
   22       -5.913771   1.000000
   23       -5.834564   1.000000
   24       -5.801998   1.000000
   25       -5.734316   1.000000
   26       -5.625154   1.000000
   27       -4.733731   1.000000
   28       -4.647925   1.000000
   29       -4.438047   1.000000
   30       -4.388722   1.000000
   31       -4.353248   1.000000
   32       -4.273809   1.000000
   33       -4.158502   1.000000
   34       -4.119783   1.000000
   35       -4.065167   1.000000
   36       -4.006764   1.000000
   37       -3.959356   1.000000
   38       -3.887199   1.000000
   39       -3.767998   1.000000
   40       -3.732474   1.000000
   41       -3.681677   1.000000
   42       -3.534424   1.000000
   43       -3.503830   1.000000
   44       -3.391244   1.000000
   45       -3.016295   1.000000
   46       -2.880017   1.000000
   47       -2.725485   1.000000
   48       -2.681198   1.000000
   49       -2.582280   1.000000
   50       -2.551187   1.000000
   51       -2.372737   1.000000
   52       -2.312738   1.000000
   53       -2.290263   1.000000
   54       -2.239029   1.000000
   55       -2.221685   1.000000
   56       -2.177964   1.000000
   57       -2.119624   1.000000
   58       -2.053905   1.000000
   59       -2.007938   1.000000
   60       -1.941767   1.000000
   61       -1.840630   1.000000
   62       -1.749603   1.000000
   63       -1.699321   1.000000
   64       -1.678973   1.000000
   65       -1.630141   1.000000
   66       -1.548736   1.000000
   67       -1.511501   1.000000
   68       -1.377732   1.000000
   69       -1.319899   1.000000
   70       -1.246967   1.000000
   71       -1.199585   1.000000
   72       -0.956639   1.000000
   73       -0.846826   1.000000
   74       -0.810069   1.000000
   75       -0.742286   1.000000
   76       -0.687931   1.000000
   77       -0.606411   1.000000
   78       -0.516953   1.000000
   79       -0.334550   1.000000
   80       -0.173443   1.000000
   81       -0.086413   1.000000
   82        0.018992   1.000000
   83        0.283853   1.000000
   84        0.431774   1.000000
   85        0.477151   1.000000
   86        0.570872   1.000000
   87        0.664446   1.000000
   88        0.742942   1.000000
   89        0.894361   1.000000
   90        0.953584   1.000000
   91        0.982014   1.000000
   92        1.164655   1.000000
   93        1.199671   1.000000
   94        1.351792   1.000000
   95        1.599576   1.000000
   96        1.883804   1.000026
   97        1.958119   1.000215
   98        2.069805   1.002838
   99        2.115109   1.006534
  100        2.142146   1.010087
  101        2.231483   1.028575
  102        2.453420   0.790201
  103        2.539021   0.450471
  104        2.708201  -0.012175
  105        2.835305  -0.025836
  106        2.878280  -0.016222
  107        3.002948  -0.001960
  108        3.057905  -0.000569
  109        3.111398  -0.000145
  110        3.180955  -0.000019
  111        3.247796  -0.000002
  112        3.276100  -0.000001
  113        3.325725  -0.000000
  114        3.398356  -0.000000
  115        3.481162  -0.000000
  116        3.588036  -0.000000
  117        3.651817  -0.000000
  118        3.683441  -0.000000
  119        3.764130  -0.000000
  120        3.880335  -0.000000
  121        3.897069  -0.000000
  122        3.963249  -0.000000
  123        4.052886  -0.000000
  124        4.140913  -0.000000
  125        4.164765  -0.000000
  126        4.259991  -0.000000
  127        4.335962  -0.000000
  128        4.390582  -0.000000
  129        4.426778  -0.000000
  130        4.584736  -0.000000
  131        4.665945  -0.000000
  132        4.750342  -0.000000

  0.3742002E-15  0.1111111E+00  0.1262379E-14  0.2469136E-01
    1      -11.605674   1.000000
    2      -11.034984   1.000000
    3      -10.241266   1.000000
    4       -9.226914   1.000000
    5       -8.817410   1.000000
    6       -8.798870   1.000000
    7       -8.548108   1.000000
    8       -8.420285   1.000000
    9       -8.239366   1.000000
   10       -8.146553   1.000000
   11       -8.120003   1.000000
   12       -8.077711   1.000000
   13       -7.950587   1.000000
   14       -7.908099   1.000000
   15       -7.478455   1.000000
   16       -7.317961   1.000000
   17       -7.258932   1.000000
   18       -7.079069   1.000000
   19       -7.020948   1.000000
   20       -6.930764   1.000000
   21       -6.735055   1.000000
   22       -6.517766   1.000000
   23       -6.332192   1.000000
   24       -6.251630   1.000000
   25       -6.154752   1.000000
   26       -6.047679   1.000000
   27       -5.987590   1.000000
   28       -5.878545   1.000000
   29       -5.706394   1.000000
   30       -5.384665   1.000000
   31       -5.029836   1.000000
   32       -4.754648   1.000000
   33       -4.707450   1.000000
   34       -4.540946   1.000000
   35       -4.467422   1.000000
   36       -4.291344   1.000000
   37       -4.157971   1.000000
   38       -3.755587   1.000000
   39       -3.355038   1.000000
   40       -3.316974   1.000000
   41       -3.235556   1.000000
   42       -3.070949   1.000000
   43       -2.944046   1.000000
   44       -2.818544   1.000000
   45       -2.792448   1.000000
   46       -2.741954   1.000000
   47       -2.656807   1.000000
   48       -2.557003   1.000000
   49       -2.411305   1.000000
   50       -2.328719   1.000000
   51       -2.201172   1.000000
   52       -2.102418   1.000000
   53       -2.047015   1.000000
   54       -2.008170   1.000000
   55       -1.963519   1.000000
   56       -1.933990   1.000000
   57       -1.870366   1.000000
   58       -1.832188   1.000000
   59       -1.813682   1.000000
   60       -1.660124   1.000000
   61       -1.546515   1.000000
   62       -1.506367   1.000000
   63       -1.456346   1.000000
   64       -1.416432   1.000000
   65       -1.285661   1.000000
   66       -1.272913   1.000000
   67       -1.159648   1.000000
   68       -1.118810   1.000000
   69       -0.979803   1.000000
   70       -0.954593   1.000000
   71       -0.862955   1.000000
   72       -0.800500   1.000000
   73       -0.764155   1.000000
   74       -0.679271   1.000000
   75       -0.532176   1.000000
   76       -0.422137   1.000000
   77       -0.362795   1.000000
   78       -0.275984   1.000000
   79       -0.146065   1.000000
   80       -0.066121   1.000000
   81        0.136320   1.000000
   82        0.255598   1.000000
   83        0.392067   1.000000
   84        0.601924   1.000000
   85        0.745691   1.000000
   86        0.765046   1.000000
   87        0.908859   1.000000
   88        1.015292   1.000000
   89        1.193017   1.000000
   90        1.253862   1.000000
   91        1.277506   1.000000
   92        1.313433   1.000000
   93        1.334475   1.000000
   94        1.417519   1.000000
   95        1.549060   1.000000
   96        1.626903   1.000000
   97        2.133773   1.008864
   98        2.264461   1.034370
   99        2.444504   0.819248
  100        2.521757   0.523420
  101        2.611157   0.177374
  102        2.678891   0.021495
  103        2.737832  -0.029766
  104        2.802755  -0.032569
  105        3.110808  -0.000147
  106        3.229944  -0.000004
  107        3.282753  -0.000001
  108        3.396734  -0.000000
  109        3.419993  -0.000000
  110        3.459938  -0.000000
  111        3.485392  -0.000000
  112        3.534072  -0.000000
  113        3.611549  -0.000000
  114        3.634977  -0.000000
  115        3.690766  -0.000000
  116        3.720131  -0.000000
  117        3.746168  -0.000000
  118        3.760492  -0.000000
  119        3.817246  -0.000000
  120        3.828289  -0.000000
  121        3.877592  -0.000000
  122        3.968990  -0.000000
  123        3.985387  -0.000000
  124        4.014013  -0.000000
  125        4.062704  -0.000000
  126        4.081782  -0.000000
  127        4.138690  -0.000000
  128        4.238885  -0.000000
  129        4.318127  -0.000000
  130        4.488672  -0.000000
  131        4.550643  -0.000000
  132        4.705116  -0.000000

  0.1111111E+00  0.1111111E+00  0.1262379E-14  0.2469136E-01
    1      -11.491466   1.000000
    2      -10.930563   1.000000
    3      -10.159947   1.000000
    4       -9.168849   1.000000
    5       -8.864002   1.000000
    6       -8.839885   1.000000
    7       -8.745171   1.000000
    8       -8.694675   1.000000
    9       -8.614618   1.000000
   10       -8.426736   1.000000
   11       -8.385137   1.000000
   12       -8.130328   1.000000
   13       -7.937548   1.000000
   14       -7.587953   1.000000
   15       -7.533454   1.000000
   16       -7.454866   1.000000
   17       -7.070783   1.000000
   18       -7.053155   1.000000
   19       -6.934672   1.000000
   20       -6.871650   1.000000
   21       -6.441084   1.000000
   22       -6.327483   1.000000
   23       -6.266954   1.000000
   24       -6.119560   1.000000
   25       -6.002103   1.000000
   26       -5.967831   1.000000
   27       -5.781538   1.000000
   28       -5.642325   1.000000
   29       -5.562941   1.000000
   30       -5.279543   1.000000
   31       -5.167038   1.000000
   32       -4.848481   1.000000
   33       -4.374735   1.000000
   34       -4.302807   1.000000
   35       -4.259419   1.000000
   36       -4.060669   1.000000
   37       -3.879547   1.000000
   38       -3.717357   1.000000
   39       -3.494739   1.000000
   40       -3.429112   1.000000
   41       -3.297472   1.000000
   42       -3.254664   1.000000
   43       -3.044287   1.000000
   44       -2.983685   1.000000
   45       -2.817018   1.000000
   46       -2.744457   1.000000
   47       -2.608954   1.000000
   48       -2.576500   1.000000
   49       -2.457042   1.000000
   50       -2.369317   1.000000
   51       -2.236275   1.000000
   52       -2.220774   1.000000
   53       -2.023850   1.000000
   54       -2.009350   1.000000
   55       -1.969655   1.000000
   56       -1.954950   1.000000
   57       -1.932246   1.000000
   58       -1.877600   1.000000
   59       -1.772185   1.000000
   60       -1.731154   1.000000
   61       -1.587352   1.000000
   62       -1.548542   1.000000
   63       -1.537215   1.000000
   64       -1.475055   1.000000
   65       -1.378552   1.000000
   66       -1.371683   1.000000
   67       -1.267122   1.000000
   68       -1.241993   1.000000
   69       -1.129792   1.000000
   70       -1.053398   1.000000
   71       -0.913315   1.000000
   72       -0.855161   1.000000
   73       -0.816594   1.000000
   74       -0.791213   1.000000
   75       -0.620787   1.000000
   76       -0.489280   1.000000
   77       -0.357057   1.000000
   78       -0.310810   1.000000
   79       -0.139028   1.000000
   80       -0.102145   1.000000
   81        0.010816   1.000000
   82        0.203127   1.000000
   83        0.305076   1.000000
   84        0.343435   1.000000
   85        0.528209   1.000000
   86        0.732014   1.000000
   87        0.779154   1.000000
   88        1.026317   1.000000
   89        1.139917   1.000000
   90        1.163300   1.000000
   91        1.183959   1.000000
   92        1.230388   1.000000
   93        1.311109   1.000000
   94        1.393801   1.000000
   95        1.456330   1.000000
   96        1.833533   1.000005
   97        2.113281   1.006333
   98        2.291991   1.035075