   24   24   60    1
  0.8144829E+01  0.6023873E-09  0.6023873E-09  0.6222041E-09  0.5000000E-15
   1.0000000000000000E-004
  CAR 
 Name                                    
     94    125     60

  0.3742002E-15  0.3742002E-15  0.3742002E-15  0.1371742E-02
    1       -5.443644   1.000000
    2       -3.023835   1.000000
    3       -2.392045   1.000000
    4       -2.242335   1.000000
    5       -2.074382   1.000000
    6       -1.563259   1.000000
    7       -1.485643   1.000000
    8       -1.471721   1.000000
    9       -0.914955   1.000000
   10       -0.884513   1.000000
   11       -0.823202   1.000000
   12        0.382755   1.000000
   13        0.888071   1.000000
   14        1.005289   1.000000
   15        1.090219   1.000000
   16        2.519266   1.000000
   17        2.565155   1.000000
   18        2.693224   1.000000
   19        3.091445   1.000000
   20        3.462163   1.000000
   21        3.575449   1.000000
   22        3.900270   1.000000
   23        4.271788   1.000000
   24        4.364634   1.000000
   25        4.728289   1.000000
   26        4.869228   1.000000
   27        4.979688   1.000000
   28        5.006490   1.000000
   29        5.038769   1.000000
   30        5.040713   1.000000
   31        5.047349   1.000000
   32        5.101104   1.000000
   33        5.448488   1.000000
   34        5.506851   1.000000
   35        5.538950   1.000000
   36        5.753791   1.000000
   37        6.644763   1.000000
   38        6.711321   1.000000
   39        6.860132   1.000000
   40        7.709415   1.000000
   41        7.742272   1.000000
   42        7.901345   1.000000
   43        7.995877   1.000000
   44        8.822334   1.000000
   45        8.869547   1.000000
   46        9.020300   1.000000
   47        9.611085   1.000000
   48        9.672920   1.000001
   49       10.810661  -0.000000
   50       10.839513  -0.000000
   51       10.919479  -0.000000
   52       11.108642  -0.000000
   53       11.145095  -0.000000
   54       11.232406  -0.000000
   55       11.453459  -0.000000
   56       11.489728  -0.000000
   57       11.685582  -0.000000
   58       11.942772  -0.000000
   59       12.084050  -0.000000
   60       12.171330  -0.000000

  0.1111111E+00  0.3747219E-15  0.3742002E-15  0.5486968E-02
    1       -5.381200   1.000000
    2       -3.011419   1.000000
    3       -2.394598   1.000000
    4       -2.220427   1.000000
    5       -2.100000   1.000000
    6       -2.029459   1.000000
    7       -1.649875   1.000000
    8       -1.630678   1.000000
    9       -0.664616   1.000000
   10       -0.660243   1.000000
   11       -0.323418   1.000000
   12        0.471069   1.000000
   13        0.900695   1.000000
   14        0.921491   1.000000
   15        1.130732   1.000000
   16        2.575398   1.000000
   17        2.630958   1.000000
   18        2.752512   1.000000
   19        3.108171   1.000000
   20        3.508863   1.000000
   21        3.563516   1.000000
   22        3.950919   1.000000
   23        4.243070   1.000000
   24        4.277492   1.000000
   25        4.315214   1.000000
   26        4.383129   1.000000
   27        4.655811   1.000000
   28        4.853048   1.000000
   29        5.038597   1.000000
   30        5.098777   1.000000
   31        5.366740   1.000000
   32        5.410962   1.000000
   33        5.494445   1.000000
   34        5.599872   1.000000
   35        5.810899   1.000000
   36        5.984289   1.000000
   37        6.187130   1.000000
   38        6.306739   1.000000
   39        6.477616   1.000000
   40        7.758501   1.000000
   41        8.053452   1.000000
   42        8.204348   1.000000
   43        8.312768   1.000000
   44        8.589946   1.000000
   45        8.690947   1.000000
   46        8.996274   1.000000
   47        9.599294   1.000000
   48        9.858419   1.014015
   49       10.762603  -0.000000
   50       10.806741  -0.000000
   51       10.841697  -0.000000
   52       11.047898  -0.000000
   53       11.073567  -0.000000
   54       11.268926  -0.000000
   55       11.427261  -0.000000
   56       11.437487  -0.000000
   57       11.636400  -0.000000
   58       12.047390  -0.000000
   59       12.050519  -0.000000
   60       12.095860  -0.000000

  0.2222222E+00  0.3915532E-15  0.3742002E-15  0.5486968E-02
    1       -5.195785   1.000000
    2       -2.973126   1.000000
    3       -2.722928   1.000000
    4       -2.438408   1.000000
    5       -2.162950   1.000000
    6       -2.123565   1.000000
    7       -1.854588   1.000000
    8       -1.842065   1.000000
    9       -0.228834   1.000000
   10       -0.217916   1.000000
   11        0.445936   1.000000
   12        0.729763   1.000000
   13        0.734377   1.000000
   14        0.749881   1.000000
   15        1.465260   1.000000
   16        2.718490   1.000000
   17        2.773190   1.000000
   18        2.910571   1.000000
   19        3.049744   1.000000
   20        3.518801   1.000000
   21        3.524126   1.000000
   22        3.576556   1.000000
   23        3.643401   1.000000
   24        4.091988   1.000000
   25        4.181564   1.000000
   26        4.418138   1.000000
   27        4.440344   1.000000
   28        4.820087   1.000000
   29        5.067469   1.000000
   30        5.185867   1.000000
   31        5.310691   1.000000
   32        5.326248   1.000000
   33        5.372332   1.000000
   34        5.430571   1.000000
   35        5.548550   1.000000
   36        5.749817   1.000000
   37        6.087949   1.000000
   38        6.533333   1.000000
   39        6.645274   1.000000
   40        7.359651   1.000000
   41        8.062790   1.000000
   42        8.075980   1.000000
   43        8.272132   1.000000
   44        8.950101   1.000000
   45        9.036459   1.000000
   46        9.334121   1.000000
   47        9.531997   1.000000
   48       10.386577  -0.000005
   49       10.425073  -0.000000
   50       10.475762  -0.000000
   51       10.744780  -0.000000
   52       10.886751  -0.000000
   53       10.928825  -0.000000
   54       11.291016  -0.000000
   55       11.358097  -0.000000
   56       11.382501  -0.000000
   57       11.463181  -0.000000
   58       11.658952  -0.000000
   59       11.720431  -0.000000
   60       11.778104  -0.000000

  0.3333333E+00  0.4235786E-15  0.3742002E-15  0.5486968E-02
    1       -4.892994   1.000000
    2       -3.381115   1.000000
    3       -2.906674   1.000000
    4       -2.552363   1.000000
    5       -2.094008   1.000000
    6       -2.091528   1.000000
    7       -2.005220   1.000000
    8       -1.998165   1.000000
    9        0.276797   1.000000
   10        0.291732   1.000000
   11        0.534506   1.000000
   12        0.556957   1.000000
   13        1.109226   1.000000
   14        1.274824   1.000000
   15        2.011677   1.000000
   16        2.673463   1.000000
   17        2.818725   1.000000
   18        2.877411   1.000000
   19        2.878940   1.000000
   20        2.903163   1.000000
   21        3.162636   1.000000
   22        3.487590   1.000000
   23        3.790056   1.000000
   24        3.831916   1.000000
   25        4.181210   1.000000
   26        4.296094   1.000000
   27        4.621684   1.000000
   28        4.713452   1.000000
   29        4.734202   1.000000
   30        4.939026   1.000000
   31        5.010826   1.000000
   32        5.111433   1.000000
   33        5.250701   1.000000
   34        5.508047   1.000000
   35        5.515765   1.000000
   36        5.631427   1.000000
   37        5.859977   1.000000
   38        6.755160   1.000000
   39        7.340858   1.000000
   40        7.358287   1.000000
   41        7.531226   1.000000
   42        7.543170   1.000000
   43        8.611715   1.000000
   44        9.077627   1.000000
   45        9.433046   1.000000
   46        9.750713   1.000172
   47        9.809051   1.002650
   48        9.921750   1.035093
   49       10.259124  -0.004034
   50       10.268814  -0.002776
   51       10.800985  -0.000000
   52       10.858307  -0.000000
   53       10.916824  -0.000000
   54       11.040034  -0.000000
   55       11.047821  -0.000000
   56       11.248540  -0.000000
   57       11.349574  -0.000000
   58       11.505056  -0.000000
   59       11.567368  -0.000000
   60       11.628672  -0.000000

  0.4444444E+00  0.3534447E-15  0.3742002E-15  0.5486968E-02
    1       -4.481610   1.000000
    2       -3.973060   1.000000
    3       -2.810812   1.000000
    4       -2.688412   1.000000
    5       -2.081633   1.000000
    6       -2.079344   1.000000
    7       -2.050297   1.000000
    8       -2.048005   1.000000
    9        0.418496   1.000000
   10        0.427940   1.000000
   11        0.723616   1.000000
   12        0.733677   1.000000
   13        1.639561   1.000000
   14        2.046016   1.000000
   15        2.146922   1.000000
   16        2.279388   1.000000
   17        2.338923   1.000000
   18        2.684344   1.000000
   19        2.803186   1.000000
   20        2.964513   1.000000
   21        2.985921   1.000000
   22        3.492643   1.000000
   23        3.530383   1.000000
   24        3.978379   1.000000
   25        3.979972   1.000000
   26        4.007450   1.000000
   27        4.615871   1.000000
   28        4.677083   1.000000
   29        4.787677   1.000000
   30        4.789498   1.000000
   31        4.899982   1.000000
   32        5.152526   1.000000
   33        5.192485   1.000000
   34        5.193895   1.000000
   35        5.719978   1.000000
   36        5.731163   1.000000
   37        5.941675   1.000000
   38        6.272357   1.000000
   39        7.194967   1.000000
   40        7.198639   1.000000
   41        7.960944   1.000000
   42        7.982177   1.000000
   43        8.941018   1.000000
   44        9.166897   1.000000
   45        9.193124   1.000000
   46        9.315464   1.000000
   47        9.439693   1.000000
   48        9.733426   1.000066
   49       10.434480  -0.000000
   50       10.557555  -0.000000
   51       10.569231  -0.000000
   52       10.817123  -0.000000
   53       10.960192  -0.000000
   54       11.084891  -0.000000
   55       11.136637  -0.000000
   56       11.202030  -0.000000
   57       11.240940  -0.000000
   58       11.555795  -0.000000
   59       11.574814  -0.000000
   60       11.632239  -0.000000

  0.1111111E+00  0.1111111E+00  0.3742002E-15  0.2743484E-02
    1       -5.257185   1.000000
    2       -2.983762   1.000000
    3       -2.403342   1.000000
    4       -2.352636   1.000000
    5       -2.315126   1.000000
    6       -2.212021   1.000000
    7       -2.110672   1.000000
    8       -1.274400   1.000000
    9       -0.809039   1.000000
   10        0.002065   1.000000
   11        0.152671   1.000000
   12        0.594519   1.000000
   13        0.646966   1.000000
   14        1.168125   1.000000
   15        1.183449   1.000000
   16        2.633503   1.000000
   17        2.724445   1.000000
   18        2.901237   1.000000
   19        3.096179   1.000000
   20        3.467160   1.000000
   21        3.467470   1.000000
   22        3.691675   1.000000
   23        4.050890   1.000000
   24        4.276053   1.000000
   25        4.375075   1.000000
   26        4.395208   1.000000
   27        4.427194   1.000000
   28        4.449027   1.000000
   29        4.737357   1.000000
   30        5.283404   1.000000
   31        5.362303   1.000000
   32        5.447194   1.000000
   33        5.548407   1.000000
   34        5.733226   1.000000
   35        5.783588   1.000000
   36        5.794491   1.000000
   37        5.892572   1.000000
   38        6.191114   1.000000
   39        6.625816   1.000000
   40        7.482968   1.000000
   41        8.015310   1.000000
   42        8.207480   1.000000
   43        8.604199   1.000000
   44        8.634107   1.000000
   45        8.950871   1.000000
   46        9.077604   1.000000
   47        9.536690   1.000000
   48       10.234028  -0.009506
   49       10.568813  -0.000000
   50       10.626082  -0.000000
   51       10.879463  -0.000000
   52       10.884999  -0.000000
   53       10.908344  -0.000000
   54       11.165998  -0.000000
   55       11.378703  -0.000000
   56       11.478596  -0.000000
   57       11.546058  -0.000000
   58       11.797697  -0.000000
   59       11.897416  -0.000000
   60       11.901784  -0.000000

  0.2222222E+00  0.1111111E+00  0.3742002E-15  0.5486968E-02
    1       -5.012932   1.000000
    2       -3.017090   1.000000
    3       -2.930145   1.000000
    4       -2.555818   1.000000
    5       -2.460402   1.000000
    6       -2.294794   1.000000
    7       -1.965347   1.000000
    8       -1.277127   1.000000
    9       -0.452346   1.000000
   10        0.246480   1.000000
   11        0.517376   1.000000
   12        0.871354   1.000000
   13        0.998558   1.000000
   14        1.120355   1.000000
   15        1.648521   1.000000
   16        2.649257   1.000000
   17        2.789534   1.000000
   18        2.826890   1.000000
   19        3.006837   1.000000
   20        3.122414   1.000000
   21        3.376785   1.000000
   22        3.668071   1.000000
   23        3.844452   1.000000
   24        3.936663   1.000000
   25        4.166899   1.000000
   26        4.404561   1.000000
   27        4.533547   1.000000
   28        4.617799   1.000000
   29        4.661662   1.000000
   30        4.821098   1.000000
   31        5.065665   1.000000
   32        5.176758   1.000000
   33        5.337922   1.000000
   34        5.415271   1.000000
   35        5.775357   1.000000
   36        5.863094   1.000000
   37        5.910829   1.000000
   38        6.505035   1.000000
   39        7.108368   1.000000
   40        7.353207   1.000000
   41        7.378473   1.000000
   42        8.232440   1.000000
   43        8.482760   1.000000
   44        8.810663   1.000000
   45        9.433105   1.000000
   46        9.484965   1.000000
   47        9.951897   1.007046
   48       10.154628  -0.034538
   49       10.204581  -0.020742
   50       10.541673  -0.000000
   51       10.553452  -0.000000
   52       10.842065  -0.000000
   53       10.965232  -0.000000
   54       10.969669  -0.000000
   55       11.205946  -0.000000
   56       11.273134  -0.000000
   57       11.323879  -0.000000
   58       11.454839  -0.000000
   59       11.588893  -0.000000
   60       11.782368  -0.000000

  0.3333333E+00  0.1111111E+00  0.3742002E-15  0.5486968E-02
    1       -4.655529   1.000000
    2       -3.644234   1.000000
    3       -2.848683   1.000000
    4       -2.689032   1.000000
    5       -2.602794   1.000000
    6       -2.288290   1.000000
    7       -1.824929   1.000000
    8       -1.370477   1.000000
    9       -0.028808   1.000000
   10        0.096845   1.000000
   11        0.982261   1.000000
   12        1.040221   1.000000
   13        1.431746   1.000000
   14        1.677484   1.000000
   15        1.934999   1.000000
   16        2.273149   1.000000
   17        2.566504   1.000000
   18        2.891540   1.000000
   19        2.972383   1.000000
   20        3.092805   1.000000
   21        3.110261   1.000000
   22        3.401430   1.000000
   23        3.517003   1.000000
   24        3.740208   1.000000
   25        4.196904   1.000000
   26        4.203852   1.000000
   27        4.607288   1.000000
   28        4.702728   1.000000
   29        4.718350   1.000000
   30        4.776196   1.000000
   31        4.832545   1.000000
   32        4.847997   1.000000
   33        5.241802   1.000000
   34        5.341065   1.000000
   35        5.565047   1.000000
   36        5.957861   1.000000
   37        6.004597   1.000000
   38        6.469292   1.000000
   39        6.859641   1.000000
   40        7.304292   1.000000
   41        7.832711   1.000000
   42        8.090816   1.000000
   43        8.856501   1.000000
   44        8.967997   1.000000
   45        9.291540   1.000000
   46        9.546370   1.000000
   47        9.644108   1.000000
   48       10.037829   0.514234
   49       10.138509  -0.024056
   50       10.353075  -0.000043
   51       10.601018  -0.000000
   52       10.881177  -0.000000
   53       11.005372  -0.000000
   54       11.016720  -0.000000
   55       11.114630  -0.000000
   56       11.150760  -0.000000
   57       11.212282  -0.000000
   58       11.357144  -0.000000
   59       11.566139  -0.000000
   60       11.585049  -0.000000

  0.4444444E+00  0.1111111E+00  0.3742002E-15  0.5486968E-02
    1       -4.195537   1.000000
    2       -4.194937   1.000000
    3       -2.744593   1.000000
    4       -2.739709   1.000000
    5       -2.732425   1.000000
    6       -2.273101   1.000000
    7       -1.761215   1.000000
    8       -1.408151   1.000000
    9       -0.132746   1.000000
   10        0.439871   1.000000
   11        1.000750   1.000000
   12        1.232817   1.000000
   13        1.538915   1.000000
   14        1.977687   1.000000
   15        1.993598   1.000000
   16        2.420978   1.000000
   17        2.424380   1.000000
   18        2.826064   1.000000
   19        2.845247   1.000000
   20        2.996710   1.000000
   21        3.036704   1.000000
   22        3.076409   1.000000
   23        3.543302   1.000000
   24        3.759837   1.000000
   25        3.779919   1.000000
   26        4.365639   1.000000
   27        4.542964   1.000000
   28        4.606369   1.000000
   29        4.748599   1.000000
   30        4.902119   1.000000
   31        4.904756   1.000000
   32        5.017817   1.000000
   33        5.044949   1.000000
   34        5.118125   1.000000
   35        5.832771   1.000000
   36        5.842157   1.000000
   37        6.157518   1.000000
   38        6.168850   1.000000
   39        6.638858   1.000000
   40        7.594633   1.000000
   41        7.666572   1.000000
   42        8.635920   1.000000
   43        8.976169   1.000000
   44        9.124175   1.000000
   45        9.128688   1.000000
   46        9.136815   1.000000
   47        9.539604   1.000000
   48        9.568871   1.000000
   49       10.322676  -0.000232
   50       10.360419  -0.000028
   51       10.776512  -0.000000
   52       10.795399  -0.000000
   53       10.954779  -0.000000
   54       10.968095  -0.000000
   55       11.059448  -0.000000
   56       11.126428  -0.000000
   57       11.227336  -0.000000
   58       11.424975  -0.000000
   59       11.673098  -0.000000
   60       11.708684  -0.000000

 -0.4444444E+00  0.1111111E+00  0.3742002E-15  0.5486968E-02
    1       -4.656027   1.000000
    2       -3.643562   1.000000
    3       -2.859173   1.000000
    4       -2.686026   1.000000
    5       -2.609797   1.000000
    6       -2.274850   1.000000
    7       -1.815282   1.000000
    8       -1.378178   1.000000
    9       -0.014764   1.000000
   10        0.091990   1.000000
   11        1.010787   1.000000
   12        1.026765   1.000000
   13        1.421887   1.000000
   14        1.649933   1.000000
   15        1.974581   1.000000
   16        2.217297   1.000000
   17        2.535183   1.000000
   18        2.910847   1.000000
   19        3.048932   1.000000
   20        3.076288   1.000000
   21        3.171302   1.000000
   22        3.340548   1.000000
   23        3.505609   1.000000
   24        3.762135   1.000000
   25        4.081153   1.000000
   26        4.218439   1.000000
   27        4.629680   1.000000
   28        4.643795   1.000000
   29        4.644714   1.000000
   30        4.699166   1.000000
   31        5.016840   1.000000
   32        5.041866   1.000000
   33        5.061225   1.000000
   34        5.408888   1.000000
   35        5.586852   1.000000
   36        5.952033   1.000000
   37        6.004536   1.000000
   38        6.507371   1.000000
   39        6.856104   1.000000
   40        7.293910   1.000000
   41        7.812516   1.000000
   42        8.014733   1.000000
   43        8.875969   1.000000
   44        8.962587   1.000000
   45        9.303978   1.000000
   46        9.513813   1.000000
   47        9.699569   1.000008
   48       10.051436   0.399876
   49       10.158448  -0.035255
   50       10.314339  -0.000356
   51       10.639011  -0.000000
   52       10.856764  -0.000000
   53       10.951177  -0.000000
   54       11.063461  -0.000000
   55       11.074544  -0.000000
   56       11.157567  -0.000000
   57       11.325020  -0.000000
   58       11.357170  -0.000000
   59       11.388189  -0.000000
   60       11.583733  -0.000000

 -0.3333333E+00  0.1111111E+00  0.3742002E-15  0.5486968E-02
    1       -5.013303   1.000000
    2       -3.016262   1.000000
    3       -2.941356   1.000000
    4       -2.549956   1.000000
    5       -2.479320   1.000000
    6       -2.289739   1.000000
    7       -1.927961   1.000000
    8       -1.296243   1.000000
    9       -0.449125   1.000000
   10        0.263418   1.000000
   11        0.558153   1.000000
   12        0.841123   1.000000
   13        0.995666   1.000000
   14        1.102778   1.000000
   15        1.603440   1.000000
   16        2.683357   1.000000
   17        2.839329   1.000000
   18        2.917418   1.000000
   19        2.990002   1.000000
   20        3.010454   1.000000
   21        3.434119   1.000000
   22        3.663375   1.000000
   23        3.784381   1.000000
   24        3.837387   1.000000
   25        4.200632   1.000000
   26        4.351058   1.000000
   27        4.489058   1.000000
   28        4.527641   1.000000
   29        4.794686   1.000000
   30        5.008459   1.000000
   31        5.103653   1.000000
   32        5.137931   1.000000
   33        5.210343   1.000000
   34        5.437237   1.000000
   35        5.833226   1.000000
   36        5.835906   1.000000
   37        5.915874   1.000000
   38        6.683879   1.000000
   39        7.011254   1.000000
   40        7.273798   1.000000
   41        7.383858   1.000000
   42        8.199127   1.000000
   43        8.476243   1.000000
   44        8.807554   1.000000
   45        9.454018   1.000000
   46        9.503665   1.000000
   47        9.929057   1.032851
   48       10.135635  -0.020622
   49       10.228629  -0.011181
   50       10.510346  -0.000000
   51       10.581690  -0.000000
   52       10.844427  -0.000000
   53       10.944821  -0.000000
   54       10.989614  -0.000000
   55       11.144518  -0.000000
   56       11.317385  -0.000000
   57       11.374286  -0.000000
   58       11.452974  -0.000000
   59       11.556197  -0.000000
   60       11.753396  -0.000000

 -0.2222222E+00  0.1111111E+00  0.3742002E-15  0.5486968E-02
    1       -5.257413   1.000000
    2       -2.992077   1.000000
    3       -2.392259   1.000000
    4       -2.333253   1.000000
    5       -2.324900   1.000000
    6       -2.299370   1.000000
    7       -2.012016   1.000000
    8       -1.309526   1.000000
    9       -0.791258   1.000000
   10        0.075988   1.000000
   11        0.090310   1.000000
   12        0.600927   1.000000
   13        0.642989   1.000000
   14        1.145462   1.000000
   15        1.169635   1.000000
   16        2.741269   1.000000
   17        2.742554   1.000000
   18        2.790362   1.000000
   19        3.179257   1.000000
   20        3.359879   1.000000
   21        3.504287   1.000000
   22        3.654438   1.000000
   23        4.030245   1.000000
   24        4.319152   1.000000
   25        4.351240   1.000000
   26        4.355298   1.000000
   27        4.381370   1.000000
   28        4.447810   1.000000
   29        4.842185   1.000000
   30        5.288414   1.000000
   31        5.349817   1.000000
   32        5.401709   1.000000
   33        5.609627   1.000000
   34        5.633620   1.000000
   35        5.734334   1.000000
   36        5.854007   1.000000
   37        6.053377   1.000000
   38        6.231925   1.000000
   39        6.531589   1.000000
   40        7.507912   1.000000
   41        8.024537   1.000000
   42        8.159406   1.000000
   43        8.622863   1.000000
   44        8.637979   1.000000
   45        8.897850   1.000000
   46        9.058861   1.000000
   47        9.576955   1.000000
   48       10.225761  -0.012147
   49       10.563438  -0.000000
   50       10.678392  -0.000000
   51       10.782833  -0.000000
   52       10.889513  -0.000000
   53       11.001865  -0.000000
   54       11.007711  -0.000000
   55       11.388966  -0.000000
   56       11.552123  -0.000000
   57       11.571863  -0.000000
   58       11.825342  -0.000000
   59       11.880838  -0.000000
   60       11.900099  -0.000000

 -0.1111111E+00  0.1111111E+00  0.3742002E-15  0.2743484E-02
    1       -5.381276   1.000000
    2       -3.014471   1.000000
    3       -2.379692   1.000000
    4       -2.281748   1.000000
    5       -2.044090   1.000000
    6       -2.013987   1.000000
    7       -1.661278   1.000000
    8       -1.643960   1.000000
    9       -0.659075   1.000000
   10       -0.651964   1.000000
   11       -0.326579   1.000000
   12        0.469653   1.000000
   13        0.856204   1.000000
   14        0.957167   1.000000
   15        1.130310   1.000000
   16        2.622575   1.000000
   17        2.625697   1.000000
   18        2.713416   1.000000
   19        3.150105   1.000000
   20        3.403575   1.000000
   21        3.611377   1.000000
   22        3.941193   1.000000
   23        4.283145   1.000000
   24        4.291478   1.000000
   25        4.291986   1.000000
   26        4.406721   1.000000
   27        4.637461   1.000000
   28        4.770545   1.000000
   29        5.069124   1.000000
   30        5.090711   1.000000
   31        5.374299   1.000000
   32        5.430803   1.000000
   33        5.475721   1.000000
   34        5.785153   1.000000
   35        5.796235   1.000000
   36        5.843370   1.000000
   37        6.167201   1.000000
   38        6.327038   1.000000
   39        6.493064   1.000000
   40        7.832689   1.000000
   41        7.973210   1.000000
   42        8.204587   1.000000
   43        8.294642   1.000000
   44        8.623885   1.000000
   45        8.798927   1.000000
   46        8.837637   1.000000
   47        9.654402   1.000000
   48        9.832463   1.006324
   49       10.731293  -0.000000
   50       10.845661  -0.000000
   51       10.888181  -0.000000
   52       10.993570  -0.000000
   53       11.096696  -0.000000
   54       11.148760  -0.000000
   55       11.428076  -0.000000
   56       11.530494  -0.000000
   57       11.641639  -0.000000
   58       12.048312  -0.000000
   59       12.068974  -0.000000
   60       12.070538  -0.000000

  0.2222222E+00  0.2222222E+00  0.3742002E-15  0.2743484E-02
    1       -4.713885   1.000000
    2       -3.220397   1.000000
    3       -3.206842   1.000000
    4       -2.860896   1.000000
    5       -2.492540   1.000000
    6       -2.450471   1.000000
    7       -1.717261   1.000000
    8       -0.679947   1.000000
    9       -0.578630   1.000000
   10       -0.212826   1.000000
   11        1.189777   1.000000
   12        1.383397   1.000000
   13        1.402955   1.000000
   14        1.551463   1.000000
   15        1.813991   1.000000
   16        1.840904   1.000000
   17        2.866528   1.000000
   18        2.922141   1.000000
   19        2.971725   1.000000
   20        3.025930   1.000000
   21        3.327366   1.000000
   22        3.366601   1.000000
   23        3.791802   1.000000
   24        3.797505   1.000000
   25        4.022672   1.000000
   26        4.301571   1.000000
   27        4.302995   1.000000
   28        4.558688   1.000000
   29        4.661113   1.000000
   30        4.829588   1.000000
   31        4.859884   1.000000
   32        4.878108   1.000000
   33        5.361760   1.000000
   34        5.374815   1.000000
   35        5.399630   1.000000
   36        6.067137   1.000000
   37        6.262105   1.000000
   38        6.539419   1.000000
   39        6.735927   1.000000
   40        6.914480   1.000000
   41        8.093756   1.000000
   42        8.424245   1.000000
   43        8.500393   1.000000
   44        8.819627   1.000000
   45        9.247391   1.000000
   46        9.841095   1.008412
   47        9.976162   0.934480
   48        9.986581   0.885766
   49       10.021026   0.653512
   50       10.369473  -0.000016
   51       10.533457  -0.000000
   52       10.660142  -0.000000
   53       10.777320  -0.000000
   54       11.034840  -0.000000
   55       11.057821  -0.000000
   56       11.201192  -0.000000
   57       11.398719  -0.000000
   58       11.416994  -0.000000
   59       11.517199  -0.000000
   60       11.520302  -0.000000

  0.3333333E+00  0.2222222E+00  0.3742002E-15  0.5486968E-02
    1       -4.306645   1.000000
    2       -3.803326   1.000000
    3       -3.310916   1.000000
    4       -2.763421   1.000000
    5       -2.654750   1.000000
    6       -2.449561   1.000000
    7       -1.480866   1.000000
    8       -0.700974   1.000000
    9       -0.554850   1.000000
   10       -0.024224   1.000000
   11        1.130034   1.000000
   12        1.631215   1.000000
   13        1.637591   1.000000
   14        1.867844   1.000000
   15        2.045351   1.000000
   16        2.379030   1.000000
   17        2.443252   1.000000
   18        2.683060   1.000000
   19        2.873474   1.000000
   20        2.989045   1.000000
   21        3.076605   1.000000
   22        3.191766   1.000000
   23        3.495795   1.000000
   24        3.621909   1.000000
   25        3.946934   1.000000
   26        4.209155   1.000000
   27        4.426515   1.000000
   28        4.584885   1.000000
   29        4.613341   1.000000
   30        4.742919   1.000000
   31        4.885130   1.000000
   32        5.024267   1.000000
   33        5.179112   1.000000
   34        5.281420   1.000000
   35        5.570988   1.000000