   75   75    1    1
  0.2082215E+02  0.1053953E-08  0.6141200E-09  0.2412750E-08  0.5000000E-15
   1.0000000000000000E-004
  CAR 
 Name                                    
    285     23    184

  0.3742002E-15  0.3742002E-15  0.1262379E-14  0.2222222E-01
    1      -13.880346   1.000000
    2      -12.748490   1.000000
    3      -12.685676   1.000000
    4      -12.659183   1.000000
    5      -11.714461   1.000000
    6      -11.592739   1.000000
    7      -11.543110   1.000000
    8      -11.496700   1.000000
    9      -11.314962   1.000000
   10      -11.189106   1.000000
   11      -11.137879   1.000000
   12      -10.999470   1.000000
   13      -10.947854   1.000000
   14      -10.633916   1.000000
   15      -10.378352   1.000000
   16      -10.219908   1.000000
   17      -10.079181   1.000000
   18      -10.033874   1.000000
   19       -9.817507   1.000000
   20       -9.697537   1.000000
   21       -9.565609   1.000000
   22       -9.419120   1.000000
   23       -9.395686   1.000000
   24       -9.314842   1.000000
   25       -8.822276   1.000000
   26       -8.787815   1.000000
   27       -8.713983   1.000000
   28       -8.461280   1.000000
   29       -8.387232   1.000000
   30       -8.218659   1.000000
   31       -8.069431   1.000000
   32       -7.791344   1.000000
   33       -7.643808   1.000000
   34       -7.331495   1.000000
   35       -7.264061   1.000000
   36       -7.153087   1.000000
   37       -7.093576   1.000000
   38       -7.006473   1.000000
   39       -6.849499   1.000000
   40       -6.801945   1.000000
   41       -6.671533   1.000000
   42       -6.650661   1.000000
   43       -6.571436   1.000000
   44       -6.512029   1.000000
   45       -6.493423   1.000000
   46       -6.398400   1.000000
   47       -6.330357   1.000000
   48       -6.078359   1.000000
   49       -6.011117   1.000000
   50       -5.993708   1.000000
   51       -5.867185   1.000000
   52       -5.785746   1.000000
   53       -5.702972   1.000000
   54       -5.580227   1.000000
   55       -5.544289   1.000000
   56       -5.496958   1.000000
   57       -5.487633   1.000000
   58       -5.382199   1.000000
   59       -5.320562   1.000000
   60       -5.277167   1.000000
   61       -5.208840   1.000000
   62       -5.101662   1.000000
   63       -4.888126   1.000000
   64       -4.808315   1.000000
   65       -4.689283   1.000000
   66       -4.614357   1.000000
   67       -4.590985   1.000000
   68       -4.580264   1.000000
   69       -4.517665   1.000000
   70       -4.452109   1.000000
   71       -4.329270   1.000000
   72       -4.298115   1.000000
   73       -4.274397   1.000000
   74       -4.224766   1.000000
   75       -4.154515   1.000000
   76       -4.035754   1.000000
   77       -4.028243   1.000000
   78       -3.990667   1.000000
   79       -3.947841   1.000000
   80       -3.887017   1.000000
   81       -3.836584   1.000000
   82       -3.825702   1.000000
   83       -3.817009   1.000000
   84       -3.772703   1.000000
   85       -3.726941   1.000000
   86       -3.677852   1.000000
   87       -3.613287   1.000000
   88       -3.539724   1.000000
   89       -3.478971   1.000000
   90       -3.476575   1.000000
   91       -3.444213   1.000000
   92       -3.349185   1.000000
   93       -3.247511   1.000000
   94       -3.234732   1.000000
   95       -3.094565   1.000000
   96       -2.950064   1.000000
   97       -2.928658   1.000000
   98       -2.889292   1.000000
   99       -2.738014   1.000000
  100       -2.721169   1.000000
  101       -2.657858   1.000000
  102       -2.630694   1.000000
  103       -2.545393   1.000000
  104       -2.395494   1.000000
  105       -2.307915   1.000000
  106       -2.305172   1.000000
  107       -2.272724   1.000000
  108       -2.174989   1.000000
  109       -2.052819   1.000000
  110       -2.035767   1.000000
  111       -2.019200   1.000000
  112       -1.929678   1.000000
  113       -1.893119   1.000000
  114       -1.821914   1.000000
  115       -1.719288   1.000000
  116       -1.672814   1.000000
  117       -1.636277   1.000000
  118       -1.563477   1.000000
  119       -1.526957   1.000000
  120       -1.495164   1.000000
  121       -1.370532   1.000000
  122       -1.115978   1.000000
  123       -0.892882   1.000000
  124       -0.874413   1.000000
  125       -0.723733   1.000000
  126       -0.670482   1.000000
  127       -0.631170   1.000000
  128       -0.356672   1.000000
  129       -0.338138   1.000000
  130       -0.295338   1.000000
  131       -0.150775   1.000000
  132       -0.108005   1.000000
  133       -0.062332   1.000000
  134       -0.010135   1.000000
  135        0.102117   1.000000
  136        0.227728   1.000002
  137        0.308014   1.000223
  138        0.318195   1.000375
  139        0.406727   1.012500
  140        0.421221   1.018223
  141        0.508181   0.999110
  142        0.530628   0.925932
  143        0.623891   0.244497
  144        0.688370  -0.020980
  145        0.698912  -0.030914
  146        0.720785  -0.034890
  147        0.766695  -0.016537
  148        0.832050  -0.001783
  149        0.855744  -0.000612
  150        0.924152  -0.000014
  151        1.054892  -0.000000
  152        1.139443  -0.000000
  153        1.178625  -0.000000
  154        1.244715  -0.000000
  155        1.280786  -0.000000
  156        1.343396  -0.000000
  157        1.395057  -0.000000
  158        1.429788  -0.000000
  159        1.439814  -0.000000
  160        1.473237  -0.000000
  161        1.520968  -0.000000
  162        1.546972  -0.000000
  163        1.619897  -0.000000
  164        1.637494  -0.000000
  165        1.685842  -0.000000
  166        1.770811  -0.000000
  167        1.801406  -0.000000
  168        1.814427  -0.000000
  169        1.841640  -0.000000
  170        1.850647  -0.000000
  171        1.861097  -0.000000
  172        1.894302  -0.000000
  173        1.918319  -0.000000
  174        1.922618  -0.000000
  175        2.001790  -0.000000
  176        2.068769  -0.000000
  177        2.142775  -0.000000
  178        2.394920  -0.000000
  179        2.429179  -0.000000
  180        2.487101  -0.000000
  181        2.608810  -0.000000
  182        2.621233  -0.000000
  183        2.888586  -0.000000
  184        3.985811   0.000000

  0.2000000E+00  0.3742002E-15  0.1262379E-14  0.4444444E-01
    1      -13.831730   1.000000
    2      -13.124105   1.000000
    3      -12.616040   1.000000
    4      -12.235899   1.000000
    5      -11.952553   1.000000
    6      -11.703356   1.000000
    7      -11.547740   1.000000
    8      -11.246747   1.000000
    9      -11.188103   1.000000
   10      -11.125248   1.000000
   11      -11.087143   1.000000
   12      -11.033040   1.000000
   13      -10.868023   1.000000
   14      -10.699410   1.000000
   15      -10.505955   1.000000
   16      -10.485628   1.000000
   17      -10.433496   1.000000
   18       -9.806481   1.000000
   19       -9.747500   1.000000
   20       -9.667441   1.000000
   21       -9.441736   1.000000
   22       -9.417470   1.000000
   23       -9.380286   1.000000
   24       -9.344283   1.000000
   25       -9.023657   1.000000
   26       -8.855880   1.000000
   27       -8.440239   1.000000
   28       -8.314235   1.000000
   29       -8.176636   1.000000
   30       -8.118414   1.000000
   31       -8.072883   1.000000
   32       -7.996784   1.000000
   33       -7.545934   1.000000
   34       -7.438135   1.000000
   35       -7.369990   1.000000
   36       -7.292652   1.000000
   37       -7.139352   1.000000
   38       -7.066395   1.000000
   39       -7.024569   1.000000
   40       -6.777321   1.000000
   41       -6.750392   1.000000
   42       -6.662080   1.000000
   43       -6.614203   1.000000
   44       -6.534621   1.000000
   45       -6.453883   1.000000
   46       -6.356025   1.000000
   47       -6.117399   1.000000
   48       -6.090761   1.000000
   49       -5.987915   1.000000
   50       -5.963455   1.000000
   51       -5.820572   1.000000
   52       -5.739779   1.000000
   53       -5.687413   1.000000
   54       -5.582500   1.000000
   55       -5.522965   1.000000
   56       -5.418161   1.000000
   57       -5.408862   1.000000
   58       -5.380727   1.000000
   59       -5.299156   1.000000
   60       -5.223836   1.000000
   61       -5.185545   1.000000
   62       -5.141500   1.000000
   63       -5.042225   1.000000
   64       -4.854583   1.000000
   65       -4.693123   1.000000
   66       -4.665033   1.000000
   67       -4.641014   1.000000
   68       -4.569035   1.000000
   69       -4.511710   1.000000
   70       -4.466611   1.000000
   71       -4.323924   1.000000
   72       -4.246341   1.000000
   73       -4.219092   1.000000
   74       -4.157646   1.000000
   75       -4.123768   1.000000
   76       -4.078033   1.000000
   77       -4.023003   1.000000
   78       -4.011946   1.000000
   79       -3.993398   1.000000
   80       -3.855878   1.000000
   81       -3.845479   1.000000
   82       -3.832368   1.000000
   83       -3.809888   1.000000
   84       -3.793138   1.000000
   85       -3.721542   1.000000
   86       -3.650605   1.000000
   87       -3.527356   1.000000
   88       -3.508077   1.000000
   89       -3.495111   1.000000
   90       -3.444177   1.000000
   91       -3.403309   1.000000
   92       -3.379000   1.000000
   93       -3.365787   1.000000
   94       -3.316898   1.000000
   95       -3.068885   1.000000
   96       -3.039862   1.000000
   97       -2.988872   1.000000
   98       -2.919031   1.000000
   99       -2.828188   1.000000
  100       -2.719126   1.000000
  101       -2.659123   1.000000
  102       -2.644652   1.000000
  103       -2.588133   1.000000
  104       -2.401186   1.000000
  105       -2.323173   1.000000
  106       -2.193747   1.000000
  107       -2.156547   1.000000
  108       -2.123159   1.000000
  109       -2.098728   1.000000
  110       -2.032281   1.000000
  111       -1.922458   1.000000
  112       -1.886497   1.000000
  113       -1.845623   1.000000
  114       -1.738386   1.000000
  115       -1.675130   1.000000
  116       -1.661570   1.000000
  117       -1.648119   1.000000
  118       -1.597411   1.000000
  119       -1.501221   1.000000
  120       -1.377853   1.000000
  121       -1.282960   1.000000
  122       -1.102211   1.000000
  123       -1.012175   1.000000
  124       -0.887918   1.000000
  125       -0.785223   1.000000
  126       -0.760592   1.000000
  127       -0.701552   1.000000
  128       -0.454855   1.000000
  129       -0.427041   1.000000
  130       -0.344051   1.000000
  131       -0.305659   1.000000
  132       -0.188040   1.000000
  133       -0.163219   1.000000
  134       -0.095590   1.000000
  135        0.065743   1.000000
  136        0.157169   1.000000
  137        0.237321   1.000003
  138        0.352754   1.001850
  139        0.447968   1.030223
  140        0.488502   1.028360
  141        0.581111   0.591273
  142        0.621241   0.263639
  143        0.651413   0.082487
  144        0.713067  -0.035428
  145        0.735645  -0.030353
  146        0.767486  -0.016212
  147        0.782970  -0.010575
  148        0.813469  -0.003757
  149        0.870801  -0.000290
  150        0.918992  -0.000019
  151        1.089539  -0.000000
  152        1.219672  -0.000000
  153        1.260979  -0.000000
  154        1.315958  -0.000000
  155        1.354216  -0.000000
  156        1.375135  -0.000000
  157        1.381655  -0.000000
  158        1.403332  -0.000000
  159        1.475421  -0.000000
  160        1.538039  -0.000000
  161        1.574202  -0.000000
  162        1.600682  -0.000000
  163        1.616046  -0.000000
  164        1.666408  -0.000000
  165        1.696525  -0.000000
  166        1.738697  -0.000000
  167        1.778700  -0.000000
  168        1.817607  -0.000000
  169        1.835673  -0.000000
  170        1.857358  -0.000000
  171        1.913386  -0.000000
  172        1.928623  -0.000000
  173        1.968386  -0.000000
  174        2.037677  -0.000000
  175        2.050596  -0.000000
  176        2.096749  -0.000000
  177        2.188150  -0.000000
  178        2.269373  -0.000000
  179        2.320524  -0.000000
  180        2.631536  -0.000000
  181        2.685030  -0.000000
  182        2.798453  -0.000000
  183        3.117746  -0.000000
  184        3.934335   0.000000

  0.4000000E+00  0.3742002E-15  0.1262379E-14  0.4444444E-01
    1      -13.686987   1.000000
    2      -13.449250   1.000000
    3      -12.481763   1.000000
    4      -12.258350   1.000000
    5      -11.695313   1.000000
    6      -11.671073   1.000000
    7      -11.618582   1.000000
    8      -11.180586   1.000000
    9      -11.172906   1.000000
   10      -11.105666   1.000000
   11      -11.007508   1.000000
   12      -10.973067   1.000000
   13      -10.851643   1.000000
   14      -10.782209   1.000000
   15      -10.734144   1.000000
   16      -10.586718   1.000000
   17      -10.565388   1.000000
   18      -10.014309   1.000000
   19       -9.762910   1.000000
   20       -9.668170   1.000000
   21       -9.417181   1.000000
   22       -9.408596   1.000000
   23       -9.340746   1.000000
   24       -9.224751   1.000000
   25       -9.030055   1.000000
   26       -8.742541   1.000000
   27       -8.312691   1.000000
   28       -8.199967   1.000000
   29       -7.975393   1.000000
   30       -7.923144   1.000000
   31       -7.887951   1.000000
   32       -7.802236   1.000000
   33       -7.780908   1.000000
   34       -7.655440   1.000000
   35       -7.572866   1.000000
   36       -7.501340   1.000000
   37       -7.378168   1.000000
   38       -7.273735   1.000000
   39       -7.181386   1.000000
   40       -6.895116   1.000000
   41       -6.687301   1.000000
   42       -6.654763   1.000000
   43       -6.565248   1.000000
   44       -6.444138   1.000000
   45       -6.330489   1.000000
   46       -6.240300   1.000000
   47       -6.143969   1.000000
   48       -6.005322   1.000000
   49       -5.921684   1.000000
   50       -5.887867   1.000000
   51       -5.853721   1.000000
   52       -5.767262   1.000000
   53       -5.635044   1.000000
   54       -5.617046   1.000000
   55       -5.552554   1.000000
   56       -5.487916   1.000000
   57       -5.398291   1.000000
   58       -5.279711   1.000000
   59       -5.239385   1.000000
   60       -5.198978   1.000000
   61       -5.091071   1.000000
   62       -5.078015   1.000000
   63       -4.958334   1.000000
   64       -4.829731   1.000000
   65       -4.764984   1.000000
   66       -4.748242   1.000000
   67       -4.682542   1.000000
   68       -4.614339   1.000000
   69       -4.508103   1.000000
   70       -4.446185   1.000000
   71       -4.405952   1.000000
   72       -4.284283   1.000000
   73       -4.188793   1.000000
   74       -4.138144   1.000000
   75       -4.098489   1.000000
   76       -4.057941   1.000000
   77       -4.043980   1.000000
   78       -4.025269   1.000000
   79       -3.989478   1.000000
   80       -3.872351   1.000000
   81       -3.857806   1.000000
   82       -3.832605   1.000000
   83       -3.755887   1.000000
   84       -3.719074   1.000000
   85       -3.690399   1.000000
   86       -3.659996   1.000000
   87       -3.545867   1.000000
   88       -3.517983   1.000000
   89       -3.486679   1.000000
   90       -3.451178   1.000000
   91       -3.418926   1.000000
   92       -3.318969   1.000000
   93       -3.280534   1.000000
   94       -3.215945   1.000000
   95       -3.179063   1.000000
   96       -3.146982   1.000000
   97       -3.101708   1.000000
   98       -3.081309   1.000000
   99       -2.991920   1.000000
  100       -2.863503   1.000000
  101       -2.774389   1.000000
  102       -2.670303   1.000000
  103       -2.458068   1.000000
  104       -2.380799   1.000000
  105       -2.283069   1.000000
  106       -2.184302   1.000000
  107       -2.152074   1.000000
  108       -2.007659   1.000000
  109       -1.954341   1.000000
  110       -1.857646   1.000000
  111       -1.792364   1.000000
  112       -1.781318   1.000000
  113       -1.751927   1.000000
  114       -1.725562   1.000000
  115       -1.690133   1.000000
  116       -1.660204   1.000000
  117       -1.622665   1.000000
  118       -1.504227   1.000000
  119       -1.314029   1.000000
  120       -1.229951   1.000000
  121       -1.217810   1.000000
  122       -1.123663   1.000000
  123       -1.045490   1.000000
  124       -1.012152   1.000000
  125       -0.929695   1.000000
  126       -0.868510   1.000000
  127       -0.825587   1.000000
  128       -0.763292   1.000000
  129       -0.738983   1.000000
  130       -0.556113   1.000000
  131       -0.363625   1.000000
  132       -0.350614   1.000000
  133       -0.235499   1.000000
  134       -0.112249   1.000000
  135        0.096758   1.000000
  136        0.204382   1.000000
  137        0.291498   1.000091
  138        0.317447   1.000361
  139        0.383306   1.005983
  140        0.430029   1.022172
  141        0.528153   0.936395
  142        0.577055   0.624654
  143        0.673187   0.006898
  144        0.779152  -0.011827
  145        0.785185  -0.009892
  146        0.804974  -0.005135
  147        0.818091  -0.003146
  148        0.947755  -0.000003
  149        0.991483  -0.000000
  150        1.028216  -0.000000
  151        1.120747  -0.000000
  152        1.265544  -0.000000
  153        1.287692  -0.000000
  154        1.353129  -0.000000
  155        1.403291  -0.000000
  156        1.468480  -0.000000
  157        1.491245  -0.000000
  158        1.511928  -0.000000
  159        1.581512  -0.000000
  160        1.595530  -0.000000
  161        1.625497  -0.000000
  162        1.647257  -0.000000
  163        1.682574  -0.000000
  164        1.725662  -0.000000
  165        1.737513  -0.000000
  166        1.759610  -0.000000
  167        1.774076  -0.000000
  168        1.826087  -0.000000
  169        1.857541  -0.000000
  170        1.881893  -0.000000
  171        1.917003  -0.000000
  172        1.929428  -0.000000
  173        1.972360  -0.000000
  174        2.029622  -0.000000
  175        2.076071  -0.000000
  176        2.125853  -0.000000
  177        2.149958  -0.000000
  178        2.184181  -0.000000
  179        2.258465  -0.000000
  180        2.447590  -0.000000
  181        2.516362  -0.000000
  182        2.870939  -0.000000
  183        3.044848  -0.000000
  184        3.114538  -0.000000

  0.3742002E-15  0.1111111E+00  0.1262379E-14  0.4444444E-01
    1      -13.833532   1.000000
    2      -12.708919   1.000000
    3      -12.652446   1.000000
    4      -12.620049   1.000000
    5      -11.819403   1.000000
    6      -11.563894   1.000000
    7      -11.535286   1.000000
    8      -11.512236   1.000000
    9      -11.354962   1.000000
   10      -11.234103   1.000000
   11      -11.112912   1.000000
   12      -11.006806   1.000000
   13      -10.952714   1.000000
   14      -10.606101   1.000000
   15      -10.400247   1.000000
   16      -10.196953   1.000000
   17      -10.060344   1.000000
   18       -9.996036   1.000000
   19       -9.828214   1.000000
   20       -9.674395   1.000000
   21       -9.599362   1.000000
   22       -9.448428   1.000000
   23       -9.405317   1.000000
   24       -9.305579   1.000000
   25       -8.840680   1.000000
   26       -8.770298   1.000000
   27       -8.707353   1.000000
   28       -8.458310   1.000000
   29       -8.385503   1.000000
   30       -8.240947   1.000000
   31       -7.906979   1.000000
   32       -7.807646   1.000000
   33       -7.741077   1.000000
   34       -7.360082   1.000000
   35       -7.309234   1.000000
   36       -7.262059   1.000000
   37       -7.119972   1.000000
   38       -6.975922   1.000000
   39       -6.837056   1.000000
   40       -6.794790   1.000000
   41       -6.651693   1.000000
   42       -6.595896   1.000000
   43       -6.552786   1.000000
   44       -6.501054   1.000000
   45       -6.494091   1.000000
   46       -6.396596   1.000000
   47       -6.312615   1.000000
   48       -6.081942   1.000000
   49       -6.054773   1.000000
   50       -5.960109   1.000000
   51       -5.837341   1.000000
   52       -5.754630   1.000000
   53       -5.682082   1.000000
   54       -5.626431   1.000000
   55       -5.532706   1.000000
   56       -5.486064   1.000000
   57       -5.425350   1.000000
   58       -5.361460   1.000000
   59       -5.273122   1.000000
   60       -5.252547   1.000000
   61       -5.139552   1.000000
   62       -5.059934   1.000000
   63       -4.896499   1.000000
   64       -4.832229   1.000000
   65       -4.696079   1.000000
   66       -4.635387   1.000000
   67       -4.556714   1.000000
   68       -4.534707   1.000000
   69       -4.479818   1.000000
   70       -4.455753   1.000000
   71       -4.357845   1.000000
   72       -4.302503   1.000000
   73       -4.281927   1.000000
   74       -4.232109   1.000000
   75       -4.165664   1.000000
   76       -4.060396   1.000000
   77       -4.056742   1.000000
   78       -3.998837   1.000000
   79       -3.968545   1.000000
   80       -3.947523   1.000000
   81       -3.924078   1.000000
   82       -3.899849   1.000000
   83       -3.887543   1.000000
   84       -3.839314   1.000000
   85       -3.682794   1.000000
   86       -3.643720   1.000000
   87       -3.595810   1.000000
   88       -3.577945   1.000000
   89       -3.503320   1.000000
   90       -3.481479   1.000000
   91       -3.437402   1.000000
   92       -3.391863   1.000000
   93       -3.361921   1.000000
   94       -3.248707   1.000000
   95       -3.140843   1.000000
   96       -2.901079   1.000000
   97       -2.848718   1.000000
   98       -2.813015   1.000000
   99       -2.690657   1.000000
  100       -2.670347   1.000000
  101       -2.628001   1.000000
  102       -2.616705   1.000000
  103       -2.558690   1.000000
  104       -2.463919   1.000000
  105       -2.419962   1.000000
  106       -2.298184   1.000000
  107       -2.228251   1.000000
  108       -2.163209   1.000000
  109       -2.137743   1.000000
  110       -2.087877   1.000000
  111       -2.028462   1.000000
  112       -1.948234   1.000000
  113       -1.933668   1.000000
  114       -1.826560   1.000000
  115       -1.762913   1.000000
  116       -1.680438   1.000000
  117       -1.625771   1.000000
  118       -1.492054   1.000000
  119       -1.483064   1.000000
  120       -1.452862   1.000000
  121       -1.310761   1.000000
  122       -1.021759   1.000000
  123       -0.918419   1.000000
  124       -0.874637   1.000000
  125       -0.775252   1.000000
  126       -0.695137   1.000000
  127       -0.600850   1.000000
  128       -0.553031   1.000000
  129       -0.395803   1.000000
  130       -0.274306   1.000000
  131       -0.220487   1.000000
  132       -0.168851   1.000000
  133       -0.123182   1.000000
  134        0.071421   1.000000
  135        0.125956   1.000000
  136        0.185915   1.000000
  137        0.231998   1.000002
  138        0.313583   1.000297
  139        0.336679   1.000911
  140        0.388414   1.007115
  141        0.481262   1.032967
  142        0.521641   0.961006
  143        0.654960   0.067007
  144        0.679426  -0.006746
  145        0.687059  -0.019255
  146        0.768831  -0.015665
  147        0.802949  -0.005518
  148        0.875726  -0.000225
  149        0.994368  -0.000000
  150        1.025721  -0.000000
  151        1.085784  -0.000000
  152        1.170165  -0.000000
  153        1.216002  -0.000000
  154        1.260091  -0.000000
  155        1.315892  -0.000000
  156        1.358427  -0.000000
  157        1.376841  -0.000000
  158        1.385048  -0.000000
  159        1.529640  -0.000000
  160        1.544360  -0.000000
  161        1.552302  -0.000000
  162        1.564397  -0.000000
  163        1.576855  -0.000000
  164        1.593600  -0.000000
  165        1.627998  -0.000000
  166        1.735392  -0.000000
  167        1.762020  -0.000000
  168        1.810315  -0.000000
  169        1.833105  -0.000000
  170        1.861478  -0.000000
  171        1.878976  -0.000000
  172        1.908782  -0.000000
  173        1.947807  -0.000000
  174        1.969695  -0.000000
  175        1.988412  -0.000000
  176        2.014403  -0.000000
  177        2.033978  -0.000000
  178        2.084332  -0.000000
  179        2.104290  -0.000000
  180        2.197745  -0.000000
  181        2.293986  -0.000000
  182        2.605542  -0.000000
  183        2.654465  -0.000000
  184        2.755346  -0.000000

  0.2000000E+00  0.1111111E+00  0.1262379E-14  0.4444444E-01
    1      -13.785281   1.000000
    2      -13.083942   1.000000
    3      -12.576723   1.000000
    4      -12.204558   1.000000
    5      -11.923189   1.000000
    6      -11.801070   1.000000
    7      -11.601542   1.000000
    8      -11.268785   1.000000
    9      -11.228454   1.000000
   10      -11.103730   1.000000
   11      -11.077599   1.000000
   12      -11.034409   1.000000
   13      -10.867351   1.000000
   14      -10.679134   1.000000
   15      -10.493768   1.000000
   16      -10.466216   1.000000
   17      -10.432568   1.000000
   18       -9.817504   1.000000
   19       -9.736905   1.000000
   20       -9.651918   1.000000
   21       -9.447591   1.000000
   22       -9.437839   1.000000
   23       -9.383066   1.000000
   24       -9.344642   1.000000
   25       -9.027668   1.000000
   26       -8.848852   1.000000
   27       -8.447282   1.000000
   28       -8.316149   1.000000
   29       -8.188161   1.000000
   30       -8.120950   1.000000
   31       -8.077627   1.000000
   32       -7.840371   1.000000
   33       -7.632339   1.000000
   34       -7.516501   1.000000
   35       -7.378407   1.000000
   36       -7.333974   1.000000
   37       -7.127260   1.000000
   38       -7.017939   1.000000
   39       -6.994810   1.000000
   40       -6.787322   1.000000
   41       -6.743706   1.000000
   42       -6.689892   1.000000
   43       -6.601362   1.000000
   44       -6.522136   1.000000
   45       -6.499962   1.000000
   46       -6.462370   1.000000
   47       -6.172910   1.000000
   48       -6.027782   1.000000
   49       -5.905764   1.000000
   50       -5.879282   1.000000
   51       -5.802617   1.000000
   52       -5.739656   1.000000
   53       -5.686061   1.000000
   54       -5.586829   1.000000
   55       -5.526433   1.000000
   56       -5.436658   1.000000
   57       -5.393946   1.000000
   58       -5.302897   1.000000
   59       -5.252323   1.000000
   60       -5.202562   1.000000
   61       -5.129835   1.000000
   62       -5.108670   1.000000
   63       -5.018132   1.000000
   64       -4.875456   1.000000
   65       -4.717085   1.000000
   66       -4.624549   1.000000
   67       -4.592060   1.000000
   68       -4.523936   1.000000
   69       -4.480589   1.000000
   70       -4.453804   1.000000
   71       -4.347645   1.000000
   72       -4.270717   1.000000
   73       -4.245285   1.000000
   74       -4.182606   1.000000
   75       -4.124037   1.000000
   76       -4.065073   1.000000
   77       -4.050157   1.000000
   78       -4.030754   1.000000
   79       -4.020299   1.000000
   80       -3.984010   1.000000
   81       -3.933427   1.000000
   82       -3.912658   1.000000
   83       -3.855844   1.000000
   84       -3.750901   1.000000
   85       -3.732375   1.000000
   86       -3.647977   1.000000
   87       -3.558114   1.000000
   88       -3.534278   1.000000
   89       -3.515784   1.000000
   90       -3.479155   1.000000
   91       -3.454377   1.000000
   92       -3.394160   1.000000
   93       -3.367250   1.000000
   94       -3.275605   1.000000
   95       -3.097078   1.000000
   96       -3.003104   1.000000
   97       -2.917947   1.000000
   98       -2.860079   1.000000
   99       -2.801101   1.000000
  100       -2.735681   1.000000
  101       -2.684462   1.000000
  102       -2.660289   1.000000
  103       -2.579770   1.000000
  104       -2.425301   1.000000
  105       -2.348590   1.000000
  106       -2.283163   1.000000
  107       -2.195198   1.000000
  108       -2.144843   1.000000
  109       -2.050307   1.000000
  110       -1.982190   1.000000
  111       -1.947287   1.000000
  112       -1.904288   1.000000
  113       -1.875983   1.000000
  114       -1.794614   1.000000
  115       -1.736747   1.000000
  116       -1.680644   1.000000
  117       -1.655071   1.000000
  118       -1.593129   1.000000
  119       -1.480381   1.000000
  120       -1.319745   1.000000
  121       -1.244041   1.000000
  122       -1.050690   1.000000
  123       -0.965975   1.000000
  124       -0.915008   1.000000
  125       -0.872488   1.000000
  126       -0.806901   1.000000
  127       -0.673636   1.000000
  128       -0.606830   1.000000
  129       -0.442515   1.000000
  130       -0.343802   1.000000
  131       -0.227868   1.000000
  132       -0.181531   1.000000
  133       -0.087937   1.000000
  134        0.040642   1.000000
  135        0.081215   1.000000
  136        0.125232   1.000000
  137        0.173497   1.000000
  138        0.225048   1.000001
  139        0.337616   1.000951
  140        0.498623   1.016769
  141        0.545321   0.851123
  142        0.564764   0.721042
  143        0.584882   0.559796
  144        0.702324  -0.032805
  145        0.724540  -0.034093
  146        0.788662  -0.008883
  147        0.871620  -0.000278
  148        0.933037  -0.000008
  149        0.955046  -0.000002
  150        1.040270  -0.000000
  151        1.067697  -0.000000
  152        1.209340  -0.000000
  153        1.273714  -0.000000
  154        1.317929  -0.000000
  155        1.366495  -0.000000
  156        1.400553  -0.000000
  157        1.440851  -0.000000