 running on   72 total cores
 distrk:  each k-point on   72 cores,    1 groups
 distr:  one band on    9 cores,    8 groups
 using from now: INCAR     
 vasp.5.4.4.18Apr17-6-g9f103f2a35 (build Dec  7 2020 12:43:57) complex           
 POSCAR found type information on POSCAR  Mo V  B  H 
 POSCAR found :  4 types and      75 ions
 scaLAPACK will be used

 ----------------------------------------------------------------------------- 
|                                                                             |
|  ADVICE TO THIS USER RUNNING 'VASP/VAMP'   (HEAR YOUR MASTER'S VOICE ...):  |
|                                                                             |
|      You enforced a specific xc-type in the INCAR file,                     |
|      a different type was found on the POTCAR file                          |
|          I HOPE YOU KNOW, WHAT YOU ARE  DOING                               |
|                                                                             |
 ----------------------------------------------------------------------------- 

 LDA part: xc-table for Pade appr. of Perdew
 POSCAR, INCAR and KPOINTS ok, starting setup
 resort distribution
 resort distribution
 resort distribution
 resort distribution
 resort distribution
 resort distribution
 resort distribution
 resort distribution
 resort distribution
 resort distribution
 resort distribution
 resort distribution
 resort distribution
 resort distribution
 resort distribution
 resort distribution
 resort distribution
 resort distribution
 resort distribution
 resort distribution
 resort distribution
 resort distribution
 resort distribution
 resort distribution
 resort distribution
 resort distribution
 resort distribution
 resort distribution
 resort distribution
 resort distribution
 resort distribution
 resort distribution
 resort distribution
 resort distribution
 resort distribution
 resort distribution
 resort distribution
 resort distribution
 resort distribution
 resort distribution
 resort distribution
 resort distribution
 resort distribution
 resort distribution
 resort distribution
 resort distribution
 resort distribution
 resort distribution
 resort distribution
 resort distribution
 resort distribution
 resort distribution
 resort distribution
 resort distribution
 resort distribution
 resort distribution
 resort distribution
 resort distribution
 resort distribution
 resort distribution
 resort distribution
 resort distribution
 resort distribution
 resort distribution
 resort distribution
 resort distribution
 resort distribution
 resort distribution
 resort distribution
 resort distribution
 resort distribution
 resort distribution
 FFT: planning ...
 WAVECAR not read
 augmentation electrons   285.03098533975759     
 soft         electrons   0.0000000000000000     
 augmentation electrons   285.03098533975759     
 soft         electrons   0.0000000000000000     
 augmentation electrons   285.03098533975759     
 soft         electrons   0.0000000000000000     
 augmentation electrons   285.03098533975759     
 soft         electrons   0.0000000000000000     
 augmentation electrons   285.03098533975759     
 soft         electrons   0.0000000000000000     
 augmentation electrons   285.03098533975759     
 soft         electrons   0.0000000000000000     
 augmentation electrons   285.03098533975759     
 soft         electrons   0.0000000000000000     
 augmentation electrons   285.03098533975759     
 soft         electrons   0.0000000000000000     
 augmentation electrons   285.03098533975759     
 soft         electrons   0.0000000000000000     
 augmentation electrons   285.03098533975759     
 soft         electrons   0.0000000000000000     
 augmentation electrons   285.03098533975759     
 soft         electrons   0.0000000000000000     
 augmentation electrons   285.03098533975759     
 soft         electrons   0.0000000000000000     
 augmentation electrons   285.03098533975759     
 soft         electrons   0.0000000000000000     
 augmentation electrons   285.03098533975759     
 soft         electrons   0.0000000000000000     
 augmentation electrons   285.03098533975759     
 soft         electrons   0.0000000000000000     
 augmentation electrons   285.03098533975759     
 soft         electrons   0.0000000000000000     
 augmentation electrons   285.03098533975759     
 soft         electrons   0.0000000000000000     
 augmentation electrons   285.03098533975759     
 soft         electrons   0.0000000000000000     
 augmentation electrons   285.03098533975759     
 soft         electrons   0.0000000000000000     
 augmentation electrons   285.03098533975759     
 soft         electrons   0.0000000000000000     
 augmentation electrons   285.03098533975759     
 soft         electrons   0.0000000000000000     
 augmentation electrons   285.03098533975759     
 soft         electrons   0.0000000000000000     
 augmentation electrons   285.03098533975759     
 soft         electrons   0.0000000000000000     
 augmentation electrons   285.03098533975759     
 soft         electrons   0.0000000000000000     
 augmentation electrons   285.03098533975759     
 soft         electrons   0.0000000000000000     
 augmentation electrons   285.03098533975759     
 soft         electrons   0.0000000000000000     
 augmentation electrons   285.03098533975759     
 soft         electrons   0.0000000000000000     
 augmentation electrons   285.03098533975759     
 soft         electrons   0.0000000000000000     
 augmentation electrons   285.03098533975759     
 soft         electrons   0.0000000000000000     
 augmentation electrons   285.03098533975759     
 soft         electrons   0.0000000000000000     
 augmentation electrons   285.03098533975759     
 soft         electrons   0.0000000000000000     
 augmentation electrons   285.03098533975759     
 soft         electrons   0.0000000000000000     
 augmentation electrons   285.03098533975759     
 soft         electrons   0.0000000000000000     
 augmentation electrons   285.03098533975759     
 soft         electrons   0.0000000000000000     
 augmentation electrons   285.03098533975759     
 soft         electrons   0.0000000000000000     
 augmentation electrons   285.03098533975759     
 soft         electrons   0.0000000000000000     
 augmentation electrons   285.03098533975759     
 soft         electrons   0.0000000000000000     
 augmentation electrons   285.03098533975759     
 soft         electrons   0.0000000000000000     
 augmentation electrons   285.03098533975759     
 soft         electrons   0.0000000000000000     
 augmentation electrons   285.03098533975759     
 soft         electrons   0.0000000000000000     
 augmentation electrons   285.03098533975759     
 soft         electrons   0.0000000000000000     
 augmentation electrons   285.03098533975759     
 soft         electrons   0.0000000000000000     
 augmentation electrons   285.03098533975759     
 soft         electrons   0.0000000000000000     
 augmentation electrons   285.03098533975759     
 soft         electrons   0.0000000000000000     
 augmentation electrons   285.03098533975759     
 soft         electrons   0.0000000000000000     
 augmentation electrons   285.03098533975759     
 soft         electrons   0.0000000000000000     
 augmentation electrons   285.03098533975759     
 soft         electrons   0.0000000000000000     
 augmentation electrons   285.03098533975759     
 soft         electrons   0.0000000000000000     
 augmentation electrons   285.03098533975759     
 soft         electrons   0.0000000000000000     
 augmentation electrons   285.03098533975759     
 soft         electrons   0.0000000000000000     
 augmentation electrons   285.03098533975759     
 soft         electrons   0.0000000000000000     
 augmentation electrons   285.03098533975759     
 soft         electrons   0.0000000000000000     
 augmentation electrons   285.03098533975759     
 soft         electrons   0.0000000000000000     
 augmentation electrons   285.03098533975759     
 soft         electrons   0.0000000000000000     
 augmentation electrons   285.03098533975759     
 soft         electrons   0.0000000000000000     
 augmentation electrons   285.03098533975759     
 soft         electrons   0.0000000000000000     
 augmentation electrons   285.03098533975759     
 soft         electrons   0.0000000000000000     
 augmentation electrons   285.03098533975759     
 soft         electrons   0.0000000000000000     
 augmentation electrons   285.03098533975759     
 soft         electrons   0.0000000000000000     
 augmentation electrons   285.03098533975759     
 soft         electrons   0.0000000000000000     
 augmentation electrons   285.03098533975759     
 soft         electrons   0.0000000000000000     
 augmentation electrons   285.03098533975759     
 soft         electrons   0.0000000000000000     
 augmentation electrons   285.03098533975759     
 soft         electrons   0.0000000000000000     
 augmentation electrons   285.03098533975759     
 soft         electrons   0.0000000000000000     
 augmentation electrons   285.03098533975759     
 soft         electrons   0.0000000000000000     
 augmentation electrons   285.03098533975759     
 soft         electrons   0.0000000000000000     
 augmentation electrons   285.03098533975759     
 soft         electrons   0.0000000000000000     
 augmentation electrons   285.03098533975759     
 soft         electrons   0.0000000000000000     
 augmentation electrons   285.03098533975759     
 soft         electrons   0.0000000000000000     
 augmentation electrons   285.03098533975759     
 soft         electrons   0.0000000000000000     
 augmentation electrons   285.03098533975759     
 soft         electrons   0.0000000000000000     
 augmentation electrons   285.03098533975759     
 soft         electrons   0.0000000000000000     
 total        electrons   285.03098533975759     
 total        electrons   285.03098533975759     
 total        electrons   285.03098533975759     
 total        electrons   285.03098533975759     
 total        electrons   285.03098533975759     
 total        electrons   285.03098533975759     
 total        electrons   285.03098533975759     
 total        electrons   285.03098533975759     
 total        electrons   285.03098533975759     
 total        electrons   285.03098533975759     
 total        electrons   285.03098533975759     
 total        electrons   285.03098533975759     
 total        electrons   285.03098533975759     
 total        electrons   285.03098533975759     
 total        electrons   285.03098533975759     
 total        electrons   285.03098533975759     
 total        electrons   285.03098533975759     
 total        electrons   285.03098533975759     
 total        electrons   285.03098533975759     
 total        electrons   285.03098533975759     
 total        electrons   285.03098533975759     
 total        electrons   285.03098533975759     
 total        electrons   285.03098533975759     
 total        electrons   285.03098533975759     
 total        electrons   285.03098533975759     
 total        electrons   285.03098533975759     
 total        electrons   285.03098533975759     
 total        electrons   285.03098533975759     
 total        electrons   285.03098533975759     
 total        electrons   285.03098533975759     
 total        electrons   285.03098533975759     
 total        electrons   285.03098533975759     
 total        electrons   285.03098533975759     
 total        electrons   285.03098533975759     
 total        electrons   285.03098533975759     
 total        electrons   285.03098533975759     
 total        electrons   285.03098533975759     
 total        electrons   285.03098533975759     
 total        electrons   285.03098533975759     
 total        electrons   285.03098533975759     
 total        electrons   285.03098533975759     
 total        electrons   285.03098533975759     
 total        electrons   285.03098533975759     
 total        electrons   285.03098533975759     
 total        electrons   285.03098533975759     
 total        electrons   285.03098533975759     
 total        electrons   285.03098533975759     
 total        electrons   285.03098533975759     
 total        electrons   285.03098533975759     
 total        electrons   285.03098533975759     
 total        electrons   285.03098533975759     
 total        electrons   285.03098533975759     
 total        electrons   285.03098533975759     
 total        electrons   285.03098533975759     
 total        electrons   285.03098533975759     
 total        electrons   285.03098533975759     
 total        electrons   285.03098533975759     
 total        electrons   285.03098533975759     
 total        electrons   285.03098533975759     
 total        electrons   285.03098533975759     
 total        electrons   285.03098533975759     
 total        electrons   285.03098533975759     
 total        electrons   285.03098533975759     
 total        electrons   285.03098533975759     
 total        electrons   285.03098533975759     
 total        electrons   285.03098533975759     
 total        electrons   285.03098533975759     
 total        electrons   285.03098533975759     
 total        electrons   285.03098533975759     
 total        electrons   285.03098533975759     
 total        electrons   285.03098533975759     
 total        electrons   285.03098533975759     
 augmentation electrons   997.07737191289675     
 soft         electrons   0.0000000000000000     
 total        electrons   997.07737191289675     
 augmentation electrons   997.07737191289675     
 soft         electrons   0.0000000000000000     
 total        electrons   997.07737191289675     
 augmentation electrons   997.07737191289675     
 soft         electrons   0.0000000000000000     
 total        electrons   997.07737191289675     
 augmentation electrons   997.07737191289675     
 soft         electrons   0.0000000000000000     
 total        electrons   997.07737191289675     
 augmentation electrons   997.07737191289675     
 soft         electrons   0.0000000000000000     
 total        electrons   997.07737191289675     
 augmentation electrons   997.07737191289675     
 soft         electrons   0.0000000000000000     
 total        electrons   997.07737191289675     
 augmentation electrons   997.07737191289675     
 soft         electrons   0.0000000000000000     
 total        electrons   997.07737191289675     
 augmentation electrons   997.07737191289675     
 soft         electrons   0.0000000000000000     
 total        electrons   997.07737191289675     
 augmentation electrons   997.07737191289675     
 soft         electrons   0.0000000000000000     
 total        electrons   997.07737191289675     
 augmentation electrons   997.07737191289675     
 soft         electrons   0.0000000000000000     
 total        electrons   997.07737191289675     
 augmentation electrons   997.07737191289675     
 soft         electrons   0.0000000000000000     
 total        electrons   997.07737191289675     
 augmentation electrons   997.07737191289675     
 soft         electrons   0.0000000000000000     
 total        electrons   997.07737191289675     
 augmentation electrons   997.07737191289675     
 soft         electrons   0.0000000000000000     
 total        electrons   997.07737191289675     
 augmentation electrons   997.07737191289675     
 soft         electrons   0.0000000000000000     
 augmentation electrons   997.07737191289675     
 soft         electrons   0.0000000000000000     
 total        electrons   997.07737191289675     
 augmentation electrons   997.07737191289675     
 soft         electrons   0.0000000000000000     
 total        electrons   997.07737191289675     
 augmentation electrons   997.07737191289675     
 soft         electrons   0.0000000000000000     
 total        electrons   997.07737191289675     
 augmentation electrons   997.07737191289675     
 soft         electrons   0.0000000000000000     
 total        electrons   997.07737191289675     
 augmentation electrons   997.07737191289675     
 soft         electrons   0.0000000000000000     
 total        electrons   997.07737191289675     
 augmentation electrons   997.07737191289675     
 soft         electrons   0.0000000000000000     
 total        electrons   997.07737191289675     
 augmentation electrons   997.07737191289675     
 soft         electrons   0.0000000000000000     
 total        electrons   997.07737191289675     
 augmentation electrons   997.07737191289675     
 soft         electrons   0.0000000000000000     
 total        electrons   997.07737191289675     
 augmentation electrons   997.07737191289675     
 soft         electrons   0.0000000000000000     
 total        electrons   997.07737191289675     
 augmentation electrons   997.07737191289675     
 soft         electrons   0.0000000000000000     
 total        electrons   997.07737191289675     
 augmentation electrons   997.07737191289675     
 soft         electrons   0.0000000000000000     
 total        electrons   997.07737191289675     
 augmentation electrons   997.07737191289675     
 soft         electrons   0.0000000000000000     
 total        electrons   997.07737191289675     
 augmentation electrons   997.07737191289675     
 soft         electrons   0.0000000000000000     
 total        electrons   997.07737191289675     
 augmentation electrons   997.07737191289675     
 soft         electrons   0.0000000000000000     
 total        electrons   997.07737191289675     
 augmentation electrons   997.07737191289675     
 soft         electrons   0.0000000000000000     
 total        electrons   997.07737191289675     
 augmentation electrons   997.07737191289675     
 soft         electrons   0.0000000000000000     
 total        electrons   997.07737191289675     
 augmentation electrons   997.07737191289675     
 soft         electrons   0.0000000000000000     
 total        electrons   997.07737191289675     
 augmentation electrons   997.07737191289675     
 soft         electrons   0.0000000000000000     
 total        electrons   997.07737191289675     
 augmentation electrons   997.07737191289675     
 soft         electrons   0.0000000000000000     
 total        electrons   997.07737191289675     
 augmentation electrons   997.07737191289675     
 soft         electrons   0.0000000000000000     
 total        electrons   997.07737191289675     
 augmentation electrons   997.07737191289675     
 soft         electrons   0.0000000000000000     
 total        electrons   997.07737191289675     
 augmentation electrons   997.07737191289675     
 soft         electrons   0.0000000000000000     
 total        electrons   997.07737191289675     
 augmentation electrons   997.07737191289675     
 soft         electrons   0.0000000000000000     
 total        electrons   997.07737191289675     
 augmentation electrons   997.07737191289675     
 soft         electrons   0.0000000000000000     
 total        electrons   997.07737191289675     
 augmentation electrons   997.07737191289675     
 soft         electrons   0.0000000000000000     
 total        electrons   997.07737191289675     
 augmentation electrons   997.07737191289675     
 soft         electrons   0.0000000000000000     
 total        electrons   997.07737191289675     
 augmentation electrons   997.07737191289675     
 soft         electrons   0.0000000000000000     
 total        electrons   997.07737191289675     
 augmentation electrons   997.07737191289675     
 soft         electrons   0.0000000000000000     
 total        electrons   997.07737191289675     
 augmentation electrons   997.07737191289675     
 soft         electrons   0.0000000000000000     
 total        electrons   997.07737191289675     
 augmentation electrons   997.07737191289675     
 soft         electrons   0.0000000000000000     
 total        electrons   997.07737191289675     
 augmentation electrons   997.07737191289675     
 soft         electrons   0.0000000000000000     
 total        electrons   997.07737191289675     
 augmentation electrons   997.07737191289675     
 soft         electrons   0.0000000000000000     
 total        electrons   997.07737191289675     
 augmentation electrons   997.07737191289675     
 soft         electrons   0.0000000000000000     
 total        electrons   997.07737191289675     
 augmentation electrons   997.07737191289675     
 soft         electrons   0.0000000000000000     
 total        electrons   997.07737191289675     
 augmentation electrons   997.07737191289675     
 soft         electrons   0.0000000000000000     
 total        electrons   997.07737191289675     
 augmentation electrons   997.07737191289675     
 soft         electrons   0.0000000000000000     
 total        electrons   997.07737191289675     
 augmentation electrons   997.07737191289675     
 soft         electrons   0.0000000000000000     
 total        electrons   997.07737191289675     
 augmentation electrons   997.07737191289675     
 soft         electrons   0.0000000000000000     
 total        electrons   997.07737191289675     
 augmentation electrons   997.07737191289675     
 soft         electrons   0.0000000000000000     
 total        electrons   997.07737191289675     
 augmentation electrons   997.07737191289675     
 soft         electrons   0.0000000000000000     
 augmentation electrons   997.07737191289675     
 soft         electrons   0.0000000000000000     
 total        electrons   997.07737191289675     
 augmentation electrons   997.07737191289675     
 soft         electrons   0.0000000000000000     
 total        electrons   997.07737191289675     
 augmentation electrons   997.07737191289675     
 soft         electrons   0.0000000000000000     
 total        electrons   997.07737191289675     
 augmentation electrons   997.07737191289675     
 soft         electrons   0.0000000000000000     
 total        electrons   997.07737191289675     
 augmentation electrons   997.07737191289675     
 soft         electrons   0.0000000000000000     
 total        electrons   997.07737191289675     
 augmentation electrons   997.07737191289675     
 soft         electrons   0.0000000000000000     
 total        electrons   997.07737191289675     
 augmentation electrons   997.07737191289675     
 soft         electrons   0.0000000000000000     
 total        electrons   997.07737191289675     
 augmentation electrons   997.07737191289675     
 soft         electrons   0.0000000000000000     
 total        electrons   997.07737191289675     
 augmentation electrons   997.07737191289675     
 soft         electrons   0.0000000000000000     
 total        electrons   997.07737191289675     
 augmentation electrons   997.07737191289675     
 soft         electrons   0.0000000000000000     
 total        electrons   997.07737191289675     
 augmentation electrons   997.07737191289675     
 soft         electrons   0.0000000000000000     
 total        electrons   997.07737191289675     
 augmentation electrons   997.07737191289675     
 soft         electrons   0.0000000000000000     
 total        electrons   997.07737191289675     
 augmentation electrons   997.07737191289675     
 soft         electrons   0.0000000000000000     
 total        electrons   997.07737191289675     
 augmentation electrons   997.07737191289675     
 soft         electrons   0.0000000000000000     
 total        electrons   997.07737191289675     
 augmentation electrons   997.07737191289675     
 soft         electrons   0.0000000000000000     
 total        electrons   997.07737191289675     
 augmentation electrons   997.07737191289675     
 soft         electrons   0.0000000000000000     
 total        electrons   997.07737191289675     
 augmentation electrons   997.07737191289675     
 soft         electrons   0.0000000000000000     
 total        electrons   997.07737191289675     
 augmentation electrons   997.07737191289675     
 soft         electrons   0.0000000000000000     
 total        electrons   997.07737191289675     
 total        electrons   997.07737191289675     
 total        electrons   997.07737191289675     
 entering main loop
       N       E                     dE             d eps       ncg     rms          rms(c)
DAV:   1     0.249694941252E+04    0.24969E+04   -0.10362E+05  8472   0.127E+03
DAV:   2    -0.190049868468E+03   -0.26870E+04   -0.24980E+04  9704   0.314E+02
DAV:   3    -0.628681636920E+03   -0.43863E+03   -0.41629E+03 11904   0.146E+02
DAV:   4    -0.666548054776E+03   -0.37866E+02   -0.36056E+02 13720   0.469E+01
DAV:   5    -0.669048645898E+03   -0.25006E+01   -0.24047E+01 14400   0.112E+01    0.147E+02
RMM:   6    -0.618142667560E+03    0.50906E+02   -0.11371E+03 13400   0.883E+01    0.692E+01
RMM:   7    -0.674960785710E+03   -0.56818E+02   -0.35083E+02 10829   0.531E+01    0.536E+01
RMM:   8    -0.593172266575E+03    0.81789E+02   -0.99557E+01 10283   0.297E+01    0.328E+01
RMM:   9    -0.583436427525E+03    0.97358E+01   -0.41809E+01 12670   0.141E+01    0.282E+01
RMM:  10    -0.567158176333E+03    0.16278E+02   -0.20090E+01 10054   0.144E+01    0.175E+01
RMM:  11    -0.567552314731E+03   -0.39414E+00   -0.71496E+00 12395   0.507E+00    0.151E+01
RMM:  12    -0.567610453941E+03   -0.58139E-01   -0.10668E+00 12953   0.177E+00    0.144E+01
RMM:  13    -0.567310682364E+03    0.29977E+00   -0.96665E-01 10779   0.293E+00    0.125E+01
RMM:  14    -0.567891799313E+03   -0.58112E+00   -0.70266E+00  9662   0.854E+00    0.104E+01
RMM:  15    -0.566776002515E+03    0.11158E+01   -0.11165E+00  9878   0.379E+00    0.488E+00
RMM:  16    -0.566544498466E+03    0.23150E+00   -0.12255E+00 12957   0.200E+00    0.334E+00
RMM:  17    -0.566483229349E+03    0.61269E-01   -0.47420E-01 12547   0.149E+00    0.256E+00
RMM:  18    -0.566449588852E+03    0.33640E-01   -0.25129E-01 12789   0.106E+00    0.162E+00
RMM:  19    -0.566439567120E+03    0.10022E-01   -0.77866E-02 10323   0.831E-01    0.122E+00
RMM:  20    -0.566430839578E+03    0.87275E-02   -0.51136E-02 11749   0.555E-01    0.823E-01
RMM:  21    -0.566421065293E+03    0.97743E-02   -0.27649E-02 12428   0.309E-01    0.564E-01
RMM:  22    -0.566418244446E+03    0.28208E-02   -0.13675E-02 13012   0.199E-01    0.255E-01
RMM:  23    -0.566418498995E+03   -0.25455E-03   -0.57714E-03 12518   0.160E-01    0.266E-01
RMM:  24    -0.566417607761E+03    0.89123E-03   -0.19059E-03 11684   0.109E-01    0.152E-01
RMM:  25    -0.566417153104E+03    0.45466E-03   -0.23762E-03 11574   0.115E-01    0.118E-01
RMM:  26    -0.566417422850E+03   -0.26975E-03   -0.13548E-03 12985   0.629E-02    0.472E-02
RMM:  27    -0.566418061385E+03   -0.63853E-03   -0.54792E-04 11388   0.484E-02    0.755E-02
RMM:  28    -0.566418536756E+03   -0.47537E-03   -0.37394E-04 10390   0.406E-02    0.383E-02
RMM:  29    -0.566418665018E+03   -0.12826E-03   -0.24573E-04 11685   0.288E-02    0.262E-02
RMM:  30    -0.566418811092E+03   -0.14607E-03   -0.95155E-05 11278   0.246E-02    0.252E-02
RMM:  31    -0.566418863705E+03   -0.52614E-04   -0.89842E-05 10333   0.179E-02    0.148E-02
RMM:  32    -0.566418917294E+03   -0.53588E-04   -0.30019E-05  9238   0.126E-02    0.136E-02
RMM:  33    -0.566419081743E+03   -0.16445E-03   -0.17263E-05  8622   0.127E-02    0.959E-03
RMM:  34    -0.566419317167E+03   -0.23542E-03   -0.27215E-05  9020   0.571E-03    0.808E-03
RMM:  35    -0.566419387130E+03   -0.69963E-04   -0.97735E-06  8220   0.583E-03    0.106E-02
RMM:  36    -0.566419423525E+03   -0.36395E-04   -0.44009E-06  7683   0.524E-03    0.486E-03
RMM:  37    -0.566419469873E+03   -0.46348E-04   -0.56578E-06  8090   0.310E-03    0.201E-03
RMM:  38    -0.566419498221E+03   -0.28349E-04   -0.33118E-06  7292   0.295E-03    0.171E-03
RMM:  39    -0.566419502405E+03   -0.41835E-05   -0.55862E-07  6011   0.175E-03    0.122E-03
RMM:  40    -0.566419504081E+03   -0.16762E-05   -0.28965E-07  5446   0.168E-03    0.117E-03
RMM:  41    -0.566419507211E+03   -0.31299E-05   -0.40755E-07  4852   0.108E-03    0.672E-04
RMM:  42    -0.566419507815E+03   -0.60442E-06   -0.20695E-07  4464   0.129E-03
   1 F= -.56641951E+03 E0= -.56642077E+03  d E =0.377366E-02
 augmentation electrons   31.500593225195082     
 soft         electrons   253.59249268225201     
 augmentation electrons   31.500593225195082     
 soft         electrons   253.59249268225201     
 augmentation electrons   31.500593225195082     
 soft         electrons   253.59249268225201     
 augmentation electrons   31.500593225195082     
 soft         electrons   253.59249268225201     
 augmentation electrons   31.500593225195082     
 soft         electrons   253.59249268225201     
 augmentation electrons   31.500593225195082     
 soft         electrons   253.59249268225201     
 augmentation electrons   31.500593225195082     
 soft         electrons   253.59249268225201     
 augmentation electrons   31.500593225195082     
 soft         electrons   253.59249268225201     
 augmentation electrons   31.500593225195082     
 soft         electrons   253.59249268225201     
 augmentation electrons   31.500593225195082     
 soft         electrons   253.59249268225201     
 augmentation electrons   31.500593225195082     
 soft         electrons   253.59249268225201     
 augmentation electrons   31.500593225195082     
 soft         electrons   253.59249268225201     
 augmentation electrons   31.500593225195082     
 soft         electrons   253.59249268225201     
 augmentation electrons   31.500593225195082     
 soft         electrons   253.59249268225201     
 augmentation electrons   31.500593225195082     
 soft         electrons   253.59249268225201     
 augmentation electrons   31.500593225195082     
 soft         electrons   253.59249268225201     
 augmentation electrons   31.500593225195082     
 soft         electrons   253.59249268225201     
 augmentation electrons   31.500593225195082     
 soft         electrons   253.59249268225201     
 augmentation electrons   31.500593225195082     
 soft         electrons   253.59249268225201     
 augmentation electrons   31.500593225195082     
 soft         electrons   253.59249268225201     
 augmentation electrons   31.500593225195082     
 soft         electrons   253.59249268225201     
 augmentation electrons   31.500593225195082     
 soft         electrons   253.59249268225201     
 augmentation electrons   31.500593225195082     
 soft         electrons   253.59249268225201     
 augmentation electrons   31.500593225195082     
 soft         electrons   253.59249268225201     
 augmentation electrons   31.500593225195082     
 soft         electrons   253.59249268225201     
 augmentation electrons   31.500593225195082     
 soft         electrons   253.59249268225201     
 augmentation electrons   31.500593225195082     
 soft         electrons   253.59249268225201     
 augmentation electrons   31.500593225195082     
 soft         electrons   253.59249268225201     
 augmentation electrons   31.500593225195082     
 augmentation electrons   31.500593225195082     
 soft         electrons   253.59249268225201     
 augmentation electrons   31.500593225195082     
 soft         electrons   253.59249268225201     
 augmentation electrons   31.500593225195082     
 soft         electrons   253.59249268225201     
 augmentation electrons   31.500593225195082     
 soft         electrons   253.59249268225201     
 augmentation electrons   31.500593225195082     
 soft         electrons   253.59249268225201     
 augmentation electrons   31.500593225195082     
 soft         electrons   253.59249268225201     
 augmentation electrons   31.500593225195082     
 soft         electrons   253.59249268225201     
 augmentation electrons   31.500593225195082     
 soft         electrons   253.59249268225201     
 augmentation electrons   31.500593225195082     
 soft         electrons   253.59249268225201     
 augmentation electrons   31.500593225195082     
 soft         electrons   253.59249268225201     
 augmentation electrons   31.500593225195082     
 soft         electrons   253.59249268225201     
 augmentation electrons   31.500593225195082     
 soft         electrons   253.59249268225201     
 augmentation electrons   31.500593225195082     
 soft         electrons   253.59249268225201     
 augmentation electrons   31.500593225195082     
 soft         electrons   253.59249268225201     
 augmentation electrons   31.500593225195082     
 soft         electrons   253.59249268225201     
 augmentation electrons   31.500593225195082     
 soft         electrons   253.59249268225201     
 augmentation electrons   31.500593225195082     
 soft         electrons   253.59249268225201     
 augmentation electrons   31.500593225195082     
 soft         electrons   253.59249268225201     
 augmentation electrons   31.500593225195082     
 soft         electrons   253.59249268225201     
 augmentation electrons   31.500593225195082     
 soft         electrons   253.59249268225201     
 augmentation electrons   31.500593225195082     
 soft         electrons   253.59249268225201     
 augmentation electrons   31.500593225195082     
 soft         electrons   253.59249268225201     
 augmentation electrons   31.500593225195082     
 soft         electrons   253.59249268225201     
 augmentation electrons   31.500593225195082     
 soft         electrons   253.59249268225201     
 augmentation electrons   31.500593225195082     
 soft         electrons   253.59249268225201     
 augmentation electrons   31.500593225195082     
 soft         electrons   253.59249268225201     
 augmentation electrons   31.500593225195082     
 soft         electrons   253.59249268225201     
 augmentation electrons   31.500593225195082     
 soft         electrons   253.59249268225201     
 augmentation electrons   31.500593225195082     
 soft         electrons   253.59249268225201     
 augmentation electrons   31.500593225195082     
 soft         electrons   253.59249268225201     
 augmentation electrons   31.500593225195082     
 soft         electrons   253.59249268225201     
 augmentation electrons   31.500593225195082     
 soft         electrons   253.59249268225201     
 augmentation electrons   31.500593225195082     
 soft         electrons   253.59249268225201     
 augmentation electrons   31.500593225195082     
 soft         electrons   253.59249268225201     
 augmentation electrons   31.500593225195082     
 soft         electrons   253.59249268225201     
 augmentation electrons   31.500593225195082     
 soft         electrons   253.59249268225201     
 augmentation electrons   31.500593225195082     
 soft         electrons   253.59249268225201     
 augmentation electrons   31.500593225195082     
 soft         electrons   253.59249268225201     
 augmentation electrons   31.500593225195082     
 soft         electrons   253.59249268225201     
 augmentation electrons   31.500593225195082     
 soft         electrons   253.59249268225201     
 augmentation electrons   31.500593225195082     
 soft         electrons   253.59249268225201     
 augmentation electrons   31.500593225195082     
 soft         electrons   253.59249268225201     
 augmentation electrons   31.500593225195082     
 soft         electrons   253.59249268225201     
 soft         electrons   253.59249268225201     
 total        electrons   285.09308590744712     
 total        electrons   285.09308590744712     
 total        electrons   285.09308590744712     
 total        electrons   285.09308590744712     
 total        electrons   285.09308590744712     
 total        electrons   285.09308590744712     
 total        electrons   285.09308590744712     
 total        electrons   285.09308590744712     
 total        electrons   285.09308590744712     
 total        electrons   285.09308590744712     
 total        electrons   285.09308590744712     
 total        electrons   285.09308590744712     
 total        electrons   285.09308590744712     
 total        electrons   285.09308590744712     
 total        electrons   285.09308590744712     
 total        electrons   285.09308590744712     
 total        electrons   285.09308590744712     
 total        electrons   285.09308590744712     
 total        electrons   285.09308590744712     
 total        electrons   285.09308590744712     
 total        electrons   285.09308590744712     
 total        electrons   285.09308590744712     
 total        electrons   285.09308590744712     
 total        electrons   285.09308590744712     
 total        electrons   285.09308590744712     
 total        electrons   285.09308590744712     
 total        electrons   285.09308590744712     
 total        electrons   285.09308590744712     
 total        electrons   285.09308590744712     
 total        electrons   285.09308590744712     
 total        electrons   285.09308590744712     
 total        electrons   285.09308590744712     
 total        electrons   285.09308590744712     
 total        electrons   285.09308590744712     
 total        electrons   285.09308590744712     
 total        electrons   285.09308590744712     
 total        electrons   285.09308590744712     
 total        electrons   285.09308590744712     
 total        electrons   285.09308590744712     
 total        electrons   285.09308590744712     
 total        electrons   285.09308590744712     
 total        electrons   285.09308590744712     
 total        electrons   285.09308590744712     
 total        electrons   285.09308590744712     
 total        electrons   285.09308590744712     
 total        electrons   285.09308590744712     
 total        electrons   285.09308590744712     
 total        electrons   285.09308590744712     
 total        electrons   285.09308590744712     
 total        electrons   285.09308590744712     
 total        electrons   285.09308590744712     
 total        electrons   285.09308590744712     
 total        electrons   285.09308590744712     
 total        electrons   285.09308590744712     
 total        electrons   285.09308590744712     
 total        electrons   285.09308590744712     
 total        electrons   285.09308590744712     
 total        electrons   285.09308590744712     
 total        electrons   285.09308590744712     
 total        electrons   285.09308590744712     
 total        electrons   285.09308590744712     
 total        electrons   285.09308590744712     
 total        electrons   285.09308590744712     
 total        electrons   285.09308590744712     
 total        electrons   285.09308590744712     
 total        electrons   285.09308590744712     
 total        electrons   285.09308590744712     
 total        electrons   285.09308590744712     
 total        electrons   285.09308590744712     
 total        electrons   285.09308590744712     
 total        electrons   285.09308590744712     
 total        electrons   285.09308590744712     
Note: The following floating-point exceptions are signalling: IEEE_OVERFLOW_FLAG
Note: The following floating-point exceptions are signalling: IEEE_OVERFLOW_FLAG
Note: The following floating-point exceptions are signalling: IEEE_OVERFLOW_FLAG
Note: The following floating-point exceptions are signalling: IEEE_OVERFLOW_FLAG
Note: The following floating-point exceptions are signalling: IEEE_OVERFLOW_FLAG
Note: The following floating-point exceptions are signalling: IEEE_OVERFLOW_FLAG
Note: The following floating-point exceptions are signalling: IEEE_OVERFLOW_FLAG
Note: The following floating-point exceptions are signalling: IEEE_OVERFLOW_FLAG
Note: The following floating-point exceptions are signalling: IEEE_OVERFLOW_FLAG
Note: The following floating-point exceptions are signalling: IEEE_OVERFLOW_FLAG
Note: The following floating-point exceptions are signalling: IEEE_OVERFLOW_FLAG
Note: The following floating-point exceptions are signalling: IEEE_OVERFLOW_FLAG
Note: The following floating-point exceptions are signalling: IEEE_OVERFLOW_FLAG
Note: The following floating-point exceptions are signalling: IEEE_OVERFLOW_FLAG
Note: The following floating-point exceptions are signalling: IEEE_OVERFLOW_FLAG
Note: The following floating-point exceptions are signalling: IEEE_OVERFLOW_FLAG
Note: The following floating-point exceptions are signalling: IEEE_OVERFLOW_FLAG
Note: The following floating-point exceptions are signalling: IEEE_OVERFLOW_FLAG
Note: The following floating-point exceptions are signalling: IEEE_OVERFLOW_FLAG
Note: The following floating-point exceptions are signalling: IEEE_OVERFLOW_FLAG
Note: The following floating-point exceptions are signalling: IEEE_OVERFLOW_FLAG
Note: The following floating-point exceptions are signalling: IEEE_OVERFLOW_FLAG
Note: The following floating-point exceptions are signalling: IEEE_OVERFLOW_FLAG
Note: The following floating-point exceptions are signalling: IEEE_OVERFLOW_FLAG
Note: The following floating-point exceptions are signalling: IEEE_OVERFLOW_FLAG
Note: The following floating-point exceptions are signalling: IEEE_OVERFLOW_FLAG
Note: The following floating-point exceptions are signalling: IEEE_OVERFLOW_FLAG
Note: The following floating-point exceptions are signalling: IEEE_OVERFLOW_FLAG
Note: The following floating-point exceptions are signalling: IEEE_OVERFLOW_FLAG
Note: The following floating-point exceptions are signalling: IEEE_OVERFLOW_FLAG
Note: The following floating-point exceptions are signalling: IEEE_OVERFLOW_FLAG
Note: The following floating-point exceptions are signalling: IEEE_OVERFLOW_FLAG
Note: The following floating-point exceptions are signalling: IEEE_OVERFLOW_FLAG
Note: The following floating-point exceptions are signalling: IEEE_OVERFLOW_FLAG
Note: The following floating-point exceptions are signalling: IEEE_OVERFLOW_FLAG
Note: The following floating-point exceptions are signalling: IEEE_OVERFLOW_FLAG
Note: The following floating-point exceptions are signalling: IEEE_OVERFLOW_FLAG
Note: The following floating-point exceptions are signalling: IEEE_OVERFLOW_FLAG
Note: The following floating-point exceptions are signalling: IEEE_OVERFLOW_FLAG
Note: The following floating-point exceptions are signalling: IEEE_OVERFLOW_FLAG
Note: The following floating-point exceptions are signalling: IEEE_OVERFLOW_FLAG
Note: The following floating-point exceptions are signalling: IEEE_OVERFLOW_FLAG
Note: The following floating-point exceptions are signalling: IEEE_OVERFLOW_FLAG
Note: The following floating-point exceptions are signalling: IEEE_OVERFLOW_FLAG
Note: The following floating-point exceptions are signalling: IEEE_OVERFLOW_FLAG
Note: The following floating-point exceptions are signalling: IEEE_OVERFLOW_FLAG
Note: The following floating-point exceptions are signalling: IEEE_OVERFLOW_FLAG
Note: The following floating-point exceptions are signalling: IEEE_OVERFLOW_FLAG
Note: The following floating-point exceptions are signalling: IEEE_OVERFLOW_FLAG
Note: The following floating-point exceptions are signalling: IEEE_OVERFLOW_FLAG
Note: The following floating-point exceptions are signalling: IEEE_OVERFLOW_FLAG
Note: The following floating-point exceptions are signalling: IEEE_OVERFLOW_FLAG
Note: The following floating-point exceptions are signalling: IEEE_OVERFLOW_FLAG
Note: The following floating-point exceptions are signalling: IEEE_OVERFLOW_FLAG
Note: The following floating-point exceptions are signalling: IEEE_OVERFLOW_FLAG
Note: The following floating-point exceptions are signalling: IEEE_OVERFLOW_FLAG
Note: The following floating-point exceptions are signalling: IEEE_OVERFLOW_FLAG
Note: The following floating-point exceptions are signalling: IEEE_OVERFLOW_FLAG
Note: The following floating-point exceptions are signalling: IEEE_OVERFLOW_FLAG
Note: The following floating-point exceptions are signalling: IEEE_OVERFLOW_FLAG
Note: The following floating-point exceptions are signalling: IEEE_OVERFLOW_FLAG
Note: The following floating-point exceptions are signalling: IEEE_OVERFLOW_FLAG
Note: The following floating-point exceptions are signalling: IEEE_OVERFLOW_FLAG
Note: The following floating-point exceptions are signalling: IEEE_OVERFLOW_FLAG
Note: The following floating-point exceptions are signalling: IEEE_OVERFLOW_FLAG
Note: The following floating-point exceptions are signalling: IEEE_OVERFLOW_FLAG
Note: The following floating-point exceptions are signalling: IEEE_OVERFLOW_FLAG
Note: The following floating-point exceptions are signalling: IEEE_OVERFLOW_FLAG
Note: The following floating-point exceptions are signalling: IEEE_OVERFLOW_FLAG
Note: The following floating-point exceptions are signalling: IEEE_OVERFLOW_FLAG
Note: The following floating-point exceptions are signalling: IEEE_OVERFLOW_FLAG
Note: The following floating-point exceptions are signalling: IEEE_OVERFLOW_FLAG
