   24   24   60    1
  0.8144829E+01  0.6078000E-09  0.6078000E-09  0.6110000E-09  0.5000000E-15
   1.0000000000000000E-004
  CAR 
 Name                                    
     90    125     60

  0.3742002E-15  0.3742002E-15  0.3742002E-15  0.1371742E-02
    1       -5.700852   1.000000
    2       -3.460199   1.000000
    3       -2.054669   1.000000
    4       -1.910841   1.000000
    5       -1.769329   1.000000
    6       -1.633276   1.000000
    7       -1.630375   1.000000
    8       -1.620949   1.000000
    9       -1.387015   1.000000
   10       -1.345927   1.000000
   11       -1.298580   1.000000
   12        0.128299   1.000000
   13        0.491535   1.000000
   14        0.599413   1.000000
   15        0.678897   1.000000
   16        2.766551   1.000000
   17        2.835372   1.000000
   18        3.131469   1.000000
   19        3.369458   1.000000
   20        3.683845   1.000000
   21        3.883822   1.000000
   22        4.565096   1.000000
   23        4.565126   1.000000
   24        4.595985   1.000000
   25        4.672487   1.000000
   26        4.693142   1.000000
   27        4.745985   1.000000
   28        4.803041   1.000000
   29        4.912965   1.000000
   30        4.919280   1.000000
   31        4.942417   1.000000
   32        4.976267   1.000000
   33        5.033393   1.000000
   34        5.095583   1.000000
   35        5.175615   1.000000
   36        5.684209   1.000000
   37        6.331342   1.000000
   38        7.046680   1.000000
   39        7.115992   1.000000
   40        7.544112   1.000000
   41        7.582460   1.000000
   42        7.861610   1.000000
   43        7.865098   1.000000
   44        8.806777   1.001118
   45        8.824662   1.002401
   46        8.875860   1.013784
   47        9.333659  -0.000334
   48        9.340734  -0.000232
   49        9.620957  -0.000000
   50        9.997097  -0.000000
   51       10.020938  -0.000000
   52       10.059146  -0.000000
   53       10.101866  -0.000000
   54       10.157524  -0.000000
   55       10.216705  -0.000000
   56       10.223653  -0.000000
   57       10.246046  -0.000000
   58       10.280788  -0.000000
   59       10.645669  -0.000000
   60       10.708446  -0.000000

  0.1111111E+00  0.3745146E-15  0.3742002E-15  0.5486968E-02
    1       -5.641255   1.000000
    2       -3.434946   1.000000
    3       -2.292775   1.000000
    4       -2.099550   1.000000
    5       -1.906438   1.000000
    6       -1.873378   1.000000
    7       -1.868484   1.000000
    8       -1.830682   1.000000
    9       -1.021383   1.000000
   10       -1.016722   1.000000
   11       -0.640029   1.000000
   12        0.210156   1.000000
   13        0.584849   1.000000
   14        0.605047   1.000000
   15        0.783595   1.000000
   16        2.778715   1.000000
   17        2.821629   1.000000
   18        3.148684   1.000000
   19        3.307740   1.000000
   20        3.681196   1.000000
   21        3.781562   1.000000
   22        3.997244   1.000000
   23        4.074519   1.000000
   24        4.588712   1.000000
   25        4.634928   1.000000
   26        4.672025   1.000000
   27        4.759184   1.000000
   28        4.842893   1.000000
   29        4.875101   1.000000
   30        4.931075   1.000000
   31        4.949812   1.000000
   32        5.017884   1.000000
   33        5.149777   1.000000
   34        5.293547   1.000000
   35        5.706159   1.000000
   36        5.945732   1.000000
   37        6.234773   1.000000
   38        6.413140   1.000000
   39        6.475590   1.000000
   40        7.731556   1.000000
   41        7.922232   1.000000
   42        8.147108   1.000000
   43        8.232343   1.000000
   44        8.629493   1.000000
   45        8.641692   1.000000
   46        8.862270   1.009279
   47        9.319480  -0.000669
   48        9.492455  -0.000000
   49        9.637040  -0.000000
   50        9.953823  -0.000000
   51        9.960084  -0.000000
   52       10.029056  -0.000000
   53       10.093220  -0.000000
   54       10.149644  -0.000000
   55       10.150552  -0.000000
   56       10.209200  -0.000000
   57       10.272017  -0.000000
   58       10.283904  -0.000000
   59       10.576899  -0.000000
   60       10.646390  -0.000000

  0.2222222E+00  0.3685699E-15  0.3742002E-15  0.5486968E-02
    1       -5.463836   1.000000
    2       -3.358859   1.000000
    3       -3.022263   1.000000
    4       -2.286275   1.000000
    5       -2.135444   1.000000
    6       -2.132514   1.000000
    7       -1.895753   1.000000
    8       -1.887290   1.000000
    9       -0.520894   1.000000
   10       -0.513135   1.000000
   11        0.196683   1.000000
   12        0.463895   1.000000
   13        0.621374   1.000000
   14        0.639095   1.000000
   15        1.239069   1.000000
   16        2.777459   1.000000
   17        2.781556   1.000000
   18        2.992455   1.000000
   19        3.249817   1.000000
   20        3.282101   1.000000
   21        3.307385   1.000000
   22        3.647716   1.000000
   23        3.677836   1.000000
   24        4.250261   1.000000
   25        4.643469   1.000000
   26        4.662294   1.000000
   27        4.761763   1.000000
   28        4.823657   1.000000
   29        4.956220   1.000000
   30        4.961108   1.000000
   31        5.037551   1.000000
   32        5.224761   1.000000
   33        5.264643   1.000000
   34        5.438618   1.000000
   35        5.564271   1.000000
   36        5.751897   1.000000
   37        5.997158   1.000000
   38        6.414274   1.000000
   39        6.537306   1.000000
   40        7.391129   1.000000
   41        8.090201   1.000000
   42        8.191754   1.000000
   43        8.192439   1.000000
   44        8.865395   1.010210
   45        8.892647   1.020809
   46        9.107914   0.128000
   47        9.274369  -0.004476
   48        9.680257  -0.000000
   49        9.737594  -0.000000
   50        9.740282  -0.000000
   51        9.887268  -0.000000
   52        9.896100  -0.000000
   53        9.994922  -0.000000
   54       10.065491  -0.000000
   55       10.125464  -0.000000
   56       10.179121  -0.000000
   57       10.279973  -0.000000
   58       10.344665  -0.000000
   59       10.401226  -0.000000
   60       10.545471  -0.000000

  0.3333333E+00  0.4145315E-15  0.3742002E-15  0.5486968E-02
    1       -5.172592   1.000000
    2       -3.688171   1.000000
    3       -3.231246   1.000000
    4       -2.558004   1.000000
    5       -2.315481   1.000000
    6       -2.313797   1.000000
    7       -1.891384   1.000000
    8       -1.884926   1.000000
    9        0.029821   1.000000
   10        0.041418   1.000000
   11        0.645134   1.000000
   12        0.665537   1.000000
   13        0.792497   1.000000
   14        1.115581   1.000000
   15        1.902276   1.000000
   16        2.399866   1.000000
   17        2.567800   1.000000
   18        2.623375   1.000000
   19        2.725439   1.000000
   20        2.742621   1.000000
   21        3.433278   1.000000
   22        3.489147   1.000000
   23        3.679543   1.000000
   24        3.813445   1.000000
   25        4.409203   1.000000
   26        4.620032   1.000000
   27        4.753582   1.000000
   28        4.768925   1.000000
   29        4.887181   1.000000
   30        5.078465   1.000000
   31        5.097872   1.000000
   32        5.115459   1.000000
   33        5.318837   1.000000
   34        5.409488   1.000000
   35        5.473005   1.000000
   36        5.577696   1.000000
   37        5.706060   1.000000
   38        6.816266   1.000000
   39        7.161853   1.000000
   40        7.190094   1.000000
   41        7.742888   1.000000
   42        7.747108   1.000000
   43        8.351127   1.000000
   44        8.959232   1.023311
   45        9.206313  -0.028207
   46        9.340965  -0.000229
   47        9.342424  -0.000212
   48        9.502059  -0.000000
   49        9.517855  -0.000000
   50        9.755926  -0.000000
   51        9.954111  -0.000000
   52        9.993501  -0.000000
   53       10.013036  -0.000000
   54       10.018381  -0.000000
   55       10.142259  -0.000000
   56       10.144943  -0.000000
   57       10.322608  -0.000000
   58       10.373684  -0.000000
   59       10.382395  -0.000000
   60       10.429979  -0.000000

  0.4444444E+00  0.3784822E-15  0.3742002E-15  0.5486968E-02
    1       -4.773830   1.000000
    2       -4.275774   1.000000
    3       -3.052091   1.000000
    4       -2.824169   1.000000
    5       -2.406078   1.000000
    6       -2.405521   1.000000
    7       -1.883735   1.000000
    8       -1.880140   1.000000
    9        0.524030   1.000000
   10        0.533198   1.000000
   11        0.667374   1.000000
   12        0.676166   1.000000
   13        1.289961   1.000000
   14        1.797771   1.000000
   15        1.924510   1.000000
   16        2.023746   1.000000
   17        2.040478   1.000000
   18        2.577872   1.000000
   19        2.675582   1.000000
   20        2.777419   1.000000
   21        2.819965   1.000000
   22        3.584537   1.000000
   23        3.690125   1.000000
   24        3.712836   1.000000
   25        3.853722   1.000000
   26        4.314626   1.000000
   27        4.631221   1.000000
   28        4.683381   1.000000
   29        5.005263   1.000000
   30        5.083744   1.000000
   31        5.177161   1.000000
   32        5.254956   1.000000
   33        5.298817   1.000000
   34        5.420029   1.000000
   35        5.528929   1.000000
   36        5.566730   1.000000
   37        5.918534   1.000000
   38        6.374481   1.000000
   39        7.456390   1.000000
   40        7.458507   1.000000
   41        7.659122   1.000000
   42        7.661401   1.000000
   43        8.664261   1.000000
   44        8.908811   1.028203
   45        8.966694   1.012880
   46        9.038515   0.658028
   47        9.124257   0.052214
   48        9.128034   0.038505
   49        9.835271  -0.000000
   50        9.906967  -0.000000
   51        9.929826  -0.000000
   52        9.997163  -0.000000
   53       10.062336  -0.000000
   54       10.084222  -0.000000
   55       10.122251  -0.000000
   56       10.127568  -0.000000
   57       10.243855  -0.000000
   58       10.364322  -0.000000
   59       10.368389  -0.000000
   60       10.615887  -0.000000

  0.1111111E+00  0.1111111E+00  0.3742002E-15  0.2743484E-02
    1       -5.522723   1.000000
    2       -3.383145   1.000000
    3       -2.627592   1.000000
    4       -2.620327   1.000000
    5       -2.175922   1.000000
    6       -2.040785   1.000000
    7       -1.782368   1.000000
    8       -1.430812   1.000000
    9       -1.253348   1.000000
   10       -0.213124   1.000000
   11       -0.172041   1.000000
   12        0.376514   1.000000
   13        0.432908   1.000000
   14        0.949252   1.000000
   15        0.956372   1.000000
   16        2.731810   1.000000
   17        2.817414   1.000000
   18        3.151645   1.000000
   19        3.198338   1.000000
   20        3.240063   1.000000
   21        3.536283   1.000000
   22        3.821642   1.000000
   23        4.134654   1.000000
   24        4.179716   1.000000
   25        4.360090   1.000000
   26        4.634217   1.000000
   27        4.713473   1.000000
   28        4.770302   1.000000
   29        4.916761   1.000000
   30        4.948336   1.000000
   31        4.962090   1.000000
   32        5.209600   1.000000
   33        5.443585   1.000000
   34        5.727491   1.000000
   35        5.753329   1.000000
   36        5.782161   1.000000
   37        5.942625   1.000000
   38        6.064366   1.000000
   39        6.527057   1.000000
   40        7.506502   1.000000
   41        8.027772   1.000000
   42        8.149193   1.000000
   43        8.596704   1.000000
   44        8.716537   1.000008
   45        8.716849   1.000008
   46        8.888918   1.019140
   47        9.281316  -0.003449
   48        9.667524  -0.000000
   49        9.775576  -0.000000
   50        9.826722  -0.000000
   51        9.881209  -0.000000
   52        9.912063  -0.000000
   53       10.066311  -0.000000
   54       10.092944  -0.000000
   55       10.094413  -0.000000
   56       10.144301  -0.000000
   57       10.179717  -0.000000
   58       10.365767  -0.000000
   59       10.512365  -0.000000
   60       10.529799  -0.000000

  0.2222222E+00  0.1111111E+00  0.3742002E-15  0.5486968E-02
    1       -5.288374   1.000000
    2       -3.323691   1.000000
    3       -3.280577   1.000000
    4       -2.863340   1.000000
    5       -2.389725   1.000000
    6       -2.167249   1.000000
    7       -1.657423   1.000000
    8       -1.562695   1.000000
    9       -0.767062   1.000000
   10        0.281849   1.000000
   11        0.306451   1.000000
   12        0.596656   1.000000
   13        0.759693   1.000000
   14        1.105380   1.000000
   15        1.551071   1.000000
   16        2.400554   1.000000
   17        2.633209   1.000000
   18        2.815957   1.000000
   19        2.860352   1.000000
   20        3.252471   1.000000
   21        3.385356   1.000000
   22        3.422454   1.000000
   23        3.875508   1.000000
   24        3.972682   1.000000
   25        4.330501   1.000000
   26        4.643792   1.000000
   27        4.650757   1.000000
   28        4.681665   1.000000
   29        4.749232   1.000000
   30        5.110165   1.000000
   31        5.126277   1.000000
   32        5.195907   1.000000
   33        5.345167   1.000000
   34        5.367284   1.000000
   35        5.596477   1.000000
   36        5.795944   1.000000
   37        5.804389   1.000000
   38        6.401040   1.000000
   39        7.137920   1.000000
   40        7.181759   1.000000
   41        7.604108   1.000000
   42        8.240917   1.000000
   43        8.317674   1.000000
   44        8.769947   1.000184
   45        9.208233  -0.027353
   46        9.268425  -0.005542
   47        9.550078  -0.000000
   48        9.579958  -0.000000
   49        9.679794  -0.000000
   50        9.727030  -0.000000
   51        9.755278  -0.000000
   52        9.793118  -0.000000
   53       10.027398  -0.000000
   54       10.079105  -0.000000
   55       10.129244  -0.000000
   56       10.130271  -0.000000
   57       10.253257  -0.000000
   58       10.294252  -0.000000
   59       10.359744  -0.000000
   60       10.450225  -0.000000

  0.3333333E+00  0.1111111E+00  0.3742002E-15  0.5486968E-02
    1       -4.943325   1.000000
    2       -3.951347   1.000000
    3       -3.126913   1.000000
    4       -3.007543   1.000000
    5       -2.673866   1.000000
    6       -2.198484   1.000000
    7       -1.691917   1.000000
    8       -1.560609   1.000000
    9       -0.169394   1.000000
   10        0.176799   1.000000
   11        0.806427   1.000000
   12        1.097379   1.000000
   13        1.217218   1.000000
   14        1.552374   1.000000
   15        1.658259   1.000000
   16        2.249791   1.000000
   17        2.283920   1.000000
   18        2.550066   1.000000
   19        2.806976   1.000000
   20        2.872700   1.000000
   21        3.044383   1.000000
   22        3.315675   1.000000
   23        3.649321   1.000000
   24        3.939513   1.000000
   25        4.054316   1.000000
   26        4.467777   1.000000
   27        4.499097   1.000000
   28        4.586488   1.000000
   29        4.629242   1.000000
   30        5.119763   1.000000
   31        5.172643   1.000000
   32        5.195872   1.000000
   33        5.336260   1.000000
   34        5.525074   1.000000
   35        5.566233   1.000000
   36        5.789958   1.000000
   37        5.830153   1.000000
   38        6.546439   1.000000
   39        7.087379   1.000000
   40        7.151484   1.000000
   41        7.814945   1.000000
   42        7.995419   1.000000
   43        8.541712   1.000000
   44        8.877617   1.014451
   45        9.108182   0.126538
   46        9.164564  -0.030948
   47        9.165701  -0.031639
   48        9.360936  -0.000077
   49        9.717131  -0.000000
   50        9.817359  -0.000000
   51        9.834807  -0.000000
   52        9.970744  -0.000000
   53       10.020191  -0.000000
   54       10.084035  -0.000000
   55       10.115436  -0.000000
   56       10.127389  -0.000000
   57       10.197516  -0.000000
   58       10.284492  -0.000000
   59       10.379747  -0.000000
   60       10.469931  -0.000000

  0.4444444E+00  0.1111111E+00  0.3742002E-15  0.5486968E-02
    1       -4.494818   1.000000
    2       -4.494685   1.000000
    3       -3.055393   1.000000
    4       -2.927374   1.000000
    5       -2.923391   1.000000
    6       -2.203491   1.000000
    7       -1.736232   1.000000
    8       -1.524453   1.000000
    9        0.144513   1.000000
   10        0.202923   1.000000
   11        1.096568   1.000000
   12        1.234966   1.000000
   13        1.256051   1.000000
   14        1.613835   1.000000
   15        1.652273   1.000000
   16        2.371460   1.000000
   17        2.383927   1.000000
   18        2.496417   1.000000
   19        2.504037   1.000000
   20        2.875171   1.000000
   21        3.105297   1.000000
   22        3.109399   1.000000
   23        3.176544   1.000000
   24        3.998472   1.000000
   25        4.038015   1.000000
   26        4.108504   1.000000
   27        4.505046   1.000000
   28        4.522404   1.000000
   29        4.742567   1.000000
   30        5.126286   1.000000
   31        5.180398   1.000000
   32        5.269649   1.000000
   33        5.305303   1.000000
   34        5.464146   1.000000
   35        5.752585   1.000000
   36        5.788054   1.000000
   37        6.121607   1.000000
   38        6.128347   1.000000
   39        6.960479   1.000000
   40        7.302384   1.000000
   41        7.864128   1.000000
   42        8.221718   1.000000
   43        8.777869   1.000278
   44        8.865620   1.010280
   45        8.989109   0.954372
   46        8.992325   0.942149
   47        8.996552   0.924516
   48        9.027322   0.743434
   49        9.788372  -0.000000
   50        9.797181  -0.000000
   51        9.898443  -0.000000
   52        9.907365  -0.000000
   53       10.040863  -0.000000
   54       10.077642  -0.000000
   55       10.120615  -0.000000
   56       10.202970  -0.000000
   57       10.213177  -0.000000
   58       10.265978  -0.000000
   59       10.363231  -0.000000
   60       10.371130  -0.000000

 -0.4444444E+00  0.1111111E+00  0.3742002E-15  0.5486968E-02
    1       -4.943360   1.000000
    2       -3.951811   1.000000
    3       -3.132984   1.000000
    4       -3.006548   1.000000
    5       -2.676022   1.000000
    6       -2.188204   1.000000
    7       -1.693396   1.000000
    8       -1.560470   1.000000
    9       -0.177367   1.000000
   10        0.192563   1.000000
   11        0.829853   1.000000
   12        1.081895   1.000000
   13        1.211228   1.000000
   14        1.523919   1.000000
   15        1.736415   1.000000
   16        2.191088   1.000000
   17        2.201165   1.000000
   18        2.630185   1.000000
   19        2.813304   1.000000
   20        2.903123   1.000000
   21        3.133388   1.000000
   22        3.184824   1.000000
   23        3.582180   1.000000
   24        3.944547   1.000000
   25        4.077865   1.000000
   26        4.427140   1.000000
   27        4.526834   1.000000
   28        4.543990   1.000000
   29        4.856633   1.000000
   30        5.055801   1.000000
   31        5.079919   1.000000
   32        5.105236   1.000000
   33        5.411762   1.000000
   34        5.557101   1.000000
   35        5.622467   1.000000
   36        5.761912   1.000000
   37        5.805671   1.000000
   38        6.581484   1.000000
   39        7.068958   1.000000
   40        7.152456   1.000000
   41        7.790906   1.000000
   42        7.989068   1.000000
   43        8.563872   1.000000
   44        8.873582   1.012947
   45        9.112618   0.103430
   46        9.152336  -0.018813
   47        9.176567  -0.035263
   48        9.362111  -0.000072
   49        9.711050  -0.000000
   50        9.813637  -0.000000
   51        9.846030  -0.000000
   52        9.982763  -0.000000
   53       10.040054  -0.000000
   54       10.079715  -0.000000
   55       10.093767  -0.000000
   56       10.146938  -0.000000
   57       10.198370  -0.000000
   58       10.273850  -0.000000
   59       10.356962  -0.000000
   60       10.452536  -0.000000

 -0.3333333E+00  0.1111111E+00  0.3742002E-15  0.5486968E-02
    1       -5.288469   1.000000
    2       -3.324741   1.000000
    3       -3.286326   1.000000
    4       -2.861364   1.000000
    5       -2.403503   1.000000
    6       -2.152706   1.000000
    7       -1.644449   1.000000
    8       -1.566242   1.000000
    9       -0.771712   1.000000
   10        0.300414   1.000000
   11        0.327251   1.000000
   12        0.589847   1.000000
   13        0.754670   1.000000
   14        1.100645   1.000000
   15        1.502389   1.000000
   16        2.453226   1.000000
   17        2.675650   1.000000
   18        2.796100   1.000000
   19        2.927676   1.000000
   20        3.249196   1.000000
   21        3.265540   1.000000
   22        3.407829   1.000000
   23        3.735407   1.000000
   24        4.030658   1.000000
   25        4.302247   1.000000
   26        4.579322   1.000000
   27        4.665229   1.000000
   28        4.903106   1.000000
   29        4.982011   1.000000
   30        4.991222   1.000000
   31        4.995775   1.000000
   32        5.170679   1.000000
   33        5.334582   1.000000
   34        5.379332   1.000000
   35        5.534539   1.000000
   36        5.782347   1.000000
   37        5.830238   1.000000
   38        6.554735   1.000000
   39        7.011905   1.000000
   40        7.181295   1.000000
   41        7.605990   1.000000
   42        8.261806   1.000000
   43        8.311158   1.000000
   44        8.765577   1.000145
   45        9.213063  -0.025149
   46        9.284365  -0.003064
   47        9.556443  -0.000000
   48        9.576392  -0.000000
   49        9.661486  -0.000000
   50        9.722453  -0.000000
   51        9.757158  -0.000000
   52        9.792373  -0.000000
   53       10.049021  -0.000000
   54       10.058019  -0.000000
   55       10.119761  -0.000000
   56       10.167641  -0.000000
   57       10.257633  -0.000000
   58       10.287078  -0.000000
   59       10.372955  -0.000000
   60       10.434964  -0.000000

 -0.2222222E+00  0.1111111E+00  0.3742002E-15  0.5486968E-02
    1       -5.522807   1.000000
    2       -3.387122   1.000000
    3       -2.626097   1.000000
    4       -2.621018   1.000000
    5       -2.160073   1.000000
    6       -2.095001   1.000000
    7       -1.727129   1.000000
    8       -1.442641   1.000000
    9       -1.247901   1.000000
   10       -0.191235   1.000000
   11       -0.180372   1.000000
   12        0.369750   1.000000
   13        0.439097   1.000000
   14        0.926556   1.000000
   15        0.950973   1.000000
   16        2.762546   1.000000
   17        2.925178   1.000000
   18        3.078771   1.000000
   19        3.248578   1.000000
   20        3.264470   1.000000
   21        3.380097   1.000000
   22        3.780141   1.000000
   23        4.053286   1.000000
   24        4.180052   1.000000
   25        4.423828   1.000000
   26        4.632471   1.000000
   27        4.776015   1.000000
   28        4.871495   1.000000
   29        4.874325   1.000000
   30        4.944049   1.000000
   31        5.023507   1.000000
   32        5.104625   1.000000
   33        5.311391   1.000000
   34        5.730146   1.000000
   35        5.817931   1.000000
   36        5.892417   1.000000
   37        5.999493   1.000000
   38        6.081869   1.000000
   39        6.418363   1.000000
   40        7.492457   1.000000
   41        8.036898   1.000000
   42        8.146512   1.000000
   43        8.651875   1.000000
   44        8.672861   1.000000
   45        8.722264   1.000011
   46        8.867288   1.010805
   47        9.287280  -0.002731
   48        9.667922  -0.000000
   49        9.776432  -0.000000
   50        9.825433  -0.000000
   51        9.891958  -0.000000
   52        9.898196  -0.000000
   53       10.068585  -0.000000
   54       10.090629  -0.000000
   55       10.106298  -0.000000
   56       10.131488  -0.000000
   57       10.196417  -0.000000
   58       10.423730  -0.000000
   59       10.435151  -0.000000
   60       10.558632  -0.000000

 -0.1111111E+00  0.1111111E+00  0.3742002E-15  0.2743484E-02
    1       -5.641287   1.000000
    2       -3.436357   1.000000
    3       -2.288060   1.000000
    4       -2.061405   1.000000
    5       -2.012816   1.000000
    6       -1.911517   1.000000
    7       -1.837857   1.000000
    8       -1.753651   1.000000
    9       -1.024300   1.000000
   10       -1.013100   1.000000
   11       -0.635549   1.000000
   12        0.208151   1.000000
   13        0.537183   1.000000
   14        0.645564   1.000000
   15        0.781632   1.000000
   16        2.780253   1.000000
   17        2.888381   1.000000
   18        3.068875   1.000000
   19        3.404127   1.000000
   20        3.505283   1.000000
   21        3.806601   1.000000
   22        4.055073   1.000000
   23        4.135158   1.000000
   24        4.593689   1.000000
   25        4.605294   1.000000
   26        4.621443   1.000000
   27        4.784479   1.000000
   28        4.818548   1.000000
   29        4.824824   1.000000
   30        4.887714   1.000000
   31        4.961988   1.000000
   32        5.023287   1.000000
   33        5.063578   1.000000
   34        5.634597   1.000000
   35        5.722404   1.000000
   36        5.770927   1.000000
   37        6.241172   1.000000
   38        6.396510   1.000000
   39        6.487541   1.000000
   40        7.735947   1.000000
   41        7.917410   1.000000
   42        8.152553   1.000000
   43        8.224014   1.000000
   44        8.611979   1.000000
   45        8.680984   1.000001
   46        8.838289   1.004085
   47        9.325504  -0.000501
   48        9.490348  -0.000000
   49        9.637058  -0.000000
   50        9.942020  -0.000000
   51        9.987114  -0.000000
   52       10.010642  -0.000000
   53       10.096463  -0.000000
   54       10.144463  -0.000000
   55       10.156834  -0.000000
   56       10.205267  -0.000000
   57       10.257781  -0.000000
   58       10.315086  -0.000000
   59       10.558481  -0.000000
   60       10.603908  -0.000000

  0.2222222E+00  0.2222222E+00  0.3742002E-15  0.2743484E-02
    1       -5.000157   1.000000
    2       -3.542245   1.000000
    3       -3.509927   1.000000
    4       -3.151775   1.000000
    5       -2.504397   1.000000
    6       -2.423711   1.000000
    7       -1.398577   1.000000
    8       -0.972217   1.000000
    9       -0.895742   1.000000
   10       -0.044114   1.000000
   11        0.967261   1.000000
   12        1.150522   1.000000
   13        1.221392   1.000000
   14        1.580208   1.000000
   15        1.615254   1.000000
   16        1.934458   1.000000
   17        2.507703   1.000000
   18        2.624808   1.000000
   19        2.731613   1.000000
   20        2.980720   1.000000
   21        3.358572   1.000000
   22        3.513649   1.000000
   23        3.521094   1.000000
   24        3.780929   1.000000
   25        4.076254   1.000000
   26        4.315801   1.000000
   27        4.497371   1.000000
   28        4.510583   1.000000
   29        4.555241   1.000000
   30        5.130543   1.000000
   31        5.131616   1.000000
   32        5.319447   1.000000
   33        5.375389   1.000000
   34        5.387195   1.000000
   35        5.568136   1.000000
   36        5.835978   1.000000
   37        6.284357   1.000000
   38        6.365298   1.000000
   39        6.833672   1.000000
   40        7.034137   1.000000
   41        7.841994   1.000000
   42        8.494849   1.000000
   43        8.498473   1.000000
   44        8.502530   1.000000
   45        9.077226   0.337143
   46        9.392111  -0.000012
   47        9.399867  -0.000007
   48        9.479431  -0.000000
   49        9.664533  -0.000000
   50        9.704248  -0.000000
   51        9.734600  -0.000000
   52        9.801965  -0.000000
   53        9.933300  -0.000000
   54       10.007368  -0.000000
   55       10.118303  -0.000000
   56       10.132991  -0.000000
   57       10.173542  -0.000000
   58       10.346656  -0.000000
   59       10.387994  -0.000000
   60       10.415939  -0.000000

  0.3333333E+00  0.2222222E+00  0.3742002E-15  0.5486968E-02
    1       -4.605144   1.000000
    2       -4.111409   1.000000
    3       -3.626180   1.000000
    4       -2.972551   1.000000
    5       -2.761651   1.000000
    6       -2.474985   1.000000
    7       -1.183870   1.000000
    8       -1.030067   1.000000
    9       -0.308593   1.000000
   10       -0.288478   1.000000
   11        0.866288   1.000000
   12        1.463756   1.000000
   13        1.571779   1.000000
   14        1.846721   1.000000
   15        1.964387   1.000000
   16        2.081234   1.000000
   17        2.429287   1.000000
   18        2.570112   1.000000
   19        2.576269   1.000000
   20        2.749686   1.000000
   21        3.101993   1.000000
   22        3.181325   1.000000
   23        3.311997   1.000000
   24        3.742019   1.000000
   25        3.952330   1.000000
   26        4.062765   1.000000
   27        4.241799   1.000000
   28        4.402642   1.000000
   29        4.534942   1.000000
   30        5.133515   1.000000
   31        5.232965   1.000000
   32        5.338855   1.000000
   33        5.361754   1.000000
   34        5.649026   1.000000
   35        5.678333   1.000000