   57   57    1    1
  0.1298906E+02  0.6042588E-09  0.6042559E-09  0.2341357E-08  0.5000000E-15
   1.0000000000000000E-004
  CAR 
 Name                                    
    199     41    132

  0.3742002E-15  0.3742002E-15  0.1262379E-14  0.1234568E-01
    1      -11.499234   1.000000
    2      -10.930170   1.000000
    3      -10.192929   1.000000
    4       -9.446024   1.000000
    5       -8.691608   1.000000
    6       -8.202210   1.000000
    7       -8.031414   1.000000
    8       -7.918265   1.000000
    9       -7.725942   1.000000
   10       -7.667135   1.000000
   11       -7.650091   1.000000
   12       -7.548013   1.000000
   13       -7.543357   1.000000
   14       -7.483549   1.000000
   15       -7.361356   1.000000
   16       -7.297855   1.000000
   17       -7.239897   1.000000
   18       -7.157147   1.000000
   19       -7.073373   1.000000
   20       -6.996645   1.000000
   21       -6.768632   1.000000
   22       -6.582704   1.000000
   23       -6.214009   1.000000
   24       -6.043661   1.000000
   25       -5.853187   1.000000
   26       -5.798364   1.000000
   27       -5.733883   1.000000
   28       -5.728652   1.000000
   29       -5.595759   1.000000
   30       -5.551511   1.000000
   31       -5.099447   1.000000
   32       -4.679526   1.000000
   33       -4.539532   1.000000
   34       -4.509004   1.000000
   35       -4.399625   1.000000
   36       -4.184221   1.000000
   37       -4.059970   1.000000
   38       -3.143829   1.000000
   39       -3.124014   1.000000
   40       -3.043636   1.000000
   41       -2.751372   1.000000
   42       -2.663490   1.000000
   43       -2.623156   1.000000
   44       -2.434766   1.000000
   45       -2.293573   1.000000
   46       -2.270561   1.000000
   47       -2.023200   1.000000
   48       -1.969351   1.000000
   49       -1.897544   1.000000
   50       -1.872742   1.000000
   51       -1.787944   1.000000
   52       -1.598026   1.000000
   53       -1.573119   1.000000
   54       -1.567159   1.000000
   55       -1.537257   1.000000
   56       -1.362021   1.000000
   57       -1.348422   1.000000
   58       -1.311848   1.000000
   59       -1.303117   1.000000
   60       -1.259602   1.000000
   61       -1.186430   1.000000
   62       -1.129440   1.000000
   63       -1.096614   1.000000
   64       -0.947851   1.000000
   65       -0.917978   1.000000
   66       -0.759925   1.000000
   67       -0.723596   1.000000
   68       -0.707462   1.000000
   69       -0.642488   1.000000
   70       -0.555628   1.000000
   71       -0.463325   1.000000
   72       -0.444174   1.000000
   73       -0.299371   1.000000
   74       -0.138822   1.000000
   75       -0.128224   1.000000
   76       -0.079090   1.000000
   77       -0.073485   1.000000
   78        0.003244   1.000000
   79        0.047956   1.000000
   80        0.218337   1.000000
   81        0.370135   1.000000
   82        0.617205   1.000000
   83        0.663801   1.000000
   84        0.895258   1.000000
   85        0.980950   1.000000
   86        1.366738   1.000000
   87        1.370340   1.000000
   88        1.499254   1.000000
   89        1.501196   1.000000
   90        1.608376   1.000000
   91        1.649008   1.000000
   92        1.686556   1.000000
   93        1.724253   1.000000
   94        1.745706   1.000000
   95        1.816831   1.000000
   96        1.875543   1.000003
   97        2.172759   1.005836
   98        2.420154   1.003184
   99        2.723822   0.054275
  100        2.842342  -0.035330
  101        2.898884  -0.025983
  102        3.063167  -0.002130
  103        3.104184  -0.000868
  104        3.104591  -0.000860
  105        3.313654  -0.000002
  106        3.341198  -0.000001
  107        3.429065  -0.000000
  108        3.463950  -0.000000
  109        3.595737  -0.000000
  110        3.625346  -0.000000
  111        3.727410  -0.000000
  112        3.765913  -0.000000
  113        3.815332  -0.000000
  114        3.840947  -0.000000
  115        3.875078  -0.000000
  116        3.919108  -0.000000
  117        3.945436  -0.000000
  118        4.009918  -0.000000
  119        4.059599  -0.000000
  120        4.167271  -0.000000
  121        4.210804  -0.000000
  122        4.279463  -0.000000
  123        4.310298  -0.000000
  124        4.397285  -0.000000
  125        4.902280  -0.000000
  126        5.082197  -0.000000
  127        5.983590  -0.000000
  128        6.205110  -0.000000
  129        6.272576  -0.000000
  130        6.324899  -0.000000
  131        6.396696  -0.000000
  132        6.575030  -0.000000

  0.1111111E+00  0.3867788E-15  0.1262378E-14  0.2469136E-01
    1      -11.441940   1.000000
    2      -10.877294   1.000000
    3      -10.148778   1.000000
    4       -9.409998   1.000000
    5       -8.655259   1.000000
    6       -8.261887   1.000000
    7       -8.234003   1.000000
    8       -8.133828   1.000000
    9       -8.057250   1.000000
   10       -7.852232   1.000000
   11       -7.831299   1.000000
   12       -7.722174   1.000000
   13       -7.695668   1.000000
   14       -7.562514   1.000000
   15       -7.498444   1.000000
   16       -7.153980   1.000000
   17       -7.021613   1.000000
   18       -6.984718   1.000000
   19       -6.730972   1.000000
   20       -6.703871   1.000000
   21       -6.642880   1.000000
   22       -6.410690   1.000000
   23       -6.110067   1.000000
   24       -6.068467   1.000000
   25       -5.881255   1.000000
   26       -5.804499   1.000000
   27       -5.777434   1.000000
   28       -5.653309   1.000000
   29       -5.496012   1.000000
   30       -5.392091   1.000000
   31       -5.048576   1.000000
   32       -4.510505   1.000000
   33       -4.444156   1.000000
   34       -4.408824   1.000000
   35       -4.239174   1.000000
   36       -4.142076   1.000000
   37       -3.895703   1.000000
   38       -3.140384   1.000000
   39       -3.125630   1.000000
   40       -3.008383   1.000000
   41       -2.756701   1.000000
   42       -2.734134   1.000000
   43       -2.676055   1.000000
   44       -2.494659   1.000000
   45       -2.340877   1.000000
   46       -2.321357   1.000000
   47       -2.208258   1.000000
   48       -2.060675   1.000000
   49       -1.961519   1.000000
   50       -1.878176   1.000000
   51       -1.818610   1.000000
   52       -1.729945   1.000000
   53       -1.600162   1.000000
   54       -1.570626   1.000000
   55       -1.558588   1.000000
   56       -1.410520   1.000000
   57       -1.380534   1.000000
   58       -1.338963   1.000000
   59       -1.301426   1.000000
   60       -1.274905   1.000000
   61       -1.193713   1.000000
   62       -1.150445   1.000000
   63       -1.085507   1.000000
   64       -1.030999   1.000000
   65       -0.980444   1.000000
   66       -0.820842   1.000000
   67       -0.789459   1.000000
   68       -0.717459   1.000000
   69       -0.668239   1.000000
   70       -0.548042   1.000000
   71       -0.507726   1.000000
   72       -0.443989   1.000000
   73       -0.307520   1.000000
   74       -0.201787   1.000000
   75       -0.167328   1.000000
   76       -0.110796   1.000000
   77       -0.001259   1.000000
   78        0.044294   1.000000
   79        0.104052   1.000000
   80        0.253259   1.000000
   81        0.311665   1.000000
   82        0.393929   1.000000
   83        0.674732   1.000000
   84        0.730760   1.000000
   85        0.852672   1.000000
   86        1.194986   1.000000
   87        1.253248   1.000000
   88        1.462013   1.000000
   89        1.539213   1.000000
   90        1.564842   1.000000
   91        1.584011   1.000000
   92        1.616029   1.000000
   93        1.636384   1.000000
   94        1.707403   1.000000
   95        1.895113   1.000005
   96        2.035834   1.000305
   97        2.320359   1.033259
   98        2.601638   0.457218
   99        2.787313  -0.022808
  100        2.805895  -0.031070
  101        2.907015  -0.024107
  102        2.977469  -0.009964
  103        3.011261  -0.005736
  104        3.109948  -0.000760
  105        3.203003  -0.000067
  106        3.419632  -0.000000
  107        3.535898  -0.000000
  108        3.581361  -0.000000
  109        3.605394  -0.000000
  110        3.621426  -0.000000
  111        3.702342  -0.000000
  112        3.760469  -0.000000
  113        3.782105  -0.000000
  114        3.816256  -0.000000
  115        3.841810  -0.000000
  116        3.854921  -0.000000
  117        3.920575  -0.000000
  118        3.945646  -0.000000
  119        3.976969  -0.000000
  120        4.042612  -0.000000
  121        4.089383  -0.000000
  122        4.167512  -0.000000
  123        4.266510  -0.000000
  124        4.304276  -0.000000
  125        4.394026  -0.000000
  126        4.531277  -0.000000
  127        4.913504  -0.000000
  128        5.064880  -0.000000
  129        6.124481  -0.000000
  130        6.346789  -0.000000
  131        6.438415  -0.000000
  132        6.532784  -0.000000

  0.2222222E+00  0.3825705E-15  0.1262378E-14  0.2469136E-01
    1      -11.272043   1.000000
    2      -10.720770   1.000000
    3      -10.018899   1.000000
    4       -9.305099   1.000000
    5       -8.909932   1.000000
    6       -8.633715   1.000000
    7       -8.550156   1.000000
    8       -8.463139   1.000000
    9       -8.137324   1.000000
   10       -8.092304   1.000000
   11       -7.998815   1.000000
   12       -7.963790   1.000000
   13       -7.885362   1.000000
   14       -7.778730   1.000000
   15       -7.664786   1.000000
   16       -7.204644   1.000000
   17       -6.909427   1.000000
   18       -6.596915   1.000000
   19       -6.573976   1.000000
   20       -6.442518   1.000000
   21       -6.367022   1.000000
   22       -6.166259   1.000000
   23       -5.923086   1.000000
   24       -5.835390   1.000000
   25       -5.710833   1.000000
   26       -5.650872   1.000000
   27       -5.583421   1.000000
   28       -5.426596   1.000000
   29       -5.132485   1.000000
   30       -5.048681   1.000000
   31       -4.856249   1.000000
   32       -4.275372   1.000000
   33       -4.249390   1.000000
   34       -4.221416   1.000000
   35       -4.004611   1.000000
   36       -3.721202   1.000000
   37       -3.519006   1.000000
   38       -3.176376   1.000000
   39       -3.157958   1.000000
   40       -3.028205   1.000000
   41       -2.966512   1.000000
   42       -2.889125   1.000000
   43       -2.792914   1.000000
   44       -2.681700   1.000000
   45       -2.667017   1.000000
   46       -2.464916   1.000000
   47       -2.327005   1.000000
   48       -2.184112   1.000000
   49       -2.087451   1.000000
   50       -1.951786   1.000000
   51       -1.874407   1.000000
   52       -1.848089   1.000000
   53       -1.686435   1.000000
   54       -1.654749   1.000000
   55       -1.588402   1.000000
   56       -1.572074   1.000000
   57       -1.475262   1.000000
   58       -1.443917   1.000000
   59       -1.387649   1.000000
   60       -1.318043   1.000000
   61       -1.279288   1.000000
   62       -1.247552   1.000000
   63       -1.217853   1.000000
   64       -1.118216   1.000000
   65       -1.004927   1.000000
   66       -0.958443   1.000000
   67       -0.936304   1.000000
   68       -0.831199   1.000000
   69       -0.789831   1.000000
   70       -0.707898   1.000000
   71       -0.540709   1.000000
   72       -0.502100   1.000000
   73       -0.386086   1.000000
   74       -0.296615   1.000000
   75       -0.263924   1.000000
   76       -0.116409   1.000000
   77       -0.059780   1.000000
   78        0.021540   1.000000
   79        0.105034   1.000000
   80        0.210571   1.000000
   81        0.299395   1.000000
   82        0.459142   1.000000
   83        0.513792   1.000000
   84        0.683131   1.000000
   85        0.782318   1.000000
   86        0.876399   1.000000
   87        1.092827   1.000000
   88        1.337166   1.000000
   89        1.389070   1.000000
   90        1.518447   1.000000
   91        1.546305   1.000000
   92        1.572469   1.000000
   93        1.595697   1.000000
   94        1.628907   1.000000
   95        2.013849   1.000172
   96        2.105803   1.001584
   97        2.241874   1.016499
   98        2.501147   0.842506
   99        2.626121   0.355964
  100        2.791567  -0.025155
  101        2.962076  -0.012485
  102        3.024938  -0.004491
  103        3.190546  -0.000096
  104        3.271649  -0.000008
  105        3.312348  -0.000002
  106        3.435959  -0.000000
  107        3.453870  -0.000000
  108        3.485993  -0.000000
  109        3.513443  -0.000000
  110        3.539556  -0.000000
  111        3.609313  -0.000000
  112        3.692011  -0.000000
  113        3.736846  -0.000000
  114        3.770962  -0.000000
  115        3.803706  -0.000000
  116        3.814155  -0.000000
  117        3.850452  -0.000000
  118        3.916337  -0.000000
  119        4.007045  -0.000000
  120        4.042426  -0.000000
  121        4.072738  -0.000000
  122        4.090345  -0.000000
  123        4.157225  -0.000000
  124        4.204227  -0.000000
  125        4.342392  -0.000000
  126        4.420574  -0.000000
  127        4.483427  -0.000000
  128        4.591879  -0.000000
  129        4.670201  -0.000000
  130        4.905214  -0.000000
  131        6.189937  -0.000000
  132        6.510872  -0.000000

  0.3333333E+00  0.3885513E-15  0.1262378E-14  0.2469136E-01
    1      -10.996528   1.000000
    2      -10.467468   1.000000
    3       -9.812344   1.000000
    4       -9.536881   1.000000
    5       -9.180373   1.000000
    6       -9.112818   1.000000
    7       -8.816870   1.000000
    8       -8.365098   1.000000
    9       -8.267225   1.000000
   10       -8.206347   1.000000
   11       -8.168195   1.000000
   12       -8.133607   1.000000
   13       -8.071000   1.000000
   14       -7.977644   1.000000
   15       -7.704354   1.000000
   16       -7.321013   1.000000
   17       -7.264924   1.000000
   18       -6.397885   1.000000
   19       -6.390035   1.000000
   20       -6.325958   1.000000
   21       -5.932834   1.000000
   22       -5.917365   1.000000
   23       -5.703324   1.000000
   24       -5.679702   1.000000
   25       -5.647845   1.000000
   26       -5.341122   1.000000
   27       -4.904320   1.000000
   28       -4.822590   1.000000
   29       -4.746289   1.000000
   30       -4.589394   1.000000
   31       -4.418351   1.000000
   32       -4.053889   1.000000
   33       -3.985508   1.000000
   34       -3.950765   1.000000
   35       -3.760395   1.000000
   36       -3.580714   1.000000
   37       -3.463800   1.000000
   38       -3.393647   1.000000
   39       -3.357506   1.000000
   40       -3.271252   1.000000
   41       -3.244274   1.000000
   42       -3.197202   1.000000
   43       -2.950590   1.000000
   44       -2.655985   1.000000
   45       -2.532055   1.000000
   46       -2.497352   1.000000
   47       -2.410498   1.000000
   48       -2.214553   1.000000
   49       -2.178240   1.000000
   50       -2.160443   1.000000
   51       -2.049005   1.000000
   52       -1.982612   1.000000
   53       -1.870326   1.000000
   54       -1.842995   1.000000
   55       -1.825173   1.000000
   56       -1.718130   1.000000
   57       -1.654255   1.000000
   58       -1.578740   1.000000
   59       -1.490485   1.000000
   60       -1.473385   1.000000
   61       -1.388776   1.000000
   62       -1.358251   1.000000
   63       -1.328963   1.000000
   64       -1.261298   1.000000
   65       -1.213655   1.000000
   66       -1.176040   1.000000
   67       -1.009420   1.000000
   68       -0.935363   1.000000
   69       -0.779234   1.000000
   70       -0.737559   1.000000
   71       -0.647574   1.000000
   72       -0.550831   1.000000
   73       -0.514175   1.000000
   74       -0.385145   1.000000
   75       -0.326721   1.000000
   76       -0.161120   1.000000
   77       -0.132705   1.000000
   78       -0.027407   1.000000
   79        0.038444   1.000000
   80        0.204401   1.000000
   81        0.270327   1.000000
   82        0.363623   1.000000
   83        0.589877   1.000000
   84        0.618971   1.000000
   85        0.828470   1.000000
   86        0.888612   1.000000
   87        1.027787   1.000000
   88        1.257690   1.000000
   89        1.275191   1.000000
   90        1.402988   1.000000
   91        1.459108   1.000000
   92        1.536145   1.000000
   93        1.585768   1.000000
   94        1.683451   1.000000
   95        1.883325   1.000003
   96        2.080136   1.000895
   97        2.270969   1.022940
   98        2.361533   1.034504
   99        2.447924   0.965982
  100        2.715839   0.070516
  101        2.834381  -0.035441
  102        2.945669  -0.015580
  103        3.044662  -0.003091
  104        3.124884  -0.000532
  105        3.200237  -0.000073
  106        3.263429  -0.000011
  107        3.357779  -0.000000
  108        3.423116  -0.000000
  109        3.477634  -0.000000
  110        3.504618  -0.000000
  111        3.606458  -0.000000
  112        3.632434  -0.000000
  113        3.655370  -0.000000
  114        3.708360  -0.000000
  115        3.721084  -0.000000
  116        3.849406  -0.000000
  117        3.907302  -0.000000
  118        3.919965  -0.000000
  119        3.989718  -0.000000
  120        4.045679  -0.000000
  121        4.092782  -0.000000
  122        4.157022  -0.000000
  123        4.189241  -0.000000
  124        4.209227  -0.000000
  125        4.342144  -0.000000
  126        4.389038  -0.000000
  127        4.418892  -0.000000
  128        4.532102  -0.000000
  129        4.620946  -0.000000
  130        4.714601  -0.000000
  131        4.883993  -0.000000
  132        5.133925  -0.000000

  0.4444444E+00  0.3777319E-15  0.1262376E-14  0.2469136E-01
    1      -10.642724   1.000000
    2      -10.144888   1.000000
    3      -10.056114   1.000000
    4       -9.681635   1.000000
    5       -9.500931   1.000000
    6       -9.189988   1.000000
    7       -8.895169   1.000000
    8       -8.488400   1.000000
    9       -8.360859   1.000000
   10       -8.271966   1.000000
   11       -8.234637   1.000000
   12       -8.133214   1.000000
   13       -8.056391   1.000000
   14       -8.028050   1.000000
   15       -7.727220   1.000000
   16       -7.707047   1.000000
   17       -7.297130   1.000000
   18       -6.361272   1.000000
   19       -6.350604   1.000000
   20       -6.340723   1.000000
   21       -5.709834   1.000000
   22       -5.579835   1.000000
   23       -5.570625   1.000000
   24       -5.407760   1.000000
   25       -5.388690   1.000000
   26       -5.142864   1.000000
   27       -4.538548   1.000000
   28       -4.367622   1.000000
   29       -4.166156   1.000000
   30       -4.094705   1.000000
   31       -4.018450   1.000000
   32       -3.985156   1.000000
   33       -3.880938   1.000000
   34       -3.823779   1.000000
   35       -3.747862   1.000000
   36       -3.675954   1.000000
   37       -3.647757   1.000000
   38       -3.624545   1.000000
   39       -3.568016   1.000000
   40       -3.434026   1.000000
   41       -3.331612   1.000000
   42       -3.296237   1.000000
   43       -3.127003   1.000000
   44       -2.947242   1.000000
   45       -2.733789   1.000000
   46       -2.554419   1.000000
   47       -2.404643   1.000000
   48       -2.267863   1.000000
   49       -2.208580   1.000000
   50       -2.187491   1.000000
   51       -2.050874   1.000000
   52       -2.008114   1.000000
   53       -1.966946   1.000000
   54       -1.902975   1.000000
   55       -1.885554   1.000000
   56       -1.820991   1.000000
   57       -1.770485   1.000000
   58       -1.688593   1.000000
   59       -1.610282   1.000000
   60       -1.565916   1.000000
   61       -1.448876   1.000000
   62       -1.408816   1.000000
   63       -1.386114   1.000000
   64       -1.348068   1.000000
   65       -1.324877   1.000000
   66       -1.246108   1.000000
   67       -1.170620   1.000000
   68       -1.128947   1.000000
   69       -0.926645   1.000000
   70       -0.769997   1.000000
   71       -0.678305   1.000000
   72       -0.588328   1.000000
   73       -0.528033   1.000000
   74       -0.416928   1.000000
   75       -0.284635   1.000000
   76       -0.194291   1.000000
   77       -0.113406   1.000000
   78       -0.058427   1.000000
   79        0.010731   1.000000
   80        0.053670   1.000000
   81        0.304742   1.000000
   82        0.379072   1.000000
   83        0.488058   1.000000
   84        0.721878   1.000000
   85        0.767719   1.000000
   86        0.934005   1.000000
   87        1.070664   1.000000
   88        1.147815   1.000000
   89        1.255626   1.000000
   90        1.344551   1.000000
   91        1.371134   1.000000
   92        1.523977   1.000000
   93        1.609135   1.000000
   94        1.778358   1.000000
   95        1.983932   1.000075
   96        2.057553   1.000525
   97        2.286420   1.026503
   98        2.333350   1.034844
   99        2.425688   0.997127
  100        2.504992   0.830870
  101        2.579276   0.551673
  102        2.760676  -0.000858
  103        2.872389  -0.031611
  104        3.014263  -0.005442
  105        3.050490  -0.002755
  106        3.180204  -0.000128
  107        3.209874  -0.000055
  108        3.384347  -0.000000
  109        3.402462  -0.000000
  110        3.441151  -0.000000
  111        3.475637  -0.000000
  112        3.571048  -0.000000
  113        3.585205  -0.000000
  114        3.632210  -0.000000
  115        3.688860  -0.000000
  116        3.818233  -0.000000
  117        3.875197  -0.000000
  118        3.910507  -0.000000
  119        3.973787  -0.000000
  120        4.043701  -0.000000
  121        4.139168  -0.000000
  122        4.229782  -0.000000
  123        4.271040  -0.000000
  124        4.292220  -0.000000
  125        4.410033  -0.000000
  126        4.429817  -0.000000
  127        4.525656  -0.000000
  128        4.633683  -0.000000
  129        4.750752  -0.000000
  130        4.842560  -0.000000
  131        4.991900  -0.000000
  132        5.360315  -0.000000

  0.3742002E-15  0.1111111E+00  0.1262378E-14  0.2469136E-01
    1      -11.441939   1.000000
    2      -10.877292   1.000000
    3      -10.148774   1.000000
    4       -9.409985   1.000000
    5       -8.655260   1.000000
    6       -8.261885   1.000000
    7       -8.233971   1.000000
    8       -8.133736   1.000000
    9       -8.057311   1.000000
   10       -7.852339   1.000000
   11       -7.831267   1.000000
   12       -7.722189   1.000000
   13       -7.695656   1.000000
   14       -7.562544   1.000000
   15       -7.499208   1.000000
   16       -7.153164   1.000000
   17       -7.021341   1.000000
   18       -6.984834   1.000000
   19       -6.731207   1.000000
   20       -6.703508   1.000000
   21       -6.642677   1.000000
   22       -6.410858   1.000000
   23       -6.110037   1.000000
   24       -6.068443   1.000000
   25       -5.881505   1.000000
   26       -5.804367   1.000000
   27       -5.777497   1.000000
   28       -5.654106   1.000000
   29       -5.495669   1.000000
   30       -5.392454   1.000000
   31       -5.048045   1.000000
   32       -4.510341   1.000000
   33       -4.444152   1.000000
   34       -4.408644   1.000000
   35       -4.239139   1.000000
   36       -4.141939   1.000000
   37       -3.896113   1.000000
   38       -3.140290   1.000000
   39       -3.125707   1.000000
   40       -3.008369   1.000000
   41       -2.756456   1.000000
   42       -2.734192   1.000000
   43       -2.676263   1.000000
   44       -2.494711   1.000000
   45       -2.340969   1.000000
   46       -2.321198   1.000000
   47       -2.208148   1.000000
   48       -2.061200   1.000000
   49       -1.960778   1.000000
   50       -1.878891   1.000000
   51       -1.818164   1.000000
   52       -1.730217   1.000000
   53       -1.600800   1.000000
   54       -1.570282   1.000000
   55       -1.558318   1.000000
   56       -1.410198   1.000000
   57       -1.380847   1.000000
   58       -1.338863   1.000000
   59       -1.301502   1.000000
   60       -1.274331   1.000000
   61       -1.193472   1.000000
   62       -1.151641   1.000000
   63       -1.086107   1.000000
   64       -1.030803   1.000000
   65       -0.979697   1.000000
   66       -0.820949   1.000000
   67       -0.789400   1.000000
   68       -0.717376   1.000000
   69       -0.667529   1.000000
   70       -0.548411   1.000000
   71       -0.507685   1.000000
   72       -0.443899   1.000000
   73       -0.307852   1.000000
   74       -0.202252   1.000000
   75       -0.166971   1.000000
   76       -0.110994   1.000000
   77       -0.001206   1.000000
   78        0.044749   1.000000
   79        0.103846   1.000000
   80        0.253230   1.000000
   81        0.311415   1.000000
   82        0.393974   1.000000
   83        0.674580   1.000000
   84        0.731037   1.000000
   85        0.852846   1.000000
   86        1.195043   1.000000
   87        1.253331   1.000000
   88        1.462775   1.000000
   89        1.538401   1.000000
   90        1.564803   1.000000
   91        1.583686   1.000000
   92        1.616016   1.000000
   93        1.636371   1.000000
   94        1.707604   1.000000
   95        1.895098   1.000005
   96        2.036011   1.000307
   97        2.319949   1.033196
   98        2.601769   0.456664
   99        2.787088  -0.022676
  100        2.805758  -0.031027
  101        2.907765  -0.023933
  102        2.977376  -0.009978
  103        3.011095  -0.005753
  104        3.109220  -0.000773
  105        3.203802  -0.000066
  106        3.419481  -0.000000
  107        3.535900  -0.000000
  108        3.581275  -0.000000
  109        3.605476  -0.000000
  110        3.621690  -0.000000
  111        3.702970  -0.000000
  112        3.759915  -0.000000
  113        3.793637  -0.000000
  114        3.819485  -0.000000
  115        3.843013  -0.000000
  116        3.876407  -0.000000
  117        3.929069  -0.000000
  118        3.952085  -0.000000
  119        3.999455  -0.000000
  120        4.059785  -0.000000
  121        4.099471  -0.000000
  122        4.253932  -0.000000
  123        4.310000  -0.000000
  124        4.385527  -0.000000
  125        4.610644  -0.000000
  126        4.905935  -0.000000
  127        4.981386  -0.000000
  128        5.175191  -0.000000
  129        6.137760  -0.000000
  130        6.307268  -0.000000
  131        6.467461  -0.000000
  132        6.636364  -0.000000

  0.1111111E+00  0.1111111E+00  0.1262378E-14  0.2469136E-01
    1      -11.328857   1.000000
    2      -10.772425   1.000000
    3      -10.060246   1.000000
    4       -9.337587   1.000000
    5       -8.639148   1.000000
    6       -8.579056   1.000000
    7       -8.422318   1.000000
    8       -8.371268   1.000000
    9       -8.364725   1.000000
   10       -8.216128   1.000000
   11       -8.146836   1.000000
   12       -7.808548   1.000000
   13       -7.644478   1.000000
   14       -7.539151   1.000000
   15       -7.318381   1.000000
   16       -7.288212   1.000000
   17       -7.133620   1.000000
   18       -6.766286   1.000000
   19       -6.662893   1.000000
   20       -6.626621   1.000000
   21       -6.230592   1.000000
   22       -6.127405   1.000000
   23       -5.949242   1.000000
   24       -5.897667   1.000000
   25       -5.742119   1.000000
   26       -5.689602   1.000000
   27       -5.567276   1.000000
   28       -5.520558   1.000000
   29       -5.438332   1.000000
   30       -5.228670   1.000000
   31       -4.993181   1.000000
   32       -4.543408   1.000000
   33       -4.205569   1.000000
   34       -4.098648   1.000000
   35       -3.956277   1.000000
   36       -3.945492   1.000000
   37       -3.638788   1.000000
   38       -3.188245   1.000000
   39       -3.131408   1.000000
   40       -3.035145   1.000000
   41       -2.942387   1.000000
   42       -2.767313   1.000000
   43       -2.763366   1.000000
   44       -2.666180   1.000000
   45       -2.418099   1.000000
   46       -2.371026   1.000000
   47       -2.224211   1.000000
   48       -2.164475   1.000000
   49       -2.089515   1.000000
   50       -1.982308   1.000000
   51       -1.922298   1.000000
   52       -1.753346   1.000000
   53       -1.741415   1.000000
   54       -1.574544   1.000000
   55       -1.526520   1.000000
   56       -1.505186   1.000000
   57       -1.502707   1.000000
   58       -1.433211   1.000000
   59       -1.425607   1.000000
   60       -1.255504   1.000000
   61       -1.247520   1.000000
   62       -1.212038   1.000000
   63       -1.131786   1.000000
   64       -1.101435   1.000000
   65       -1.044685   1.000000
   66       -0.986717   1.000000
   67       -0.978867   1.000000
   68       -0.765956   1.000000
   69       -0.697371   1.000000
   70       -0.620090   1.000000
   71       -0.524352   1.000000
   72       -0.475847   1.000000
   73       -0.449827   1.000000
   74       -0.281351   1.000000
   75       -0.207154   1.000000
   76       -0.086500   1.000000
   77       -0.056772   1.000000
   78        0.088790   1.000000
   79        0.183516   1.000000
   80        0.229638   1.000000
   81        0.300493   1.000000
   82        0.443810   1.000000
   83        0.494277   1.000000
   84        0.676518   1.000000
   85        0.768734   1.000000
   86        0.816585   1.000000
   87        1.222821   1.000000
   88        1.442427   1.000000
   89        1.483905   1.000000
   90        1.515907   1.000000
   91        1.518172   1.000000
   92        1.584749   1.000000
   93        1.634284   1.000000
   94        1.681540   1.000000
   95        1.938180   1.000019
   96        2.110140   1.001738
   97        2.331870   1.034707
   98        2.493279   0.865209