 running on   54 total cores
 distrk:  each k-point on   54 cores,    1 groups
 distr:  one band on    9 cores,    6 groups
 using from now: INCAR     
 vasp.5.4.4.18Apr17-6-g9f103f2a35 (build Dec  7 2020 12:43:57) complex           
 POSCAR found type information on POSCAR  Mo V  B  H 
 POSCAR found :  4 types and      57 ions
 scaLAPACK will be used

 ----------------------------------------------------------------------------- 
|                                                                             |
|  ADVICE TO THIS USER RUNNING 'VASP/VAMP'   (HEAR YOUR MASTER'S VOICE ...):  |
|                                                                             |
|      You enforced a specific xc-type in the INCAR file,                     |
|      a different type was found on the POTCAR file                          |
|          I HOPE YOU KNOW, WHAT YOU ARE  DOING                               |
|                                                                             |
 ----------------------------------------------------------------------------- 

 LDA part: xc-table for Pade appr. of Perdew
 POSCAR, INCAR and KPOINTS ok, starting setup
 resort distribution
 resort distribution
 resort distribution
 resort distribution
 resort distribution
 resort distribution
 resort distribution
 resort distribution
 resort distribution
 resort distribution
 resort distribution
 resort distribution
 resort distribution
 resort distribution
 resort distribution
 resort distribution
 resort distribution
 resort distribution
 resort distribution
 resort distribution
 resort distribution
 resort distribution
 resort distribution
 resort distribution
 resort distribution
 resort distribution
 resort distribution
 resort distribution
 resort distribution
 resort distribution
 resort distribution
 resort distribution
 resort distribution
 resort distribution
 resort distribution
 resort distribution
 resort distribution
 resort distribution
 resort distribution
 resort distribution
 resort distribution
 resort distribution
 resort distribution
 resort distribution
 resort distribution
 resort distribution
 resort distribution
 resort distribution
 resort distribution
 resort distribution
 resort distribution
 resort distribution
 resort distribution
 resort distribution
 FFT: planning ...
 WAVECAR not read
 augmentation electrons   199.02299069669789     
 soft         electrons   0.0000000000000000     
 augmentation electrons   199.02299069669789     
 soft         electrons   0.0000000000000000     
 augmentation electrons   199.02299069669789     
 soft         electrons   0.0000000000000000     
 augmentation electrons   199.02299069669789     
 soft         electrons   0.0000000000000000     
 augmentation electrons   199.02299069669789     
 soft         electrons   0.0000000000000000     
 augmentation electrons   199.02299069669789     
 soft         electrons   0.0000000000000000     
 augmentation electrons   199.02299069669789     
 soft         electrons   0.0000000000000000     
 augmentation electrons   199.02299069669789     
 soft         electrons   0.0000000000000000     
 augmentation electrons   199.02299069669789     
 soft         electrons   0.0000000000000000     
 augmentation electrons   199.02299069669789     
 soft         electrons   0.0000000000000000     
 augmentation electrons   199.02299069669789     
 soft         electrons   0.0000000000000000     
 augmentation electrons   199.02299069669789     
 soft         electrons   0.0000000000000000     
 augmentation electrons   199.02299069669789     
 soft         electrons   0.0000000000000000     
 augmentation electrons   199.02299069669789     
 soft         electrons   0.0000000000000000     
 augmentation electrons   199.02299069669789     
 soft         electrons   0.0000000000000000     
 augmentation electrons   199.02299069669789     
 soft         electrons   0.0000000000000000     
 augmentation electrons   199.02299069669789     
 soft         electrons   0.0000000000000000     
 augmentation electrons   199.02299069669789     
 soft         electrons   0.0000000000000000     
 augmentation electrons   199.02299069669789     
 soft         electrons   0.0000000000000000     
 augmentation electrons   199.02299069669789     
 soft         electrons   0.0000000000000000     
 augmentation electrons   199.02299069669789     
 soft         electrons   0.0000000000000000     
 augmentation electrons   199.02299069669789     
 soft         electrons   0.0000000000000000     
 augmentation electrons   199.02299069669789     
 soft         electrons   0.0000000000000000     
 augmentation electrons   199.02299069669789     
 soft         electrons   0.0000000000000000     
 augmentation electrons   199.02299069669789     
 soft         electrons   0.0000000000000000     
 augmentation electrons   199.02299069669789     
 soft         electrons   0.0000000000000000     
 augmentation electrons   199.02299069669789     
 soft         electrons   0.0000000000000000     
 augmentation electrons   199.02299069669789     
 soft         electrons   0.0000000000000000     
 augmentation electrons   199.02299069669789     
 soft         electrons   0.0000000000000000     
 augmentation electrons   199.02299069669789     
 soft         electrons   0.0000000000000000     
 augmentation electrons   199.02299069669789     
 soft         electrons   0.0000000000000000     
 augmentation electrons   199.02299069669789     
 soft         electrons   0.0000000000000000     
 augmentation electrons   199.02299069669789     
 soft         electrons   0.0000000000000000     
 augmentation electrons   199.02299069669789     
 soft         electrons   0.0000000000000000     
 augmentation electrons   199.02299069669789     
 soft         electrons   0.0000000000000000     
 augmentation electrons   199.02299069669789     
 soft         electrons   0.0000000000000000     
 augmentation electrons   199.02299069669789     
 soft         electrons   0.0000000000000000     
 augmentation electrons   199.02299069669789     
 soft         electrons   0.0000000000000000     
 augmentation electrons   199.02299069669789     
 soft         electrons   0.0000000000000000     
 augmentation electrons   199.02299069669789     
 soft         electrons   0.0000000000000000     
 augmentation electrons   199.02299069669789     
 soft         electrons   0.0000000000000000     
 augmentation electrons   199.02299069669789     
 soft         electrons   0.0000000000000000     
 augmentation electrons   199.02299069669789     
 soft         electrons   0.0000000000000000     
 augmentation electrons   199.02299069669789     
 soft         electrons   0.0000000000000000     
 augmentation electrons   199.02299069669789     
 soft         electrons   0.0000000000000000     
 augmentation electrons   199.02299069669789     
 soft         electrons   0.0000000000000000     
 augmentation electrons   199.02299069669789     
 soft         electrons   0.0000000000000000     
 augmentation electrons   199.02299069669789     
 soft         electrons   0.0000000000000000     
 augmentation electrons   199.02299069669789     
 soft         electrons   0.0000000000000000     
 augmentation electrons   199.02299069669789     
 soft         electrons   0.0000000000000000     
 augmentation electrons   199.02299069669789     
 soft         electrons   0.0000000000000000     
 augmentation electrons   199.02299069669789     
 soft         electrons   0.0000000000000000     
 augmentation electrons   199.02299069669789     
 soft         electrons   0.0000000000000000     
 augmentation electrons   199.02299069669789     
 soft         electrons   0.0000000000000000     
 total        electrons   199.02299069669789     
 total        electrons   199.02299069669789     
 total        electrons   199.02299069669789     
 total        electrons   199.02299069669789     
 total        electrons   199.02299069669789     
 total        electrons   199.02299069669789     
 total        electrons   199.02299069669789     
 total        electrons   199.02299069669789     
 total        electrons   199.02299069669789     
 total        electrons   199.02299069669789     
 total        electrons   199.02299069669789     
 total        electrons   199.02299069669789     
 total        electrons   199.02299069669789     
 total        electrons   199.02299069669789     
 total        electrons   199.02299069669789     
 total        electrons   199.02299069669789     
 total        electrons   199.02299069669789     
 total        electrons   199.02299069669789     
 total        electrons   199.02299069669789     
 total        electrons   199.02299069669789     
 total        electrons   199.02299069669789     
 total        electrons   199.02299069669789     
 total        electrons   199.02299069669789     
 total        electrons   199.02299069669789     
 total        electrons   199.02299069669789     
 total        electrons   199.02299069669789     
 total        electrons   199.02299069669789     
 total        electrons   199.02299069669789     
 total        electrons   199.02299069669789     
 total        electrons   199.02299069669789     
 total        electrons   199.02299069669789     
 total        electrons   199.02299069669789     
 total        electrons   199.02299069669789     
 total        electrons   199.02299069669789     
 total        electrons   199.02299069669789     
 total        electrons   199.02299069669789     
 total        electrons   199.02299069669789     
 total        electrons   199.02299069669789     
 total        electrons   199.02299069669789     
 total        electrons   199.02299069669789     
 total        electrons   199.02299069669789     
 total        electrons   199.02299069669789     
 total        electrons   199.02299069669789     
 total        electrons   199.02299069669789     
 total        electrons   199.02299069669789     
 total        electrons   199.02299069669789     
 total        electrons   199.02299069669789     
 total        electrons   199.02299069669789     
 total        electrons   199.02299069669789     
 total        electrons   199.02299069669789     
 total        electrons   199.02299069669789     
 total        electrons   199.02299069669789     
 total        electrons   199.02299069669789     
 total        electrons   199.02299069669789     
 augmentation electrons   563.55439718884384     
 soft         electrons   0.0000000000000000     
 augmentation electrons   563.55439718884384     
 soft         electrons   0.0000000000000000     
 augmentation electrons   563.55439718884384     
 soft         electrons   0.0000000000000000     
 augmentation electrons   563.55439718884384     
 soft         electrons   0.0000000000000000     
 augmentation electrons   563.55439718884384     
 soft         electrons   0.0000000000000000     
 augmentation electrons   563.55439718884384     
 soft         electrons   0.0000000000000000     
 augmentation electrons   563.55439718884384     
 soft         electrons   0.0000000000000000     
 augmentation electrons   563.55439718884384     
 soft         electrons   0.0000000000000000     
 augmentation electrons   563.55439718884384     
 soft         electrons   0.0000000000000000     
 augmentation electrons   563.55439718884384     
 soft         electrons   0.0000000000000000     
 augmentation electrons   563.55439718884384     
 soft         electrons   0.0000000000000000     
 augmentation electrons   563.55439718884384     
 soft         electrons   0.0000000000000000     
 augmentation electrons   563.55439718884384     
 soft         electrons   0.0000000000000000     
 augmentation electrons   563.55439718884384     
 soft         electrons   0.0000000000000000     
 augmentation electrons   563.55439718884384     
 soft         electrons   0.0000000000000000     
 augmentation electrons   563.55439718884384     
 soft         electrons   0.0000000000000000     
 augmentation electrons   563.55439718884384     
 soft         electrons   0.0000000000000000     
 augmentation electrons   563.55439718884384     
 soft         electrons   0.0000000000000000     
 augmentation electrons   563.55439718884384     
 soft         electrons   0.0000000000000000     
 augmentation electrons   563.55439718884384     
 soft         electrons   0.0000000000000000     
 augmentation electrons   563.55439718884384     
 augmentation electrons   563.55439718884384     
 soft         electrons   0.0000000000000000     
 augmentation electrons   563.55439718884384     
 soft         electrons   0.0000000000000000     
 augmentation electrons   563.55439718884384     
 soft         electrons   0.0000000000000000     
 augmentation electrons   563.55439718884384     
 soft         electrons   0.0000000000000000     
 augmentation electrons   563.55439718884384     
 soft         electrons   0.0000000000000000     
 augmentation electrons   563.55439718884384     
 soft         electrons   0.0000000000000000     
 augmentation electrons   563.55439718884384     
 soft         electrons   0.0000000000000000     
 augmentation electrons   563.55439718884384     
 soft         electrons   0.0000000000000000     
 augmentation electrons   563.55439718884384     
 soft         electrons   0.0000000000000000     
 augmentation electrons   563.55439718884384     
 soft         electrons   0.0000000000000000     
 augmentation electrons   563.55439718884384     
 soft         electrons   0.0000000000000000     
 augmentation electrons   563.55439718884384     
 soft         electrons   0.0000000000000000     
 augmentation electrons   563.55439718884384     
 soft         electrons   0.0000000000000000     
 augmentation electrons   563.55439718884384     
 soft         electrons   0.0000000000000000     
 augmentation electrons   563.55439718884384     
 soft         electrons   0.0000000000000000     
 augmentation electrons   563.55439718884384     
 soft         electrons   0.0000000000000000     
 augmentation electrons   563.55439718884384     
 soft         electrons   0.0000000000000000     
 augmentation electrons   563.55439718884384     
 soft         electrons   0.0000000000000000     
 augmentation electrons   563.55439718884384     
 soft         electrons   0.0000000000000000     
 augmentation electrons   563.55439718884384     
 soft         electrons   0.0000000000000000     
 augmentation electrons   563.55439718884384     
 soft         electrons   0.0000000000000000     
 augmentation electrons   563.55439718884384     
 soft         electrons   0.0000000000000000     
 augmentation electrons   563.55439718884384     
 soft         electrons   0.0000000000000000     
 augmentation electrons   563.55439718884384     
 soft         electrons   0.0000000000000000     
 augmentation electrons   563.55439718884384     
 soft         electrons   0.0000000000000000     
 augmentation electrons   563.55439718884384     
 soft         electrons   0.0000000000000000     
 augmentation electrons   563.55439718884384     
 soft         electrons   0.0000000000000000     
 augmentation electrons   563.55439718884384     
 soft         electrons   0.0000000000000000     
 augmentation electrons   563.55439718884384     
 soft         electrons   0.0000000000000000     
 augmentation electrons   563.55439718884384     
 soft         electrons   0.0000000000000000     
 augmentation electrons   563.55439718884384     
 soft         electrons   0.0000000000000000     
 augmentation electrons   563.55439718884384     
 soft         electrons   0.0000000000000000     
 augmentation electrons   563.55439718884384     
 soft         electrons   0.0000000000000000     
 soft         electrons   0.0000000000000000     
 total        electrons   563.55439718884384     
 total        electrons   563.55439718884384     
 total        electrons   563.55439718884384     
 total        electrons   563.55439718884384     
 total        electrons   563.55439718884384     
 total        electrons   563.55439718884384     
 total        electrons   563.55439718884384     
 total        electrons   563.55439718884384     
 total        electrons   563.55439718884384     
 total        electrons   563.55439718884384     
 total        electrons   563.55439718884384     
 total        electrons   563.55439718884384     
 total        electrons   563.55439718884384     
 total        electrons   563.55439718884384     
 total        electrons   563.55439718884384     
 total        electrons   563.55439718884384     
 total        electrons   563.55439718884384     
 total        electrons   563.55439718884384     
 total        electrons   563.55439718884384     
 total        electrons   563.55439718884384     
 total        electrons   563.55439718884384     
 total        electrons   563.55439718884384     
 total        electrons   563.55439718884384     
 total        electrons   563.55439718884384     
 total        electrons   563.55439718884384     
 total        electrons   563.55439718884384     
 total        electrons   563.55439718884384     
 total        electrons   563.55439718884384     
 total        electrons   563.55439718884384     
 total        electrons   563.55439718884384     
 total        electrons   563.55439718884384     
 total        electrons   563.55439718884384     
 total        electrons   563.55439718884384     
 total        electrons   563.55439718884384     
 total        electrons   563.55439718884384     
 total        electrons   563.55439718884384     
 total        electrons   563.55439718884384     
 total        electrons   563.55439718884384     
 total        electrons   563.55439718884384     
 total        electrons   563.55439718884384     
 total        electrons   563.55439718884384     
 total        electrons   563.55439718884384     
 total        electrons   563.55439718884384     
 total        electrons   563.55439718884384     
 total        electrons   563.55439718884384     
 total        electrons   563.55439718884384     
 total        electrons   563.55439718884384     
 total        electrons   563.55439718884384     
 total        electrons   563.55439718884384     
 total        electrons   563.55439718884384     
 total        electrons   563.55439718884384     
 total        electrons   563.55439718884384     
 total        electrons   563.55439718884384     
 total        electrons   563.55439718884384     
 entering main loop
       N       E                     dE             d eps       ncg     rms          rms(c)
DAV:   1     0.202227018169E+04    0.20223E+04   -0.71611E+04 10824   0.136E+03
DAV:   2    -0.307142542685E+02   -0.20530E+04   -0.18884E+04 11316   0.362E+02
DAV:   3    -0.460993036199E+03   -0.43028E+03   -0.41128E+03 15252   0.173E+02
DAV:   4    -0.496798990549E+03   -0.35806E+02   -0.34929E+02 17748   0.574E+01
DAV:   5    -0.498075682655E+03   -0.12767E+01   -0.12530E+01 18096   0.123E+01    0.109E+02
RMM:   6    -0.489512033126E+03    0.85636E+01   -0.10210E+03 14708   0.114E+02    0.758E+01
RMM:   7    -0.519176696700E+03   -0.29665E+02   -0.36329E+02 11949   0.870E+01    0.490E+01
RMM:   8    -0.498711113645E+03    0.20466E+02   -0.92819E+01 15971   0.302E+01    0.403E+01
RMM:   9    -0.468242284727E+03    0.30469E+02   -0.79690E+01 15507   0.278E+01    0.397E+01
RMM:  10    -0.424546389649E+03    0.43696E+02   -0.24458E+01 11317   0.212E+01    0.231E+01
RMM:  11    -0.416061691651E+03    0.84847E+01   -0.31291E+01 15628   0.150E+01    0.176E+01
RMM:  12    -0.414803849607E+03    0.12578E+01   -0.29352E+00 14877   0.513E+00    0.155E+01
RMM:  13    -0.414788567176E+03    0.15282E-01   -0.68786E-01 17105   0.120E+00    0.147E+01
RMM:  14    -0.414579729257E+03    0.20884E+00   -0.22816E-01 14421   0.146E+00    0.136E+01
RMM:  15    -0.413636259250E+03    0.94347E+00   -0.39007E+00 12039   0.805E+00    0.776E+00
RMM:  16    -0.413108195647E+03    0.52806E+00   -0.18672E+00 15182   0.374E+00    0.415E+00
RMM:  17    -0.412968423624E+03    0.13977E+00   -0.54243E-01 13795   0.228E+00    0.357E+00
RMM:  18    -0.412895114378E+03    0.73309E-01   -0.31623E-01 15187   0.159E+00    0.267E+00
RMM:  19    -0.412857175200E+03    0.37939E-01   -0.18659E-01 13441   0.154E+00    0.187E+00
RMM:  20    -0.412831982286E+03    0.25193E-01   -0.16217E-01 16227   0.994E-01    0.104E+00
RMM:  21    -0.412810751207E+03    0.21231E-01   -0.66994E-02 14853   0.770E-01    0.480E-01
RMM:  22    -0.412811436445E+03   -0.68524E-03   -0.31418E-02 16247   0.413E-01    0.510E-01
RMM:  23    -0.412808300234E+03    0.31362E-02   -0.74654E-03 13136   0.321E-01    0.217E-01
RMM:  24    -0.412808211145E+03    0.89088E-04   -0.59505E-03 15408   0.212E-01    0.265E-01
RMM:  25    -0.412807470822E+03    0.74032E-03   -0.21900E-03 13225   0.176E-01    0.186E-01
RMM:  26    -0.412807712059E+03   -0.24124E-03   -0.37741E-03 15719   0.160E-01    0.191E-01
RMM:  27    -0.412807762438E+03   -0.50379E-04   -0.15114E-03 12810   0.164E-01    0.972E-02
RMM:  28    -0.412808968802E+03   -0.12064E-02   -0.13982E-03 14743   0.110E-01    0.917E-02
RMM:  29    -0.412809642564E+03   -0.67376E-03   -0.59701E-04 15272   0.667E-02    0.800E-02
RMM:  30    -0.412810128233E+03   -0.48567E-03   -0.16942E-04 13781   0.420E-02    0.519E-02
RMM:  31    -0.412810611881E+03   -0.48365E-03   -0.28314E-04 13304   0.629E-02    0.536E-02
RMM:  32    -0.412811045574E+03   -0.43369E-03   -0.18069E-04 14751   0.409E-02    0.190E-02
RMM:  33    -0.412811154081E+03   -0.10851E-03   -0.55999E-05 15197   0.173E-02    0.175E-02
RMM:  34    -0.412811195325E+03   -0.41245E-04   -0.82658E-06 11438   0.947E-03    0.957E-03
RMM:  35    -0.412811233726E+03   -0.38400E-04   -0.68212E-06 11326   0.674E-03    0.769E-03
RMM:  36    -0.412811247339E+03   -0.13614E-04   -0.56823E-06 10456   0.964E-03    0.584E-03
RMM:  37    -0.412811262872E+03   -0.15533E-04   -0.29669E-06  9632   0.536E-03    0.390E-03
RMM:  38    -0.412811263808E+03   -0.93610E-06   -0.57810E-07  8289   0.261E-03
   1 F= -.41281126E+03 E0= -.41281350E+03  d E =0.670751E-02
 augmentation electrons   21.079582605472211     
 soft         electrons   177.99224888537742     
 augmentation electrons   21.079582605472211     
 soft         electrons   177.99224888537742     
 augmentation electrons   21.079582605472211     
 soft         electrons   177.99224888537742     
 augmentation electrons   21.079582605472211     
 soft         electrons   177.99224888537742     
 augmentation electrons   21.079582605472211     
 soft         electrons   177.99224888537742     
 augmentation electrons   21.079582605472211     
 soft         electrons   177.99224888537742     
 augmentation electrons   21.079582605472211     
 soft         electrons   177.99224888537742     
 augmentation electrons   21.079582605472211     
 soft         electrons   177.99224888537742     
 augmentation electrons   21.079582605472211     
 soft         electrons   177.99224888537742     
 augmentation electrons   21.079582605472211     
 soft         electrons   177.99224888537742     
 augmentation electrons   21.079582605472211     
 soft         electrons   177.99224888537742     
 augmentation electrons   21.079582605472211     
 soft         electrons   177.99224888537742     
 augmentation electrons   21.079582605472211     
 soft         electrons   177.99224888537742     
 augmentation electrons   21.079582605472211     
 soft         electrons   177.99224888537742     
 augmentation electrons   21.079582605472211     
 soft         electrons   177.99224888537742     
 augmentation electrons   21.079582605472211     
 soft         electrons   177.99224888537742     
 augmentation electrons   21.079582605472211     
 soft         electrons   177.99224888537742     
 augmentation electrons   21.079582605472211     
 soft         electrons   177.99224888537742     
 augmentation electrons   21.079582605472211     
 soft         electrons   177.99224888537742     
 augmentation electrons   21.079582605472211     
 soft         electrons   177.99224888537742     
 augmentation electrons   21.079582605472211     
 soft         electrons   177.99224888537742     
 augmentation electrons   21.079582605472211     
 soft         electrons   177.99224888537742     
 augmentation electrons   21.079582605472211     
 soft         electrons   177.99224888537742     
 augmentation electrons   21.079582605472211     
 soft         electrons   177.99224888537742     
 augmentation electrons   21.079582605472211     
 soft         electrons   177.99224888537742     
 augmentation electrons   21.079582605472211     
 soft         electrons   177.99224888537742     
 augmentation electrons   21.079582605472211     
 soft         electrons   177.99224888537742     
 augmentation electrons   21.079582605472211     
 soft         electrons   177.99224888537742     
 augmentation electrons   21.079582605472211     
 soft         electrons   177.99224888537742     
 augmentation electrons   21.079582605472211     
 soft         electrons   177.99224888537742     
 augmentation electrons   21.079582605472211     
 soft         electrons   177.99224888537742     
 augmentation electrons   21.079582605472211     
 soft         electrons   177.99224888537742     
 augmentation electrons   21.079582605472211     
 soft         electrons   177.99224888537742     
 augmentation electrons   21.079582605472211     
 soft         electrons   177.99224888537742     
 augmentation electrons   21.079582605472211     
 soft         electrons   177.99224888537742     
 augmentation electrons   21.079582605472211     
 soft         electrons   177.99224888537742     
 augmentation electrons   21.079582605472211     
 soft         electrons   177.99224888537742     
 augmentation electrons   21.079582605472211     
 soft         electrons   177.99224888537742     
 augmentation electrons   21.079582605472211     
 soft         electrons   177.99224888537742     
 augmentation electrons   21.079582605472211     
 soft         electrons   177.99224888537742     
 augmentation electrons   21.079582605472211     
 soft         electrons   177.99224888537742     
 augmentation electrons   21.079582605472211     
 augmentation electrons   21.079582605472211     
 soft         electrons   177.99224888537742     
 augmentation electrons   21.079582605472211     
 soft         electrons   177.99224888537742     
 augmentation electrons   21.079582605472211     
 soft         electrons   177.99224888537742     
 augmentation electrons   21.079582605472211     
 soft         electrons   177.99224888537742     
 augmentation electrons   21.079582605472211     
 soft         electrons   177.99224888537742     
 augmentation electrons   21.079582605472211     
 soft         electrons   177.99224888537742     
 augmentation electrons   21.079582605472211     
 soft         electrons   177.99224888537742     
 augmentation electrons   21.079582605472211     
 soft         electrons   177.99224888537742     
 augmentation electrons   21.079582605472211     
 soft         electrons   177.99224888537742     
 augmentation electrons   21.079582605472211     
 soft         electrons   177.99224888537742     
 augmentation electrons   21.079582605472211     
 soft         electrons   177.99224888537742     
 augmentation electrons   21.079582605472211     
 soft         electrons   177.99224888537742     
 soft         electrons   177.99224888537742     
 total        electrons   199.07183149084963     
 total        electrons   199.07183149084963     
 total        electrons   199.07183149084963     
 total        electrons   199.07183149084963     
 total        electrons   199.07183149084963     
 total        electrons   199.07183149084963     
 total        electrons   199.07183149084963     
 total        electrons   199.07183149084963     
 total        electrons   199.07183149084963     
 total        electrons   199.07183149084963     
 total        electrons   199.07183149084963     
 total        electrons   199.07183149084963     
 total        electrons   199.07183149084963     
 total        electrons   199.07183149084963     
 total        electrons   199.07183149084963     
 total        electrons   199.07183149084963     
 total        electrons   199.07183149084963     
 total        electrons   199.07183149084963     
 total        electrons   199.07183149084963     
 total        electrons   199.07183149084963     
 total        electrons   199.07183149084963     
 total        electrons   199.07183149084963     
 total        electrons   199.07183149084963     
 total        electrons   199.07183149084963     
 total        electrons   199.07183149084963     
 total        electrons   199.07183149084963     
 total        electrons   199.07183149084963     
 total        electrons   199.07183149084963     
 total        electrons   199.07183149084963     
 total        electrons   199.07183149084963     
 total        electrons   199.07183149084963     
 total        electrons   199.07183149084963     
 total        electrons   199.07183149084963     
 total        electrons   199.07183149084963     
 total        electrons   199.07183149084963     
 total        electrons   199.07183149084963     
 total        electrons   199.07183149084963     
 total        electrons   199.07183149084963     
 total        electrons   199.07183149084963     
 total        electrons   199.07183149084963     
 total        electrons   199.07183149084963     
 total        electrons   199.07183149084963     
 total        electrons   199.07183149084963     
 total        electrons   199.07183149084963     
 total        electrons   199.07183149084963     
 total        electrons   199.07183149084963     
 total        electrons   199.07183149084963     
 total        electrons   199.07183149084963     
 total        electrons   199.07183149084963     
 total        electrons   199.07183149084963     
 total        electrons   199.07183149084963     
 total        electrons   199.07183149084963     
 total        electrons   199.07183149084963     
 total        electrons   199.07183149084963     
Note: The following floating-point exceptions are signalling: IEEE_OVERFLOW_FLAG
Note: The following floating-point exceptions are signalling: IEEE_OVERFLOW_FLAG
Note: The following floating-point exceptions are signalling: IEEE_OVERFLOW_FLAG
Note: The following floating-point exceptions are signalling: IEEE_OVERFLOW_FLAG
Note: The following floating-point exceptions are signalling: IEEE_OVERFLOW_FLAG
Note: The following floating-point exceptions are signalling: IEEE_OVERFLOW_FLAG
Note: The following floating-point exceptions are signalling: IEEE_OVERFLOW_FLAG
Note: The following floating-point exceptions are signalling: IEEE_OVERFLOW_FLAG
Note: The following floating-point exceptions are signalling: IEEE_OVERFLOW_FLAG
Note: The following floating-point exceptions are signalling: IEEE_OVERFLOW_FLAG
Note: The following floating-point exceptions are signalling: IEEE_OVERFLOW_FLAG
Note: The following floating-point exceptions are signalling: IEEE_OVERFLOW_FLAG
Note: The following floating-point exceptions are signalling: IEEE_OVERFLOW_FLAG
Note: The following floating-point exceptions are signalling: IEEE_OVERFLOW_FLAG
Note: The following floating-point exceptions are signalling: IEEE_OVERFLOW_FLAG
Note: The following floating-point exceptions are signalling: IEEE_OVERFLOW_FLAG
Note: The following floating-point exceptions are signalling: IEEE_OVERFLOW_FLAG
Note: The following floating-point exceptions are signalling: IEEE_OVERFLOW_FLAG
Note: The following floating-point exceptions are signalling: IEEE_OVERFLOW_FLAG
Note: The following floating-point exceptions are signalling: IEEE_OVERFLOW_FLAG
Note: The following floating-point exceptions are signalling: IEEE_OVERFLOW_FLAG
Note: The following floating-point exceptions are signalling: IEEE_OVERFLOW_FLAG
Note: The following floating-point exceptions are signalling: IEEE_OVERFLOW_FLAG
Note: The following floating-point exceptions are signalling: IEEE_OVERFLOW_FLAG
Note: The following floating-point exceptions are signalling: IEEE_OVERFLOW_FLAG
Note: The following floating-point exceptions are signalling: IEEE_INVALID_FLAG IEEE_OVERFLOW_FLAG
Note: The following floating-point exceptions are signalling: IEEE_OVERFLOW_FLAG
Note: The following floating-point exceptions are signalling: IEEE_OVERFLOW_FLAG
Note: The following floating-point exceptions are signalling: IEEE_OVERFLOW_FLAG
Note: The following floating-point exceptions are signalling: IEEE_OVERFLOW_FLAG
Note: The following floating-point exceptions are signalling: IEEE_OVERFLOW_FLAG
Note: The following floating-point exceptions are signalling: IEEE_OVERFLOW_FLAG
Note: The following floating-point exceptions are signalling: IEEE_OVERFLOW_FLAG
Note: The following floating-point exceptions are signalling: IEEE_OVERFLOW_FLAG
Note: The following floating-point exceptions are signalling: IEEE_OVERFLOW_FLAG
Note: The following floating-point exceptions are signalling: IEEE_OVERFLOW_FLAG
Note: The following floating-point exceptions are signalling: IEEE_OVERFLOW_FLAG
Note: The following floating-point exceptions are signalling: IEEE_OVERFLOW_FLAG
Note: The following floating-point exceptions are signalling: IEEE_OVERFLOW_FLAG
Note: The following floating-point exceptions are signalling: IEEE_OVERFLOW_FLAG
Note: The following floating-point exceptions are signalling: IEEE_OVERFLOW_FLAG
Note: The following floating-point exceptions are signalling: IEEE_OVERFLOW_FLAG
Note: The following floating-point exceptions are signalling: IEEE_OVERFLOW_FLAG
Note: The following floating-point exceptions are signalling: IEEE_OVERFLOW_FLAG
Note: The following floating-point exceptions are signalling: IEEE_OVERFLOW_FLAG
Note: The following floating-point exceptions are signalling: IEEE_OVERFLOW_FLAG
Note: The following floating-point exceptions are signalling: IEEE_OVERFLOW_FLAG
Note: The following floating-point exceptions are signalling: IEEE_OVERFLOW_FLAG
Note: The following floating-point exceptions are signalling: IEEE_OVERFLOW_FLAG
Note: The following floating-point exceptions are signalling: IEEE_OVERFLOW_FLAG
Note: The following floating-point exceptions are signalling: IEEE_OVERFLOW_FLAG
Note: The following floating-point exceptions are signalling: IEEE_OVERFLOW_FLAG
Note: The following floating-point exceptions are signalling: IEEE_OVERFLOW_FLAG
Note: The following floating-point exceptions are signalling: IEEE_OVERFLOW_FLAG
