   73   73    1    1
  0.2115814E+02  0.1036705E-08  0.2428040E-08  0.6136055E-09  0.5000000E-15
   1.0000000000000000E-004
  CAR 
 Name                                    
    277     15    176

  0.3742002E-15  0.1262379E-14  0.3742002E-15  0.2222222E-01
    1      -14.092165   1.000000
    2      -12.909108   1.000000
    3      -12.907684   1.000000
    4      -12.863224   1.000000
    5      -11.970095   1.000000
    6      -11.748932   1.000000
    7      -11.740252   1.000000
    8      -11.545904   1.000000
    9      -11.541530   1.000000
   10      -11.345690   1.000000
   11      -11.272546   1.000000
   12      -11.062981   1.000000
   13      -11.039886   1.000000
   14      -10.555565   1.000000
   15      -10.502003   1.000000
   16      -10.280339   1.000000
   17      -10.237956   1.000000
   18      -10.134938   1.000000
   19       -9.677600   1.000000
   20       -9.664028   1.000000
   21       -9.584559   1.000000
   22       -9.583217   1.000000
   23       -9.417154   1.000000
   24       -9.355587   1.000000
   25       -8.910584   1.000000
   26       -8.877306   1.000000
   27       -8.548331   1.000000
   28       -8.516478   1.000000
   29       -8.223497   1.000000
   30       -8.206088   1.000000
   31       -8.193376   1.000000
   32       -7.824971   1.000000
   33       -7.800406   1.000000
   34       -7.294211   1.000000
   35       -7.265764   1.000000
   36       -7.172820   1.000000
   37       -7.055120   1.000000
   38       -6.859020   1.000000
   39       -6.849023   1.000000
   40       -6.754858   1.000000
   41       -6.754756   1.000000
   42       -6.735234   1.000000
   43       -6.519444   1.000000
   44       -6.469816   1.000000
   45       -6.398131   1.000000
   46       -6.309104   1.000000
   47       -6.209091   1.000000
   48       -6.175288   1.000000
   49       -6.154670   1.000000
   50       -5.902265   1.000000
   51       -5.844266   1.000000
   52       -5.705103   1.000000
   53       -5.688580   1.000000
   54       -5.680982   1.000000
   55       -5.564664   1.000000
   56       -5.523500   1.000000
   57       -5.480208   1.000000
   58       -5.322752   1.000000
   59       -5.260876   1.000000
   60       -5.233891   1.000000
   61       -4.968066   1.000000
   62       -4.766938   1.000000
   63       -4.749608   1.000000
   64       -4.699476   1.000000
   65       -4.654870   1.000000
   66       -4.589468   1.000000
   67       -4.505043   1.000000
   68       -4.460776   1.000000
   69       -4.194659   1.000000
   70       -4.154091   1.000000
   71       -4.105343   1.000000
   72       -4.090440   1.000000
   73       -4.081588   1.000000
   74       -3.995837   1.000000
   75       -3.987518   1.000000
   76       -3.967758   1.000000
   77       -3.948209   1.000000
   78       -3.871088   1.000000
   79       -3.830772   1.000000
   80       -3.644093   1.000000
   81       -3.632056   1.000000
   82       -3.631001   1.000000
   83       -3.618266   1.000000
   84       -3.593139   1.000000
   85       -3.556231   1.000000
   86       -3.547696   1.000000
   87       -3.547041   1.000000
   88       -3.526541   1.000000
   89       -3.496188   1.000000
   90       -3.481959   1.000000
   91       -3.406934   1.000000
   92       -3.299993   1.000000
   93       -3.006647   1.000000
   94       -2.971361   1.000000
   95       -2.968960   1.000000
   96       -2.860595   1.000000
   97       -2.828177   1.000000
   98       -2.759682   1.000000
   99       -2.628703   1.000000
  100       -2.479850   1.000000
  101       -2.378585   1.000000
  102       -2.361790   1.000000
  103       -2.343735   1.000000
  104       -2.296991   1.000000
  105       -2.188501   1.000000
  106       -2.085386   1.000000
  107       -2.077320   1.000000
  108       -2.048923   1.000000
  109       -2.006911   1.000000
  110       -1.964452   1.000000
  111       -1.907016   1.000000
  112       -1.836868   1.000000
  113       -1.790060   1.000000
  114       -1.690155   1.000000
  115       -1.645040   1.000000
  116       -1.623522   1.000000
  117       -1.609218   1.000000
  118       -1.590008   1.000000
  119       -1.480435   1.000000
  120       -1.395636   1.000000
  121       -1.213877   1.000000
  122       -0.985223   1.000000
  123       -0.881830   1.000000
  124       -0.866973   1.000000
  125       -0.784696   1.000000
  126       -0.640088   1.000000
  127       -0.482360   1.000000
  128       -0.478844   1.000000
  129       -0.379791   1.000000
  130       -0.366676   1.000000
  131       -0.113158   1.000000
  132       -0.095763   1.000000
  133        0.048533   1.000707
  134        0.210852   1.023419
  135        0.234745   0.974719
  136        0.245111   0.937849
  137        0.316891   0.435802
  138        0.396586  -0.006448
  139        0.425870  -0.034880
  140        0.426031  -0.034912
  141        0.514871  -0.006646
  142        0.543287  -0.002296
  143        0.562577  -0.000998
  144        0.565059  -0.000891
  145        0.582890  -0.000378
  146        0.624239  -0.000039
  147        0.649589  -0.000008
  148        0.762304  -0.000000
  149        0.799020  -0.000000
  150        0.802408  -0.000000
  151        0.948686  -0.000000
  152        1.041467  -0.000000
  153        1.079313  -0.000000
  154        1.140459  -0.000000
  155        1.147777  -0.000000
  156        1.168399  -0.000000
  157        1.184562  -0.000000
  158        1.308244  -0.000000
  159        1.327914  -0.000000
  160        1.330399  -0.000000
  161        1.335279  -0.000000
  162        1.373650  -0.000000
  163        1.384785  -0.000000
  164        1.399477  -0.000000
  165        1.530926  -0.000000
  166        1.603972  -0.000000
  167        1.626536  -0.000000
  168        1.658689  -0.000000
  169        1.696368  -0.000000
  170        1.708837  -0.000000
  171        1.727407  -0.000000
  172        2.302330  -0.000000
  173        2.351820  -0.000000
  174        2.379127  -0.000000
  175        2.388551  -0.000000
  176        2.692994  -0.000000

  0.2000000E+00  0.1262379E-14  0.3742002E-15  0.4444444E-01
    1      -14.042808   1.000000
    2      -13.322327   1.000000
    3      -12.819575   1.000000
    4      -12.416572   1.000000
    5      -12.139061   1.000000
    6      -11.953688   1.000000
    7      -11.700417   1.000000
    8      -11.356528   1.000000
    9      -11.336006   1.000000
   10      -11.281057   1.000000
   11      -11.225915   1.000000
   12      -11.149400   1.000000
   13      -10.923384   1.000000
   14      -10.652055   1.000000
   15      -10.626016   1.000000
   16      -10.604756   1.000000
   17      -10.537507   1.000000
   18       -9.833819   1.000000
   19       -9.685366   1.000000
   20       -9.612020   1.000000
   21       -9.535890   1.000000
   22       -9.522359   1.000000
   23       -9.446438   1.000000
   24       -9.374570   1.000000
   25       -9.073726   1.000000
   26       -8.851069   1.000000
   27       -8.317818   1.000000
   28       -8.229359   1.000000
   29       -8.198398   1.000000
   30       -8.162698   1.000000
   31       -8.112740   1.000000
   32       -8.097038   1.000000
   33       -7.645971   1.000000
   34       -7.509401   1.000000
   35       -7.275791   1.000000
   36       -7.264142   1.000000
   37       -7.163854   1.000000
   38       -6.990825   1.000000
   39       -6.940688   1.000000
   40       -6.766105   1.000000
   41       -6.709738   1.000000
   42       -6.649871   1.000000
   43       -6.532967   1.000000
   44       -6.503432   1.000000
   45       -6.394265   1.000000
   46       -6.354630   1.000000
   47       -6.231680   1.000000
   48       -6.121781   1.000000
   49       -6.073326   1.000000
   50       -6.065900   1.000000
   51       -5.745311   1.000000
   52       -5.716191   1.000000
   53       -5.630690   1.000000
   54       -5.448550   1.000000
   55       -5.398721   1.000000
   56       -5.387847   1.000000
   57       -5.361456   1.000000
   58       -5.315022   1.000000
   59       -5.293872   1.000000
   60       -5.240445   1.000000
   61       -5.170760   1.000000
   62       -4.882461   1.000000
   63       -4.850212   1.000000
   64       -4.761763   1.000000
   65       -4.617319   1.000000
   66       -4.567348   1.000000
   67       -4.545997   1.000000
   68       -4.484473   1.000000
   69       -4.168425   1.000000
   70       -4.161423   1.000000
   71       -4.142728   1.000000
   72       -4.115695   1.000000
   73       -4.082450   1.000000
   74       -4.060651   1.000000
   75       -3.929389   1.000000
   76       -3.921463   1.000000
   77       -3.889561   1.000000
   78       -3.792815   1.000000
   79       -3.772527   1.000000
   80       -3.743839   1.000000
   81       -3.696790   1.000000
   82       -3.670458   1.000000
   83       -3.649940   1.000000
   84       -3.631638   1.000000
   85       -3.599449   1.000000
   86       -3.518805   1.000000
   87       -3.505980   1.000000
   88       -3.493179   1.000000
   89       -3.479243   1.000000
   90       -3.469740   1.000000
   91       -3.361260   1.000000
   92       -3.332760   1.000000
   93       -3.053138   1.000000
   94       -3.010373   1.000000
   95       -2.988891   1.000000
   96       -2.851591   1.000000
   97       -2.827767   1.000000
   98       -2.738414   1.000000
   99       -2.652341   1.000000
  100       -2.535363   1.000000
  101       -2.398541   1.000000
  102       -2.370184   1.000000
  103       -2.362916   1.000000
  104       -2.263850   1.000000
  105       -2.143364   1.000000
  106       -2.043640   1.000000
  107       -2.027543   1.000000
  108       -2.011142   1.000000
  109       -1.973495   1.000000
  110       -1.958963   1.000000
  111       -1.909969   1.000000
  112       -1.901294   1.000000
  113       -1.713948   1.000000
  114       -1.655067   1.000000
  115       -1.622274   1.000000
  116       -1.548974   1.000000
  117       -1.504226   1.000000
  118       -1.473562   1.000000
  119       -1.440355   1.000000
  120       -1.362854   1.000000
  121       -1.185874   1.000000
  122       -1.009122   1.000000
  123       -0.945331   1.000000
  124       -0.895694   1.000000
  125       -0.819529   1.000000
  126       -0.710383   1.000000
  127       -0.573940   1.000000
  128       -0.483914   1.000000
  129       -0.447354   1.000000
  130       -0.388338   1.000000
  131       -0.264798   1.000000
  132       -0.237886   1.000000
  133       -0.133078   1.000000
  134        0.092834   1.004535
  135        0.102933   1.006477
  136        0.188267   1.035424
  137        0.281909   0.722302
  138        0.391445   0.004622
  139        0.408620  -0.024428
  140        0.512905  -0.007099
  141        0.555060  -0.001395
  142        0.584786  -0.000344
  143        0.602773  -0.000134
  144        0.606410  -0.000110
  145        0.649700  -0.000008
  146        0.668273  -0.000002
  147        0.701821  -0.000000
  148        0.737950  -0.000000
  149        0.835149  -0.000000
  150        0.888876  -0.000000
  151        1.009844  -0.000000
  152        1.070378  -0.000000
  153        1.104350  -0.000000
  154        1.172642  -0.000000
  155        1.212050  -0.000000
  156        1.230034  -0.000000
  157        1.287848  -0.000000
  158        1.303339  -0.000000
  159        1.322648  -0.000000
  160        1.333070  -0.000000
  161        1.398470  -0.000000
  162        1.406775  -0.000000
  163        1.412812  -0.000000
  164        1.483492  -0.000000
  165        1.523384  -0.000000
  166        1.601671  -0.000000
  167        1.630777  -0.000000
  168        1.643413  -0.000000
  169        1.741496  -0.000000
  170        1.748586  -0.000000
  171        2.093028  -0.000000
  172        2.235378  -0.000000
  173        2.361953  -0.000000
  174        2.432143  -0.000000
  175        2.521778  -0.000000
  176        3.726117   0.000000

  0.4000000E+00  0.1262379E-14  0.3742002E-15  0.4444444E-01
    1      -13.895760   1.000000
    2      -13.653943   1.000000
    3      -12.681908   1.000000
    4      -12.452509   1.000000
    5      -11.904289   1.000000
    6      -11.860481   1.000000
    7      -11.820346   1.000000
    8      -11.306080   1.000000
    9      -11.261696   1.000000
   10      -11.251450   1.000000
   11      -11.115727   1.000000
   12      -11.093802   1.000000
   13      -10.899467   1.000000
   14      -10.863983   1.000000
   15      -10.780697   1.000000
   16      -10.737234   1.000000
   17      -10.640946   1.000000
   18      -10.149940   1.000000
   19       -9.694541   1.000000
   20       -9.650180   1.000000
   21       -9.450839   1.000000
   22       -9.399785   1.000000
   23       -9.351298   1.000000
   24       -9.285847   1.000000
   25       -9.100436   1.000000
   26       -8.826098   1.000000
   27       -8.349330   1.000000
   28       -8.095551   1.000000
   29       -7.904537   1.000000
   30       -7.887515   1.000000
   31       -7.851815   1.000000
   32       -7.818067   1.000000
   33       -7.795614   1.000000
   34       -7.778037   1.000000
   35       -7.531138   1.000000
   36       -7.494198   1.000000
   37       -7.380172   1.000000
   38       -7.289010   1.000000
   39       -7.146290   1.000000
   40       -6.868496   1.000000
   41       -6.728183   1.000000
   42       -6.544487   1.000000
   43       -6.509394   1.000000
   44       -6.420865   1.000000
   45       -6.406205   1.000000
   46       -6.179772   1.000000
   47       -6.111773   1.000000
   48       -6.028158   1.000000
   49       -5.928282   1.000000
   50       -5.892941   1.000000
   51       -5.867756   1.000000
   52       -5.768696   1.000000
   53       -5.760114   1.000000
   54       -5.598651   1.000000
   55       -5.489346   1.000000
   56       -5.345029   1.000000
   57       -5.193853   1.000000
   58       -5.169232   1.000000
   59       -5.152256   1.000000
   60       -5.121324   1.000000
   61       -5.074661   1.000000
   62       -4.953472   1.000000
   63       -4.916860   1.000000
   64       -4.746515   1.000000
   65       -4.694679   1.000000
   66       -4.621051   1.000000
   67       -4.461512   1.000000
   68       -4.398121   1.000000
   69       -4.350896   1.000000
   70       -4.269164   1.000000
   71       -4.170314   1.000000
   72       -4.127772   1.000000
   73       -4.113605   1.000000
   74       -4.079886   1.000000
   75       -4.040287   1.000000
   76       -3.981952   1.000000
   77       -3.966517   1.000000
   78       -3.855972   1.000000
   79       -3.760095   1.000000
   80       -3.734585   1.000000
   81       -3.725840   1.000000
   82       -3.724463   1.000000
   83       -3.676142   1.000000
   84       -3.625264   1.000000
   85       -3.520844   1.000000
   86       -3.510977   1.000000
   87       -3.483230   1.000000
   88       -3.352155   1.000000
   89       -3.335798   1.000000
   90       -3.310242   1.000000
   91       -3.295713   1.000000
   92       -3.245461   1.000000
   93       -3.167094   1.000000
   94       -3.102716   1.000000
   95       -3.070974   1.000000
   96       -2.983747   1.000000
   97       -2.864317   1.000000
   98       -2.858879   1.000000
   99       -2.688828   1.000000
  100       -2.537645   1.000000
  101       -2.379000   1.000000
  102       -2.319851   1.000000
  103       -2.231517   1.000000
  104       -2.227319   1.000000
  105       -2.208313   1.000000
  106       -2.117198   1.000000
  107       -2.075474   1.000000
  108       -2.015351   1.000000
  109       -2.010932   1.000000
  110       -1.998528   1.000000
  111       -1.729481   1.000000
  112       -1.641660   1.000000
  113       -1.628705   1.000000
  114       -1.548066   1.000000
  115       -1.545670   1.000000
  116       -1.467767   1.000000
  117       -1.389771   1.000000
  118       -1.284045   1.000000
  119       -1.254507   1.000000
  120       -1.141983   1.000000
  121       -1.112142   1.000000
  122       -1.093153   1.000000
  123       -1.077068   1.000000
  124       -1.019140   1.000000
  125       -0.978989   1.000000
  126       -0.790938   1.000000
  127       -0.737983   1.000000
  128       -0.723706   1.000000
  129       -0.611832   1.000000
  130       -0.603629   1.000000
  131       -0.450848   1.000000
  132       -0.365104   1.000000
  133       -0.131880   1.000000
  134       -0.102349   1.000000
  135        0.032364   1.000320
  136        0.234187   0.976411
  137        0.281106   0.728269
  138        0.301897   0.562299
  139        0.440801  -0.034346
  140        0.488433  -0.014760
  141        0.522758  -0.005050
  142        0.533140  -0.003434
  143        0.585655  -0.000329
  144        0.602171  -0.000138
  145        0.653132  -0.000007
  146        0.671714  -0.000002
  147        0.797029  -0.000000
  148        0.829400  -0.000000
  149        0.944180  -0.000000
  150        0.984372  -0.000000
  151        1.131787  -0.000000
  152        1.148660  -0.000000
  153        1.197903  -0.000000
  154        1.215714  -0.000000
  155        1.235228  -0.000000
  156        1.298695  -0.000000
  157        1.328737  -0.000000
  158        1.407619  -0.000000
  159        1.415543  -0.000000
  160        1.435740  -0.000000
  161        1.464876  -0.000000
  162        1.486852  -0.000000
  163        1.523596  -0.000000
  164        1.552601  -0.000000
  165        1.589022  -0.000000
  166        1.620002  -0.000000
  167        1.691792  -0.000000
  168        1.705094  -0.000000
  169        1.735071  -0.000000
  170        1.765994  -0.000000
  171        1.805026  -0.000000
  172        1.862996  -0.000000
  173        1.904382  -0.000000
  174        2.655202  -0.000000
  175        2.755690  -0.000000
  176        3.032248  -0.000000

  0.3742002E-15  0.1262379E-14  0.1111111E+00  0.4444444E-01
    1      -14.046878   1.000000
    2      -12.874345   1.000000
    3      -12.873160   1.000000
    4      -12.825347   1.000000
    5      -12.074485   1.000000
    6      -11.720951   1.000000
    7      -11.711674   1.000000
    8      -11.591389   1.000000
    9      -11.587380   1.000000
   10      -11.414705   1.000000
   11      -11.232879   1.000000
   12      -11.073133   1.000000
   13      -11.051011   1.000000
   14      -10.531885   1.000000
   15      -10.526055   1.000000
   16      -10.256267   1.000000
   17      -10.219422   1.000000
   18      -10.096343   1.000000
   19       -9.705374   1.000000
   20       -9.688796   1.000000
   21       -9.609969   1.000000
   22       -9.568169   1.000000
   23       -9.426353   1.000000
   24       -9.335319   1.000000
   25       -8.906440   1.000000
   26       -8.883529   1.000000
   27       -8.543563   1.000000
   28       -8.509103   1.000000
   29       -8.248108   1.000000
   30       -8.203278   1.000000
   31       -8.022240   1.000000
   32       -7.904634   1.000000
   33       -7.837001   1.000000
   34       -7.394946   1.000000
   35       -7.369698   1.000000
   36       -7.156587   1.000000
   37       -7.029554   1.000000
   38       -6.848397   1.000000
   39       -6.836110   1.000000
   40       -6.692615   1.000000
   41       -6.691493   1.000000
   42       -6.656560   1.000000
   43       -6.504011   1.000000
   44       -6.459022   1.000000
   45       -6.404671   1.000000
   46       -6.322426   1.000000
   47       -6.238284   1.000000
   48       -6.200756   1.000000
   49       -6.197954   1.000000
   50       -5.850661   1.000000
   51       -5.782362   1.000000
   52       -5.744628   1.000000
   53       -5.698593   1.000000
   54       -5.684154   1.000000
   55       -5.487523   1.000000
   56       -5.458331   1.000000
   57       -5.434310   1.000000
   58       -5.293309   1.000000
   59       -5.243023   1.000000
   60       -5.212667   1.000000
   61       -4.949727   1.000000
   62       -4.726445   1.000000
   63       -4.709951   1.000000
   64       -4.668967   1.000000
   65       -4.618621   1.000000
   66       -4.580484   1.000000
   67       -4.501036   1.000000
   68       -4.468104   1.000000
   69       -4.189146   1.000000
   70       -4.168116   1.000000
   71       -4.132820   1.000000
   72       -4.099520   1.000000
   73       -4.076056   1.000000
   74       -4.023400   1.000000
   75       -4.008854   1.000000
   76       -3.997582   1.000000
   77       -3.980451   1.000000
   78       -3.977187   1.000000
   79       -3.843544   1.000000
   80       -3.809372   1.000000
   81       -3.801943   1.000000
   82       -3.724663   1.000000
   83       -3.685594   1.000000
   84       -3.668920   1.000000
   85       -3.597674   1.000000
   86       -3.566721   1.000000
   87       -3.542781   1.000000
   88       -3.517957   1.000000
   89       -3.505191   1.000000
   90       -3.455431   1.000000
   91       -3.401554   1.000000
   92       -3.295407   1.000000
   93       -3.000920   1.000000
   94       -2.969396   1.000000
   95       -2.945905   1.000000
   96       -2.813313   1.000000
   97       -2.762078   1.000000
   98       -2.702164   1.000000
   99       -2.549453   1.000000
  100       -2.511125   1.000000
  101       -2.465940   1.000000
  102       -2.446559   1.000000
  103       -2.273341   1.000000
  104       -2.265004   1.000000
  105       -2.237732   1.000000
  106       -2.146801   1.000000
  107       -2.050406   1.000000
  108       -2.043483   1.000000
  109       -2.003412   1.000000
  110       -2.003219   1.000000
  111       -1.891411   1.000000
  112       -1.799453   1.000000
  113       -1.759000   1.000000
  114       -1.755586   1.000000
  115       -1.695890   1.000000
  116       -1.643007   1.000000
  117       -1.581187   1.000000
  118       -1.555675   1.000000
  119       -1.366685   1.000000
  120       -1.319337   1.000000
  121       -1.109258   1.000000
  122       -1.054214   1.000000
  123       -0.961521   1.000000
  124       -0.798019   1.000000
  125       -0.722741   1.000000
  126       -0.597196   1.000000
  127       -0.578204   1.000000
  128       -0.562592   1.000000
  129       -0.521820   1.000000
  130       -0.259306   1.000000
  131       -0.196845   1.000000
  132       -0.170004   1.000000
  133        0.130230   1.014799
  134        0.201847   1.031221
  135        0.226382   0.997098
  136        0.251026   0.912030
  137        0.264819   0.838185
  138        0.326181   0.359218
  139        0.371615   0.069787
  140        0.391453   0.004603
  141        0.391583   0.004295
  142        0.412828  -0.028427
  143        0.568261  -0.000768
  144        0.572065  -0.000642
  145        0.593959  -0.000214
  146        0.757589  -0.000000
  147        0.790515  -0.000000
  148        0.893623  -0.000000
  149        0.935142  -0.000000
  150        0.951556  -0.000000
  151        0.968859  -0.000000
  152        1.018605  -0.000000
  153        1.052347  -0.000000
  154        1.108535  -0.000000
  155        1.130566  -0.000000
  156        1.231259  -0.000000
  157        1.237188  -0.000000
  158        1.261779  -0.000000
  159        1.292496  -0.000000
  160        1.336764  -0.000000
  161        1.354628  -0.000000
  162        1.376436  -0.000000
  163        1.399130  -0.000000
  164        1.431319  -0.000000
  165        1.529719  -0.000000
  166        1.545407  -0.000000
  167        1.564341  -0.000000
  168        1.594441  -0.000000
  169        1.650714  -0.000000
  170        1.702196  -0.000000
  171        1.784327  -0.000000
  172        1.853660  -0.000000
  173        1.998207  -0.000000
  174        2.351405  -0.000000
  175        2.375456  -0.000000
  176        2.513849  -0.000000

  0.2000000E+00  0.1262379E-14  0.1111111E+00  0.8888889E-01
    1      -13.997923   1.000000
    2      -13.283747   1.000000
    3      -12.781840   1.000000
    4      -12.387672   1.000000
    5      -12.107195   1.000000
    6      -12.055092   1.000000
    7      -11.761643   1.000000
    8      -11.400823   1.000000
    9      -11.383908   1.000000
   10      -11.257464   1.000000
   11      -11.192260   1.000000
   12      -11.170911   1.000000
   13      -10.924346   1.000000
   14      -10.636517   1.000000
   15      -10.606312   1.000000
   16      -10.583966   1.000000
   17      -10.549732   1.000000
   18       -9.816443   1.000000
   19       -9.712519   1.000000
   20       -9.611642   1.000000
   21       -9.552349   1.000000
   22       -9.517107   1.000000
   23       -9.437114   1.000000
   24       -9.380028   1.000000
   25       -9.069530   1.000000
   26       -8.842233   1.000000
   27       -8.341376   1.000000
   28       -8.228577   1.000000
   29       -8.201820   1.000000
   30       -8.159543   1.000000
   31       -8.108587   1.000000
   32       -7.953317   1.000000
   33       -7.731788   1.000000
   34       -7.586270   1.000000
   35       -7.352639   1.000000
   36       -7.159837   1.000000
   37       -7.142177   1.000000
   38       -6.976455   1.000000
   39       -6.943038   1.000000
   40       -6.753567   1.000000
   41       -6.698833   1.000000
   42       -6.600489   1.000000
   43       -6.580835   1.000000
   44       -6.536469   1.000000
   45       -6.493635   1.000000
   46       -6.381631   1.000000
   47       -6.167185   1.000000
   48       -6.159275   1.000000
   49       -6.024881   1.000000
   50       -5.893227   1.000000
   51       -5.770133   1.000000
   52       -5.739296   1.000000
   53       -5.606371   1.000000
   54       -5.473241   1.000000
   55       -5.403762   1.000000
   56       -5.349471   1.000000
   57       -5.323125   1.000000
   58       -5.271284   1.000000
   59       -5.250741   1.000000
   60       -5.195768   1.000000
   61       -5.145280   1.000000
   62       -4.869531   1.000000
   63       -4.812780   1.000000
   64       -4.723899   1.000000
   65       -4.600897   1.000000
   66       -4.563281   1.000000
   67       -4.493007   1.000000
   68       -4.452388   1.000000
   69       -4.197286   1.000000
   70       -4.183612   1.000000
   71       -4.156374   1.000000
   72       -4.109605   1.000000
   73       -4.077960   1.000000
   74       -4.059963   1.000000
   75       -4.015799   1.000000
   76       -3.993767   1.000000
   77       -3.936101   1.000000
   78       -3.828740   1.000000
   79       -3.808476   1.000000
   80       -3.800011   1.000000
   81       -3.783434   1.000000
   82       -3.753777   1.000000
   83       -3.711472   1.000000
   84       -3.691084   1.000000
   85       -3.656554   1.000000
   86       -3.628308   1.000000
   87       -3.555011   1.000000
   88       -3.499261   1.000000
   89       -3.478958   1.000000
   90       -3.377494   1.000000
   91       -3.348917   1.000000
   92       -3.308031   1.000000
   93       -3.010544   1.000000
   94       -2.973932   1.000000
   95       -2.934073   1.000000
   96       -2.888781   1.000000
   97       -2.855806   1.000000
   98       -2.722790   1.000000
   99       -2.659703   1.000000
  100       -2.545860   1.000000
  101       -2.404358   1.000000
  102       -2.380670   1.000000
  103       -2.305953   1.000000
  104       -2.257693   1.000000
  105       -2.206002   1.000000
  106       -2.076392   1.000000
  107       -2.059116   1.000000
  108       -2.040040   1.000000
  109       -2.007630   1.000000
  110       -1.967480   1.000000
  111       -1.887494   1.000000
  112       -1.806349   1.000000
  113       -1.743060   1.000000
  114       -1.655266   1.000000
  115       -1.629489   1.000000
  116       -1.581493   1.000000
  117       -1.543253   1.000000
  118       -1.442791   1.000000
  119       -1.411597   1.000000
  120       -1.312692   1.000000
  121       -1.120735   1.000000
  122       -1.098967   1.000000
  123       -0.932390   1.000000
  124       -0.885650   1.000000
  125       -0.799848   1.000000
  126       -0.717773   1.000000
  127       -0.668282   1.000000
  128       -0.644507   1.000000
  129       -0.427881   1.000000
  130       -0.363920   1.000000
  131       -0.197503   1.000000
  132       -0.063497   1.000001
  133        0.032772   1.000327
  134        0.111785   1.008661
  135        0.123961   1.012472
  136        0.134355   1.016455
  137        0.189775   1.035316
  138        0.323240   0.383135
  139        0.350319   0.183014
  140        0.408423  -0.024214
  141        0.474577  -0.020639
  142        0.521234  -0.005332
  143        0.581284  -0.000410
  144        0.602582  -0.000135
  145        0.619341  -0.000053
  146        0.744285  -0.000000
  147        0.811581  -0.000000
  148        0.855273  -0.000000
  149        0.969235  -0.000000
  150        0.978929  -0.000000
  151        0.999781  -0.000000
  152        1.020051  -0.000000
  153        1.098302  -0.000000
  154        1.176530  -0.000000
  155        1.257711  -0.000000
  156        1.277219  -0.000000
  157        1.287039  -0.000000
  158        1.310210  -0.000000
  159        1.322646  -0.000000
  160        1.341804  -0.000000
  161        1.364981  -0.000000
  162        1.382866  -0.000000
  163        1.396677  -0.000000
  164        1.477153  -0.000000
  165        1.507387  -0.000000
  166        1.537450  -0.000000
  167        1.551284  -0.000000
  168        1.626335  -0.000000
  169        1.642229  -0.000000
  170        1.684749  -0.000000
  171        1.759652  -0.000000
  172        1.793864  -0.000000
  173        1.940259  -0.000000
  174        2.166786  -0.000000
  175        2.335956  -0.000000
  176        3.534119   0.000000

  0.4000000E+00  0.1262379E-14  0.1111111E+00  0.8888889E-01
    1      -13.852095   1.000000
    2      -13.612362   1.000000
    3      -12.645281   1.000000
    4      -12.417805   1.000000
    5      -11.997959   1.000000
    6      -11.916507   1.000000
    7      -11.817162   1.000000
    8      -11.357449   1.000000
    9      -11.295280   1.000000
   10      -11.228927   1.000000
   11      -11.118047   1.000000