   52   52    1    1
  0.1928801E+02  0.8733603E-09  0.6079487E-09  0.2183401E-08  0.5000000E-15
   1.0000000000000000E-004
  CAR 
 Name                                    
    188     50    126

  0.3742002E-15  0.3742002E-15  0.1262379E-14  0.1010101E-01
    1      -12.999455   1.000000
    2      -11.751273   1.000000
    3      -11.535573   1.000000
    4      -11.136606   1.000000
    5      -10.617668   1.000000
    6      -10.359567   1.000000
    7      -10.079773   1.000000
    8       -9.977142   1.000000
    9       -9.886390   1.000000
   10       -9.683353   1.000000
   11       -9.678977   1.000000
   12       -9.589528   1.000000
   13       -9.257554   1.000000
   14       -9.234512   1.000000
   15       -8.844770   1.000000
   16       -8.830981   1.000000
   17       -8.292639   1.000000
   18       -8.179424   1.000000
   19       -8.173344   1.000000
   20       -7.510549   1.000000
   21       -7.504149   1.000000
   22       -7.335512   1.000000
   23       -7.329187   1.000000
   24       -7.057001   1.000000
   25       -7.049360   1.000000
   26       -7.024790   1.000000
   27       -6.656559   1.000000
   28       -6.449760   1.000000
   29       -6.154427   1.000000
   30       -5.581365   1.000000
   31       -5.565227   1.000000
   32       -5.458202   1.000000
   33       -5.134896   1.000000
   34       -5.104944   1.000000
   35       -4.830201   1.000000
   36       -4.638284   1.000000
   37       -4.555188   1.000000
   38       -4.524757   1.000000
   39       -4.271685   1.000000
   40       -4.228389   1.000000
   41       -4.212875   1.000000
   42       -4.164758   1.000000
   43       -4.007879   1.000000
   44       -3.855108   1.000000
   45       -3.779574   1.000000
   46       -3.758472   1.000000
   47       -3.706197   1.000000
   48       -3.699969   1.000000
   49       -3.552350   1.000000
   50       -3.504724   1.000000
   51       -3.415579   1.000000
   52       -3.396033   1.000000
   53       -3.329422   1.000000
   54       -3.160810   1.000000
   55       -3.043029   1.000000
   56       -3.028701   1.000000
   57       -3.013689   1.000000
   58       -2.887263   1.000000
   59       -2.811686   1.000000
   60       -2.780142   1.000000
   61       -2.731070   1.000000
   62       -2.584628   1.000000
   63       -2.563316   1.000000
   64       -2.495387   1.000000
   65       -2.463906   1.000000
   66       -2.378465   1.000000
   67       -2.308473   1.000000
   68       -2.211580   1.000000
   69       -2.186780   1.000000
   70       -2.039797   1.000000
   71       -2.038911   1.000000
   72       -2.008444   1.000000
   73       -1.920752   1.000000
   74       -1.899612   1.000000
   75       -1.474413   1.000000
   76       -1.257950   1.000000
   77       -1.081734   1.000000
   78       -1.044617   1.000000
   79       -0.986884   1.000000
   80       -0.934918   1.000000
   81       -0.898174   1.000000
   82       -0.515117   1.000000
   83       -0.318023   1.000000
   84       -0.315114   1.000000
   85       -0.256482   1.000000
   86        0.131213   1.000000
   87        0.132151   1.000000
   88        0.242607   1.000000
   89        0.281589   1.000000
   90        0.698674   1.000073
   91        0.779212   1.003431
   92        0.911084   1.014731
   93        0.989088   0.617274
   94        1.116358  -0.033980
   95        1.178115  -0.016418
   96        1.181034  -0.015237
   97        1.220987  -0.004301
   98        1.402110  -0.000000
   99        1.505561  -0.000000
  100        1.509042  -0.000000
  101        1.523516  -0.000000
  102        1.570658  -0.000000
  103        1.652010  -0.000000
  104        1.673591  -0.000000
  105        1.692033  -0.000000
  106        1.852411  -0.000000
  107        1.859498  -0.000000
  108        2.069486  -0.000000
  109        2.095229  -0.000000
  110        2.206914  -0.000000
  111        2.249271  -0.000000
  112        2.292523  -0.000000
  113        2.300223  -0.000000
  114        2.341020  -0.000000
  115        2.358200  -0.000000
  116        2.505421  -0.000000
  117        2.528127  -0.000000
  118        2.659144  -0.000000
  119        2.695306  -0.000000
  120        2.773062  -0.000000
  121        2.809564  -0.000000
  122        2.875618  -0.000000
  123        2.913575  -0.000000
  124        3.085037  -0.000000
  125        4.682359   0.000000
  126        5.279575   0.000000

  0.1111111E+00  0.3694577E-15  0.1266495E-14  0.2020202E-01
    1      -12.974264   1.000000
    2      -11.728567   1.000000
    3      -11.668997   1.000000
    4      -11.055184   1.000000
    5      -10.604143   1.000000
    6      -10.400251   1.000000
    7      -10.067265   1.000000
    8       -9.979420   1.000000
    9       -9.891463   1.000000
   10       -9.679286   1.000000
   11       -9.670956   1.000000
   12       -9.579133   1.000000
   13       -9.248234   1.000000
   14       -9.226422   1.000000
   15       -8.833266   1.000000
   16       -8.819745   1.000000
   17       -8.272873   1.000000
   18       -8.185172   1.000000
   19       -8.180713   1.000000
   20       -7.502279   1.000000
   21       -7.494730   1.000000
   22       -7.388410   1.000000
   23       -7.385050   1.000000
   24       -7.064338   1.000000
   25       -7.058529   1.000000
   26       -6.962402   1.000000
   27       -6.763206   1.000000
   28       -6.466345   1.000000
   29       -6.102587   1.000000
   30       -5.570803   1.000000
   31       -5.557278   1.000000
   32       -5.380314   1.000000
   33       -5.118976   1.000000
   34       -5.081197   1.000000
   35       -4.899095   1.000000
   36       -4.634007   1.000000
   37       -4.569721   1.000000
   38       -4.515842   1.000000
   39       -4.362350   1.000000
   40       -4.224986   1.000000
   41       -4.216502   1.000000
   42       -4.155595   1.000000
   43       -3.929996   1.000000
   44       -3.892575   1.000000
   45       -3.741154   1.000000
   46       -3.699502   1.000000
   47       -3.692670   1.000000
   48       -3.659681   1.000000
   49       -3.543260   1.000000
   50       -3.535999   1.000000
   51       -3.396979   1.000000
   52       -3.382275   1.000000
   53       -3.309739   1.000000
   54       -3.177132   1.000000
   55       -3.052039   1.000000
   56       -3.016600   1.000000
   57       -2.993056   1.000000
   58       -2.878762   1.000000
   59       -2.837626   1.000000
   60       -2.807668   1.000000
   61       -2.731354   1.000000
   62       -2.606275   1.000000
   63       -2.570556   1.000000
   64       -2.493378   1.000000
   65       -2.474305   1.000000
   66       -2.374474   1.000000
   67       -2.319851   1.000000
   68       -2.231945   1.000000
   69       -2.210591   1.000000
   70       -2.048079   1.000000
   71       -2.017110   1.000000
   72       -1.980165   1.000000
   73       -1.906422   1.000000
   74       -1.874836   1.000000
   75       -1.549667   1.000000
   76       -1.260817   1.000000
   77       -1.099004   1.000000
   78       -1.081610   1.000000
   79       -0.997596   1.000000
   80       -0.900625   1.000000
   81       -0.891945   1.000000
   82       -0.428056   1.000000
   83       -0.333674   1.000000
   84       -0.331706   1.000000
   85       -0.275598   1.000000
   86        0.120902   1.000000
   87        0.132976   1.000000
   88        0.263883   1.000000
   89        0.353269   1.000000
   90        0.656085   1.000005
   91        0.730381   1.000396
   92        0.877311   1.035296
   93        1.003551   0.496161
   94        1.133044  -0.034682
   95        1.167648  -0.020977
   96        1.211799  -0.005975
   97        1.247499  -0.001482
   98        1.429756  -0.000000
   99        1.478302  -0.000000
  100        1.491309  -0.000000
  101        1.505636  -0.000000
  102        1.554513  -0.000000
  103        1.665977  -0.000000
  104        1.695818  -0.000000
  105        1.702058  -0.000000
  106        1.893828  -0.000000
  107        1.894488  -0.000000
  108        2.103112  -0.000000
  109        2.135100  -0.000000
  110        2.185828  -0.000000
  111        2.254091  -0.000000
  112        2.295448  -0.000000
  113        2.314408  -0.000000
  114        2.355057  -0.000000
  115        2.361818  -0.000000
  116        2.491207  -0.000000
  117        2.500982  -0.000000
  118        2.621002  -0.000000
  119        2.678662  -0.000000
  120        2.748976  -0.000000
  121        2.817444  -0.000000
  122        2.866964  -0.000000
  123        2.965547  -0.000000
  124        3.099736  -0.000000
  125        3.153050  -0.000000
  126        4.635660   0.000000

  0.2222222E+00  0.3681327E-15  0.1265439E-14  0.2020202E-01
    1      -12.899323   1.000000
    2      -11.912652   1.000000
    3      -11.661411   1.000000
    4      -10.998846   1.000000
    5      -10.566474   1.000000
    6      -10.454060   1.000000
    7      -10.035961   1.000000
    8       -9.985481   1.000000
    9       -9.896340   1.000000
   10       -9.669493   1.000000
   11       -9.652613   1.000000
   12       -9.580292   1.000000
   13       -9.229627   1.000000
   14       -9.209212   1.000000
   15       -8.799544   1.000000
   16       -8.787214   1.000000
   17       -8.215231   1.000000
   18       -8.194628   1.000000
   19       -8.172226   1.000000
   20       -7.531692   1.000000
   21       -7.523343   1.000000
   22       -7.469443   1.000000
   23       -7.468033   1.000000
   24       -7.100398   1.000000
   25       -7.097824   1.000000
   26       -6.985772   1.000000
   27       -6.778538   1.000000
   28       -6.478297   1.000000
   29       -6.054977   1.000000
   30       -5.554276   1.000000
   31       -5.545113   1.000000
   32       -5.185633   1.000000
   33       -5.119709   1.000000
   34       -5.056115   1.000000
   35       -5.019142   1.000000
   36       -4.657330   1.000000
   37       -4.566465   1.000000
   38       -4.533078   1.000000
   39       -4.445442   1.000000
   40       -4.252712   1.000000
   41       -4.107423   1.000000
   42       -4.015216   1.000000
   43       -3.973468   1.000000
   44       -3.925092   1.000000
   45       -3.730109   1.000000
   46       -3.704126   1.000000
   47       -3.654211   1.000000
   48       -3.584708   1.000000
   49       -3.554841   1.000000
   50       -3.447453   1.000000
   51       -3.349483   1.000000
   52       -3.335599   1.000000
   53       -3.281370   1.000000
   54       -3.165025   1.000000
   55       -3.087102   1.000000
   56       -2.985983   1.000000
   57       -2.980632   1.000000
   58       -2.902484   1.000000
   59       -2.874011   1.000000
   60       -2.826410   1.000000
   61       -2.737199   1.000000
   62       -2.655873   1.000000
   63       -2.547964   1.000000
   64       -2.505664   1.000000
   65       -2.487384   1.000000
   66       -2.369749   1.000000
   67       -2.368770   1.000000
   68       -2.268199   1.000000
   69       -2.248075   1.000000
   70       -2.098790   1.000000
   71       -2.072086   1.000000
   72       -1.886219   1.000000
   73       -1.812306   1.000000
   74       -1.772318   1.000000
   75       -1.709809   1.000000
   76       -1.284067   1.000000
   77       -1.218708   1.000000
   78       -1.119127   1.000000
   79       -1.058648   1.000000
   80       -0.881308   1.000000
   81       -0.767112   1.000000
   82       -0.392172   1.000000
   83       -0.388392   1.000000
   84       -0.337661   1.000000
   85       -0.202899   1.000000
   86        0.140652   1.000000
   87        0.144687   1.000000
   88        0.305738   1.000000
   89        0.541068   1.000000
   90        0.559335   1.000000
   91        0.621881   1.000000
   92        0.780989   1.003672
   93        1.063308   0.079044
   94        1.095991  -0.016094
   95        1.152546  -0.027897
   96        1.263392  -0.000722
   97        1.370964  -0.000001
   98        1.393078  -0.000000
   99        1.404587  -0.000000
  100        1.495400  -0.000000
  101        1.511331  -0.000000
  102        1.523813  -0.000000
  103        1.688093  -0.000000
  104        1.700847  -0.000000
  105        1.744402  -0.000000
  106        2.030747  -0.000000
  107        2.033147  -0.000000
  108        2.112408  -0.000000
  109        2.180534  -0.000000
  110        2.182070  -0.000000
  111        2.266026  -0.000000
  112        2.285346  -0.000000
  113        2.346838  -0.000000
  114        2.387948  -0.000000
  115        2.394946  -0.000000
  116        2.455604  -0.000000
  117        2.488836  -0.000000
  118        2.582052  -0.000000
  119        2.628425  -0.000000
  120        2.724076  -0.000000
  121        2.779076  -0.000000
  122        2.865856  -0.000000
  123        2.874158  -0.000000
  124        2.985707  -0.000000
  125        3.054458  -0.000000
  126        3.466346  -0.000000

  0.3333333E+00  0.3672355E-15  0.1308213E-14  0.2020202E-01
    1      -12.776586   1.000000
    2      -12.166788   1.000000
    3      -11.552962   1.000000
    4      -11.084361   1.000000
    5      -10.514022   1.000000
    6      -10.448471   1.000000
    7      -10.008309   1.000000
    8       -9.992811   1.000000
    9       -9.873844   1.000000
   10       -9.670609   1.000000
   11       -9.634130   1.000000
   12       -9.611666   1.000000
   13       -9.214055   1.000000
   14       -9.196836   1.000000
   15       -8.751480   1.000000
   16       -8.742245   1.000000
   17       -8.203865   1.000000
   18       -8.196444   1.000000
   19       -8.025553   1.000000
   20       -7.692377   1.000000
   21       -7.677868   1.000000
   22       -7.441903   1.000000
   23       -7.436075   1.000000
   24       -7.264019   1.000000
   25       -7.148177   1.000000
   26       -7.133520   1.000000
   27       -6.558578   1.000000
   28       -6.392412   1.000000
   29       -6.106731   1.000000
   30       -5.545061   1.000000
   31       -5.543255   1.000000
   32       -5.417007   1.000000
   33       -5.030272   1.000000
   34       -5.027633   1.000000
   35       -4.861048   1.000000
   36       -4.629263   1.000000
   37       -4.533670   1.000000
   38       -4.524532   1.000000
   39       -4.392760   1.000000
   40       -4.300356   1.000000
   41       -4.084775   1.000000
   42       -4.032732   1.000000
   43       -3.907748   1.000000
   44       -3.865993   1.000000
   45       -3.836047   1.000000
   46       -3.826333   1.000000
   47       -3.594673   1.000000
   48       -3.507164   1.000000
   49       -3.443411   1.000000
   50       -3.394552   1.000000
   51       -3.313407   1.000000
   52       -3.284996   1.000000
   53       -3.264974   1.000000
   54       -3.126412   1.000000
   55       -3.081806   1.000000
   56       -3.056062   1.000000
   57       -2.976729   1.000000
   58       -2.929604   1.000000
   59       -2.854424   1.000000
   60       -2.768825   1.000000
   61       -2.754675   1.000000
   62       -2.682143   1.000000
   63       -2.544746   1.000000
   64       -2.509674   1.000000
   65       -2.501619   1.000000
   66       -2.431929   1.000000
   67       -2.412629   1.000000
   68       -2.335713   1.000000
   69       -2.222477   1.000000
   70       -2.147244   1.000000
   71       -2.112912   1.000000
   72       -1.899838   1.000000
   73       -1.762394   1.000000
   74       -1.716061   1.000000
   75       -1.632785   1.000000
   76       -1.350562   1.000000
   77       -1.337095   1.000000
   78       -1.175638   1.000000
   79       -1.114943   1.000000
   80       -0.908295   1.000000
   81       -0.608016   1.000000
   82       -0.473261   1.000000
   83       -0.469833   1.000000
   84       -0.364763   1.000000
   85       -0.002387   1.000000
   86        0.183356   1.000000
   87        0.228301   1.000000
   88        0.403719   1.000000
   89        0.447270   1.000000
   90        0.513428   1.000000
   91        0.637127   1.000001
   92        0.788466   1.004844
   93        1.026853   0.305114
   94        1.040257   0.208306
   95        1.152471  -0.027930
   96        1.309890  -0.000064
   97        1.314449  -0.000049
   98        1.339490  -0.000011
   99        1.381638  -0.000001
  100        1.500967  -0.000000
  101        1.508045  -0.000000
  102        1.649782  -0.000000
  103        1.654087  -0.000000
  104        1.826346  -0.000000
  105        1.854342  -0.000000
  106        1.982389  -0.000000
  107        2.152226  -0.000000
  108        2.178558  -0.000000
  109        2.203408  -0.000000
  110        2.238684  -0.000000
  111        2.276199  -0.000000
  112        2.315382  -0.000000
  113        2.369227  -0.000000
  114        2.409776  -0.000000
  115        2.419494  -0.000000
  116        2.454420  -0.000000
  117        2.537230  -0.000000
  118        2.561021  -0.000000
  119        2.604761  -0.000000
  120        2.653904  -0.000000
  121        2.728581  -0.000000
  122        2.812073  -0.000000
  123        2.857914  -0.000000
  124        2.894454  -0.000000
  125        2.998253  -0.000000
  126        3.161087  -0.000000

  0.4444444E+00  0.3795814E-15  0.1235432E-14  0.2020202E-01
    1      -12.609524   1.000000
    2      -12.403526   1.000000
    3      -11.409600   1.000000
    4      -11.243932   1.000000
    5      -10.463915   1.000000
    6      -10.438602   1.000000
    7      -10.000322   1.000000
    8       -9.998005   1.000000
    9       -9.810038   1.000000
   10       -9.729006   1.000000
   11       -9.622960   1.000000
   12       -9.620867   1.000000
   13       -9.203185   1.000000
   14       -9.196039   1.000000
   15       -8.712436   1.000000
   16       -8.708693   1.000000
   17       -8.186049   1.000000
   18       -8.182653   1.000000
   19       -7.820341   1.000000
   20       -7.807289   1.000000
   21       -7.788840   1.000000
   22       -7.561521   1.000000
   23       -7.398005   1.000000
   24       -7.383951   1.000000
   25       -7.188370   1.000000
   26       -7.185036   1.000000
   27       -6.403341   1.000000
   28       -6.244433   1.000000
   29       -6.120622   1.000000
   30       -5.779151   1.000000
   31       -5.540047   1.000000
   32       -5.536794   1.000000
   33       -4.997705   1.000000
   34       -4.990709   1.000000
   35       -4.628272   1.000000
   36       -4.561925   1.000000
   37       -4.506254   1.000000
   38       -4.474745   1.000000
   39       -4.346509   1.000000
   40       -4.312038   1.000000
   41       -4.183603   1.000000
   42       -4.172898   1.000000
   43       -3.938510   1.000000
   44       -3.920282   1.000000
   45       -3.787177   1.000000
   46       -3.761068   1.000000
   47       -3.500086   1.000000
   48       -3.478657   1.000000
   49       -3.434589   1.000000
   50       -3.382508   1.000000
   51       -3.318982   1.000000
   52       -3.262264   1.000000
   53       -3.218541   1.000000
   54       -3.157965   1.000000
   55       -3.090991   1.000000
   56       -3.040752   1.000000
   57       -2.957904   1.000000
   58       -2.876400   1.000000
   59       -2.868129   1.000000
   60       -2.790650   1.000000
   61       -2.700265   1.000000
   62       -2.655606   1.000000
   63       -2.593170   1.000000
   64       -2.547614   1.000000
   65       -2.521490   1.000000
   66       -2.472089   1.000000
   67       -2.421623   1.000000
   68       -2.407067   1.000000
   69       -2.184001   1.000000
   70       -2.153095   1.000000
   71       -2.100642   1.000000
   72       -2.014837   1.000000
   73       -1.705207   1.000000
   74       -1.696279   1.000000
   75       -1.487035   1.000000
   76       -1.388194   1.000000
   77       -1.387309   1.000000
   78       -1.325708   1.000000
   79       -1.063172   1.000000
   80       -0.983766   1.000000
   81       -0.560852   1.000000
   82       -0.546056   1.000000
   83       -0.447699   1.000000
   84       -0.384035   1.000000
   85        0.143279   1.000000
   86        0.218645   1.000000
   87        0.311244   1.000000
   88        0.351675   1.000000
   89        0.451144   1.000000
   90        0.500779   1.000000
   91        0.623512   1.000001
   92        0.893941   1.032206
   93        0.978457   0.701669
   94        0.996290   0.557458
   95        1.052781   0.131643
   96        1.245273  -0.001631
   97        1.296461  -0.000135
   98        1.304539  -0.000086
   99        1.493126  -0.000000
  100        1.495453  -0.000000
  101        1.605838  -0.000000
  102        1.619043  -0.000000
  103        1.643991  -0.000000
  104        1.825307  -0.000000
  105        1.974869  -0.000000
  106        2.076040  -0.000000
  107        2.111651  -0.000000
  108        2.233852  -0.000000
  109        2.242590  -0.000000
  110        2.295892  -0.000000
  111        2.321758  -0.000000
  112        2.362045  -0.000000
  113        2.381845  -0.000000
  114        2.432385  -0.000000
  115        2.441971  -0.000000
  116        2.473415  -0.000000
  117        2.483315  -0.000000
  118        2.514037  -0.000000
  119        2.525129  -0.000000
  120        2.621171  -0.000000
  121        2.625030  -0.000000
  122        2.727130  -0.000000
  123        2.803308  -0.000000
  124        2.836690  -0.000000
  125        2.929505  -0.000000
  126        2.959527  -0.000000

  0.3742002E-15  0.9090909E-01  0.1339361E-14  0.2020202E-01
    1      -12.966519   1.000000
    2      -11.721488   1.000000
    3      -11.545499   1.000000
    4      -11.096364   1.000000
    5      -10.596060   1.000000
    6      -10.349308   1.000000
    7      -10.249940   1.000000
    8      -10.208769   1.000000
    9       -9.983763   1.000000
   10       -9.648747   1.000000
   11       -9.565349   1.000000
   12       -9.562536   1.000000
   13       -9.212566   1.000000
   14       -9.204098   1.000000
   15       -8.835177   1.000000
   16       -8.827837   1.000000
   17       -8.266537   1.000000
   18       -8.153607   1.000000
   19       -8.143188   1.000000
   20       -7.647561   1.000000
   21       -7.637534   1.000000
   22       -7.212085   1.000000
   23       -7.210710   1.000000
   24       -7.001923   1.000000
   25       -6.854444   1.000000
   26       -6.832247   1.000000
   27       -6.695681   1.000000
   28       -6.425496   1.000000
   29       -6.134980   1.000000
   30       -5.623793   1.000000
   31       -5.581108   1.000000
   32       -5.414567   1.000000
   33       -5.131151   1.000000
   34       -5.093163   1.000000
   35       -4.871969   1.000000
   36       -4.670302   1.000000
   37       -4.517531   1.000000
   38       -4.509845   1.000000
   39       -4.271730   1.000000
   40       -4.266341   1.000000
   41       -4.204347   1.000000
   42       -4.189436   1.000000
   43       -4.006692   1.000000
   44       -3.885366   1.000000
   45       -3.869686   1.000000
   46       -3.745305   1.000000
   47       -3.736842   1.000000
   48       -3.729828   1.000000
   49       -3.661862   1.000000
   50       -3.535838   1.000000
   51       -3.445967   1.000000
   52       -3.415845   1.000000
   53       -3.326136   1.000000
   54       -3.233437   1.000000
   55       -3.129311   1.000000
   56       -3.027518   1.000000
   57       -3.007640   1.000000
   58       -2.913516   1.000000
   59       -2.846510   1.000000
   60       -2.762212   1.000000
   61       -2.704267   1.000000
   62       -2.595065   1.000000
   63       -2.590972   1.000000
   64       -2.484517   1.000000
   65       -2.460225   1.000000
   66       -2.372038   1.000000
   67       -2.280738   1.000000
   68       -2.207053   1.000000
   69       -2.179277   1.000000
   70       -2.101664   1.000000
   71       -1.995912   1.000000
   72       -1.951694   1.000000
   73       -1.892644   1.000000
   74       -1.867687   1.000000
   75       -1.652876   1.000000
   76       -1.246084   1.000000
   77       -1.074753   1.000000
   78       -1.072940   1.000000
   79       -0.934761   1.000000
   80       -0.913698   1.000000
   81       -0.726572   1.000000
   82       -0.525155   1.000000
   83       -0.349914   1.000000
   84       -0.312365   1.000000
   85       -0.224552   1.000000
   86        0.077304   1.000000
   87        0.138058   1.000000
   88        0.199038   1.000000
   89        0.242783   1.000000
   90        0.560700   1.000000
   91        0.754364   1.001225
   92        0.900829   1.027324
   93        0.945845   0.907305
   94        1.006114   0.474482
   95        1.081172   0.015045
   96        1.154133  -0.027187
   97        1.225305  -0.003658
   98        1.395529  -0.000000
   99        1.396870  -0.000000
  100        1.530982  -0.000000
  101        1.540638  -0.000000
  102        1.669082  -0.000000
  103        1.707367  -0.000000
  104        1.756345  -0.000000
  105        1.779155  -0.000000
  106        1.855392  -0.000000
  107        1.933185  -0.000000
  108        2.100894  -0.000000
  109        2.136876  -0.000000
  110        2.222606  -0.000000
  111        2.245201  -0.000000
  112        2.287348  -0.000000
  113        2.332207  -0.000000
  114        2.334050  -0.000000
  115        2.377418  -0.000000
  116        2.506673  -0.000000
  117        2.526612  -0.000000
  118        2.559228  -0.000000
  119        2.686206  -0.000000
  120        2.721656  -0.000000
  121        2.760826  -0.000000
  122        2.824653  -0.000000
  123        2.884819  -0.000000
  124        2.951492  -0.000000
  125        3.166225  -0.000000
  126        3.534389  -0.000000

  0.1111111E+00  0.9090909E-01  0.1250028E-14  0.2020202E-01
    1      -12.920918   1.000000
    2      -11.743903   1.000000
    3      -11.680693   1.000000
    4      -10.996217   1.000000
    5      -10.571657   1.000000
    6      -10.407512   1.000000
    7      -10.317372   1.000000
    8      -10.147960   1.000000
    9       -9.940718   1.000000
   10       -9.640744   1.000000
   11       -9.555731   1.000000
   12       -9.534330   1.000000
   13       -9.241750   1.000000
   14       -9.222574   1.000000
   15       -8.800422   1.000000
   16       -8.796329   1.000000
   17       -8.237149   1.000000
   18       -8.156556   1.000000
   19       -8.142191   1.000000
   20       -7.694084   1.000000
   21       -7.639305   1.000000
   22       -7.293445   1.000000
   23       -7.260588   1.000000
   24       -6.913841   1.000000
   25       -6.878290   1.000000
   26       -6.854950   1.000000
   27       -6.793552   1.000000
   28       -6.451572   1.000000
   29       -6.063959   1.000000
   30       -5.679230   1.000000
   31       -5.508731   1.000000
   32       -5.272133   1.000000
   33       -5.131084   1.000000
   34       -5.042706   1.000000
   35       -4.966878   1.000000
   36       -4.718423   1.000000
   37       -4.534450   1.000000
   38       -4.457486   1.000000
   39       -4.432637   1.000000
   40       -4.289354   1.000000
   41       -4.166332   1.000000
   42       -4.126610   1.000000
   43       -3.985169   1.000000
   44       -3.883167   1.000000
   45       -3.781224   1.000000
   46       -3.779468   1.000000
   47       -3.723524   1.000000
   48       -3.629213   1.000000
   49       -3.607204   1.000000
   50       -3.515582   1.000000
   51       -3.424531   1.000000
   52       -3.376590   1.000000
   53       -3.321608   1.000000
   54       -3.247650   1.000000
   55       -3.138413   1.000000
   56       -3.028370   1.000000
   57       -3.000337   1.000000
   58       -2.884607   1.000000
   59       -2.865591   1.000000
   60       -2.780905   1.000000
   61       -2.679116   1.000000
   62       -2.627914   1.000000
   63       -2.582512   1.000000
   64       -2.524632   1.000000
   65       -2.480604   1.000000
   66       -2.410574   1.000000
   67       -2.318316   1.000000
   68       -2.232263   1.000000
   69       -2.226427   1.000000
   70       -2.059275   1.000000
   71       -1.980955   1.000000
   72       -1.941294   1.000000
   73       -1.866003   1.000000
   74       -1.846292   1.000000
   75       -1.710703   1.000000
   76       -1.266924   1.000000
   77       -1.140710   1.000000
   78       -1.120360   1.000000
   79       -0.965037   1.000000
   80       -0.819393   1.000000
   81       -0.795508   1.000000
   82       -0.448858   1.000000
   83       -0.414104   1.000000
   84       -0.288894   1.000000
   85       -0.212228   1.000000
   86        0.033195   1.000000
   87        0.213302   1.000000
   88        0.237511   1.000000
   89        0.354805   1.000000
   90        0.509398   1.000000
   91        0.737088   1.000550
   92        0.829196   1.016881
   93        0.971995   0.749630
   94        1.071474   0.045921
   95        1.105976  -0.027863
   96        1.201776  -0.008341
   97        1.226518  -0.003492
   98        1.325454  -0.000025
   99        1.358570  -0.000003
  100        1.575154  -0.000000
  101        1.606560  -0.000000
  102        1.626123  -0.000000
  103        1.708502  -0.000000
  104        1.739225  -0.000000
  105        1.792749  -0.000000
  106        1.830454  -0.000000
  107        2.058800  -0.000000
  108        2.148569  -0.000000
  109        2.155138  -0.000000
  110        2.182838  -0.000000
  111        2.258894  -0.000000
  112        2.271284  -0.000000
  113        2.343090  -0.000000
  114        2.375690  -0.000000
  115        2.411756  -0.000000
  116        2.472452  -0.000000
  117        2.508004  -0.000000
  118        2.562517  -0.000000
  119        2.599480  -0.000000
  120        2.722013  -0.000000
  121        2.733030  -0.000000
  122        2.799914  -0.000000
  123        2.890659  -0.000000
  124        3.005908  -0.000000
  125        3.119219  -0.000000
  126        3.174792  -0.000000

  0.2222222E+00  0.9090909E-01  0.1327369E-14  0.2020202E-01
    1      -12.826437   1.000000
    2      -11.994532   1.000000
    3      -11.596890   1.000000
    4      -10.997753   1.000000
    5      -10.527305   1.000000
    6      -10.437100   1.000000