 running on   48 total cores
 distrk:  each k-point on   48 cores,    1 groups
 distr:  one band on    8 cores,    6 groups
 using from now: INCAR     
 vasp.5.4.4.18Apr17-6-g9f103f2a35 (build Dec  7 2020 12:43:57) complex           
 POSCAR found type information on POSCAR  Mo V  B  H 
 POSCAR found :  4 types and      52 ions
 scaLAPACK will be used

 ----------------------------------------------------------------------------- 
|                                                                             |
|  ADVICE TO THIS USER RUNNING 'VASP/VAMP'   (HEAR YOUR MASTER'S VOICE ...):  |
|                                                                             |
|      You enforced a specific xc-type in the INCAR file,                     |
|      a different type was found on the POTCAR file                          |
|          I HOPE YOU KNOW, WHAT YOU ARE  DOING                               |
|                                                                             |
 ----------------------------------------------------------------------------- 

 LDA part: xc-table for Pade appr. of Perdew
 POSCAR, INCAR and KPOINTS ok, starting setup
 resort distribution
 resort distribution
 resort distribution
 resort distribution
 resort distribution
 resort distribution
 resort distribution
 resort distribution
 resort distribution
 resort distribution
 resort distribution
 resort distribution
 resort distribution
 resort distribution
 resort distribution
 resort distribution
 resort distribution
 resort distribution
 resort distribution
 resort distribution
 resort distribution
 resort distribution
 resort distribution
 resort distribution
 resort distribution
 resort distribution
 resort distribution
 resort distribution
 resort distribution
 resort distribution
 resort distribution
 resort distribution
 resort distribution
 resort distribution
 resort distribution
 resort distribution
 resort distribution
 resort distribution
 resort distribution
 resort distribution
 resort distribution
 resort distribution
 resort distribution
 resort distribution
 resort distribution
 resort distribution
 resort distribution
 resort distribution
 FFT: planning ...
 WAVECAR not read
 augmentation electrons   188.00422975435129     
 soft         electrons   0.0000000000000000     
 augmentation electrons   188.00422975435129     
 soft         electrons   0.0000000000000000     
 augmentation electrons   188.00422975435129     
 soft         electrons   0.0000000000000000     
 augmentation electrons   188.00422975435129     
 soft         electrons   0.0000000000000000     
 augmentation electrons   188.00422975435129     
 soft         electrons   0.0000000000000000     
 augmentation electrons   188.00422975435129     
 soft         electrons   0.0000000000000000     
 augmentation electrons   188.00422975435129     
 soft         electrons   0.0000000000000000     
 augmentation electrons   188.00422975435129     
 soft         electrons   0.0000000000000000     
 augmentation electrons   188.00422975435129     
 soft         electrons   0.0000000000000000     
 augmentation electrons   188.00422975435129     
 soft         electrons   0.0000000000000000     
 augmentation electrons   188.00422975435129     
 soft         electrons   0.0000000000000000     
 augmentation electrons   188.00422975435129     
 soft         electrons   0.0000000000000000     
 augmentation electrons   188.00422975435129     
 soft         electrons   0.0000000000000000     
 augmentation electrons   188.00422975435129     
 soft         electrons   0.0000000000000000     
 augmentation electrons   188.00422975435129     
 soft         electrons   0.0000000000000000     
 augmentation electrons   188.00422975435129     
 soft         electrons   0.0000000000000000     
 augmentation electrons   188.00422975435129     
 soft         electrons   0.0000000000000000     
 augmentation electrons   188.00422975435129     
 soft         electrons   0.0000000000000000     
 augmentation electrons   188.00422975435129     
 soft         electrons   0.0000000000000000     
 augmentation electrons   188.00422975435129     
 soft         electrons   0.0000000000000000     
 augmentation electrons   188.00422975435129     
 soft         electrons   0.0000000000000000     
 augmentation electrons   188.00422975435129     
 soft         electrons   0.0000000000000000     
 augmentation electrons   188.00422975435129     
 soft         electrons   0.0000000000000000     
 augmentation electrons   188.00422975435129     
 soft         electrons   0.0000000000000000     
 augmentation electrons   188.00422975435129     
 soft         electrons   0.0000000000000000     
 augmentation electrons   188.00422975435129     
 soft         electrons   0.0000000000000000     
 augmentation electrons   188.00422975435129     
 soft         electrons   0.0000000000000000     
 augmentation electrons   188.00422975435129     
 soft         electrons   0.0000000000000000     
 augmentation electrons   188.00422975435129     
 soft         electrons   0.0000000000000000     
 augmentation electrons   188.00422975435129     
 soft         electrons   0.0000000000000000     
 augmentation electrons   188.00422975435129     
 soft         electrons   0.0000000000000000     
 augmentation electrons   188.00422975435129     
 soft         electrons   0.0000000000000000     
 augmentation electrons   188.00422975435129     
 soft         electrons   0.0000000000000000     
 augmentation electrons   188.00422975435129     
 soft         electrons   0.0000000000000000     
 augmentation electrons   188.00422975435129     
 soft         electrons   0.0000000000000000     
 augmentation electrons   188.00422975435129     
 soft         electrons   0.0000000000000000     
 augmentation electrons   188.00422975435129     
 soft         electrons   0.0000000000000000     
 augmentation electrons   188.00422975435129     
 soft         electrons   0.0000000000000000     
 augmentation electrons   188.00422975435129     
 soft         electrons   0.0000000000000000     
 augmentation electrons   188.00422975435129     
 soft         electrons   0.0000000000000000     
 augmentation electrons   188.00422975435129     
 soft         electrons   0.0000000000000000     
 augmentation electrons   188.00422975435129     
 soft         electrons   0.0000000000000000     
 augmentation electrons   188.00422975435129     
 soft         electrons   0.0000000000000000     
 augmentation electrons   188.00422975435129     
 soft         electrons   0.0000000000000000     
 augmentation electrons   188.00422975435129     
 soft         electrons   0.0000000000000000     
 augmentation electrons   188.00422975435129     
 soft         electrons   0.0000000000000000     
 augmentation electrons   188.00422975435129     
 soft         electrons   0.0000000000000000     
 augmentation electrons   188.00422975435129     
 soft         electrons   0.0000000000000000     
 total        electrons   188.00422975435129     
 total        electrons   188.00422975435129     
 total        electrons   188.00422975435129     
 total        electrons   188.00422975435129     
 total        electrons   188.00422975435129     
 total        electrons   188.00422975435129     
 total        electrons   188.00422975435129     
 total        electrons   188.00422975435129     
 total        electrons   188.00422975435129     
 total        electrons   188.00422975435129     
 total        electrons   188.00422975435129     
 total        electrons   188.00422975435129     
 total        electrons   188.00422975435129     
 total        electrons   188.00422975435129     
 total        electrons   188.00422975435129     
 total        electrons   188.00422975435129     
 total        electrons   188.00422975435129     
 total        electrons   188.00422975435129     
 total        electrons   188.00422975435129     
 total        electrons   188.00422975435129     
 total        electrons   188.00422975435129     
 total        electrons   188.00422975435129     
 total        electrons   188.00422975435129     
 total        electrons   188.00422975435129     
 total        electrons   188.00422975435129     
 total        electrons   188.00422975435129     
 total        electrons   188.00422975435129     
 total        electrons   188.00422975435129     
 total        electrons   188.00422975435129     
 total        electrons   188.00422975435129     
 total        electrons   188.00422975435129     
 total        electrons   188.00422975435129     
 total        electrons   188.00422975435129     
 total        electrons   188.00422975435129     
 total        electrons   188.00422975435129     
 total        electrons   188.00422975435129     
 total        electrons   188.00422975435129     
 total        electrons   188.00422975435129     
 total        electrons   188.00422975435129     
 total        electrons   188.00422975435129     
 total        electrons   188.00422975435129     
 total        electrons   188.00422975435129     
 total        electrons   188.00422975435129     
 total        electrons   188.00422975435129     
 total        electrons   188.00422975435129     
 total        electrons   188.00422975435129     
 total        electrons   188.00422975435129     
 total        electrons   188.00422975435129     
 augmentation electrons   484.16221061253600     
 soft         electrons   0.0000000000000000     
 total        electrons   484.16221061253600     
 augmentation electrons   484.16221061253600     
 soft         electrons   0.0000000000000000     
 total        electrons   484.16221061253600     
 augmentation electrons   484.16221061253600     
 soft         electrons   0.0000000000000000     
 total        electrons   484.16221061253600     
 augmentation electrons   484.16221061253600     
 soft         electrons   0.0000000000000000     
 total        electrons   484.16221061253600     
 augmentation electrons   484.16221061253600     
 soft         electrons   0.0000000000000000     
 total        electrons   484.16221061253600     
 augmentation electrons   484.16221061253600     
 soft         electrons   0.0000000000000000     
 total        electrons   484.16221061253600     
 augmentation electrons   484.16221061253600     
 soft         electrons   0.0000000000000000     
 total        electrons   484.16221061253600     
 augmentation electrons   484.16221061253600     
 soft         electrons   0.0000000000000000     
 total        electrons   484.16221061253600     
 augmentation electrons   484.16221061253600     
 soft         electrons   0.0000000000000000     
 total        electrons   484.16221061253600     
 augmentation electrons   484.16221061253600     
 soft         electrons   0.0000000000000000     
 total        electrons   484.16221061253600     
 augmentation electrons   484.16221061253600     
 soft         electrons   0.0000000000000000     
 total        electrons   484.16221061253600     
 augmentation electrons   484.16221061253600     
 soft         electrons   0.0000000000000000     
 total        electrons   484.16221061253600     
 augmentation electrons   484.16221061253600     
 soft         electrons   0.0000000000000000     
 total        electrons   484.16221061253600     
 augmentation electrons   484.16221061253600     
 soft         electrons   0.0000000000000000     
 total        electrons   484.16221061253600     
 augmentation electrons   484.16221061253600     
 soft         electrons   0.0000000000000000     
 total        electrons   484.16221061253600     
 augmentation electrons   484.16221061253600     
 soft         electrons   0.0000000000000000     
 total        electrons   484.16221061253600     
 augmentation electrons   484.16221061253600     
 soft         electrons   0.0000000000000000     
 total        electrons   484.16221061253600     
 augmentation electrons   484.16221061253600     
 soft         electrons   0.0000000000000000     
 total        electrons   484.16221061253600     
 augmentation electrons   484.16221061253600     
 soft         electrons   0.0000000000000000     
 total        electrons   484.16221061253600     
 augmentation electrons   484.16221061253600     
 soft         electrons   0.0000000000000000     
 total        electrons   484.16221061253600     
 augmentation electrons   484.16221061253600     
 soft         electrons   0.0000000000000000     
 total        electrons   484.16221061253600     
 augmentation electrons   484.16221061253600     
 soft         electrons   0.0000000000000000     
 total        electrons   484.16221061253600     
 augmentation electrons   484.16221061253600     
 soft         electrons   0.0000000000000000     
 total        electrons   484.16221061253600     
 augmentation electrons   484.16221061253600     
 soft         electrons   0.0000000000000000     
 total        electrons   484.16221061253600     
 augmentation electrons   484.16221061253600     
 soft         electrons   0.0000000000000000     
 total        electrons   484.16221061253600     
 augmentation electrons   484.16221061253600     
 soft         electrons   0.0000000000000000     
 total        electrons   484.16221061253600     
 augmentation electrons   484.16221061253600     
 soft         electrons   0.0000000000000000     
 total        electrons   484.16221061253600     
 augmentation electrons   484.16221061253600     
 soft         electrons   0.0000000000000000     
 total        electrons   484.16221061253600     
 augmentation electrons   484.16221061253600     
 soft         electrons   0.0000000000000000     
 total        electrons   484.16221061253600     
 augmentation electrons   484.16221061253600     
 soft         electrons   0.0000000000000000     
 total        electrons   484.16221061253600     
 augmentation electrons   484.16221061253600     
 soft         electrons   0.0000000000000000     
 total        electrons   484.16221061253600     
 augmentation electrons   484.16221061253600     
 soft         electrons   0.0000000000000000     
 total        electrons   484.16221061253600     
 augmentation electrons   484.16221061253600     
 soft         electrons   0.0000000000000000     
 total        electrons   484.16221061253600     
 augmentation electrons   484.16221061253600     
 soft         electrons   0.0000000000000000     
 total        electrons   484.16221061253600     
 augmentation electrons   484.16221061253600     
 soft         electrons   0.0000000000000000     
 total        electrons   484.16221061253600     
 augmentation electrons   484.16221061253600     
 soft         electrons   0.0000000000000000     
 total        electrons   484.16221061253600     
 augmentation electrons   484.16221061253600     
 soft         electrons   0.0000000000000000     
 total        electrons   484.16221061253600     
 augmentation electrons   484.16221061253600     
 soft         electrons   0.0000000000000000     
 total        electrons   484.16221061253600     
 augmentation electrons   484.16221061253600     
 soft         electrons   0.0000000000000000     
 total        electrons   484.16221061253600     
 augmentation electrons   484.16221061253600     
 soft         electrons   0.0000000000000000     
 total        electrons   484.16221061253600     
 augmentation electrons   484.16221061253600     
 soft         electrons   0.0000000000000000     
 total        electrons   484.16221061253600     
 augmentation electrons   484.16221061253600     
 soft         electrons   0.0000000000000000     
 total        electrons   484.16221061253600     
 augmentation electrons   484.16221061253600     
 soft         electrons   0.0000000000000000     
 total        electrons   484.16221061253600     
 augmentation electrons   484.16221061253600     
 soft         electrons   0.0000000000000000     
 total        electrons   484.16221061253600     
 augmentation electrons   484.16221061253600     
 soft         electrons   0.0000000000000000     
 total        electrons   484.16221061253600     
 augmentation electrons   484.16221061253600     
 soft         electrons   0.0000000000000000     
 total        electrons   484.16221061253600     
 augmentation electrons   484.16221061253600     
 soft         electrons   0.0000000000000000     
 total        electrons   484.16221061253600     
 augmentation electrons   484.16221061253600     
 soft         electrons   0.0000000000000000     
 total        electrons   484.16221061253600     
 entering main loop
       N       E                     dE             d eps       ncg     rms          rms(c)
DAV:   1     0.196882569403E+04    0.19688E+04   -0.64974E+04 12600   0.126E+03
DAV:   2     0.359249415346E+01   -0.19652E+04   -0.18079E+04 13368   0.325E+02
DAV:   3    -0.428429623035E+03   -0.43202E+03   -0.41487E+03 18684   0.179E+02
DAV:   4    -0.464764710299E+03   -0.36335E+02   -0.35086E+02 20916   0.580E+01
DAV:   5    -0.466207406727E+03   -0.14427E+01   -0.13949E+01 21276   0.122E+01    0.108E+02
RMM:   6    -0.427783144932E+03    0.38424E+02   -0.92166E+02 16896   0.105E+02    0.578E+01
RMM:   7    -0.448903003819E+03   -0.21120E+02   -0.40649E+02 15045   0.842E+01    0.465E+01
RMM:   8    -0.387208597251E+03    0.61694E+02   -0.53064E+01 13399   0.320E+01    0.167E+01
RMM:   9    -0.387544813813E+03   -0.33622E+00   -0.26883E+01 17413   0.156E+01    0.158E+01
RMM:  10    -0.385713835706E+03    0.18310E+01   -0.54902E+00 18283   0.616E+00    0.125E+01
RMM:  11    -0.385815597357E+03   -0.10176E+00   -0.18189E+00 16375   0.374E+00    0.118E+01
RMM:  12    -0.385573419049E+03    0.24218E+00   -0.81409E-01 16151   0.338E+00    0.960E+00
RMM:  13    -0.385355081501E+03    0.21834E+00   -0.27053E+00 15313   0.632E+00    0.549E+00
RMM:  14    -0.384980038258E+03    0.37504E+00   -0.13944E+00 16664   0.365E+00    0.297E+00
RMM:  15    -0.384927097311E+03    0.52941E-01   -0.34006E-01 15788   0.204E+00    0.264E+00
RMM:  16    -0.384877914594E+03    0.49183E-01   -0.17249E-01 16570   0.144E+00    0.168E+00
RMM:  17    -0.384858149814E+03    0.19765E-01   -0.14964E-01 15539   0.137E+00    0.144E+00
RMM:  18    -0.384851002745E+03    0.71471E-02   -0.11514E-01 17685   0.898E-01    0.122E+00
RMM:  19    -0.384829606050E+03    0.21397E-01   -0.27868E-02 17057   0.439E-01    0.746E-01
RMM:  20    -0.384823053557E+03    0.65525E-02   -0.15189E-02 17283   0.346E-01    0.574E-01
RMM:  21    -0.384817232510E+03    0.58210E-02   -0.12147E-02 18454   0.292E-01    0.280E-01
RMM:  22    -0.384813493312E+03    0.37392E-02   -0.10754E-02 19485   0.187E-01    0.166E-01
RMM:  23    -0.384812546470E+03    0.94684E-03   -0.19450E-03 16499   0.145E-01    0.177E-01
RMM:  24    -0.384811108565E+03    0.14379E-02   -0.12990E-03 17089   0.107E-01    0.888E-02
RMM:  25    -0.384810894522E+03    0.21404E-03   -0.10097E-03 16124   0.834E-02    0.112E-01
RMM:  26    -0.384811001223E+03   -0.10670E-03   -0.55462E-04 18014   0.568E-02    0.103E-01
RMM:  27    -0.384811096303E+03   -0.95080E-04   -0.20895E-04 16450   0.522E-02    0.677E-02
RMM:  28    -0.384811565858E+03   -0.46955E-03   -0.30791E-04 18673   0.477E-02    0.258E-02
RMM:  29    -0.384811867420E+03   -0.30156E-03   -0.10611E-04 18639   0.179E-02    0.215E-02
RMM:  30    -0.384812551785E+03   -0.68437E-03   -0.75048E-05 16215   0.217E-02    0.126E-02
RMM:  31    -0.384813053913E+03   -0.50213E-03   -0.42546E-05 14626   0.123E-02    0.157E-02
RMM:  32    -0.384813302137E+03   -0.24822E-03   -0.22801E-05 13815   0.809E-03    0.107E-02
RMM:  33    -0.384813516622E+03   -0.21448E-03   -0.33111E-05 14628   0.975E-03    0.505E-03
RMM:  34    -0.384813565636E+03   -0.49014E-04   -0.87239E-06 12503   0.466E-03    0.359E-03
RMM:  35    -0.384813592044E+03   -0.26408E-04   -0.34358E-06 11309   0.430E-03    0.253E-03
RMM:  36    -0.384813600524E+03   -0.84808E-05   -0.14471E-06 10312   0.344E-03    0.161E-03
RMM:  37    -0.384813603013E+03   -0.24887E-05   -0.62994E-07  9350   0.292E-03    0.855E-04
RMM:  38    -0.384813604089E+03   -0.10760E-05   -0.34179E-07  8403   0.171E-03    0.743E-04
RMM:  39    -0.384813604452E+03   -0.36244E-06   -0.18537E-07  8126   0.166E-03
   1 F= -.38481360E+03 E0= -.38481314E+03  d E =-.138510E-02
 augmentation electrons   23.870116670846524     
 soft         electrons   164.18050061230429     
 augmentation electrons   23.870116670846524     
 soft         electrons   164.18050061230429     
 augmentation electrons   23.870116670846524     
 soft         electrons   164.18050061230429     
 augmentation electrons   23.870116670846524     
 soft         electrons   164.18050061230429     
 augmentation electrons   23.870116670846524     
 soft         electrons   164.18050061230429     
 augmentation electrons   23.870116670846524     
 soft         electrons   164.18050061230429     
 augmentation electrons   23.870116670846524     
 soft         electrons   164.18050061230429     
 augmentation electrons   23.870116670846524     
 soft         electrons   164.18050061230429     
 augmentation electrons   23.870116670846524     
 soft         electrons   164.18050061230429     
 augmentation electrons   23.870116670846524     
 soft         electrons   164.18050061230429     
 augmentation electrons   23.870116670846524     
 soft         electrons   164.18050061230429     
 augmentation electrons   23.870116670846524     
 soft         electrons   164.18050061230429     
 augmentation electrons   23.870116670846524     
 soft         electrons   164.18050061230429     
 augmentation electrons   23.870116670846524     
 soft         electrons   164.18050061230429     
 augmentation electrons   23.870116670846524     
 soft         electrons   164.18050061230429     
 augmentation electrons   23.870116670846524     
 soft         electrons   164.18050061230429     
 augmentation electrons   23.870116670846524     
 soft         electrons   164.18050061230429     
 augmentation electrons   23.870116670846524     
 soft         electrons   164.18050061230429     
 augmentation electrons   23.870116670846524     
 soft         electrons   164.18050061230429     
 augmentation electrons   23.870116670846524     
 soft         electrons   164.18050061230429     
 augmentation electrons   23.870116670846524     
 soft         electrons   164.18050061230429     
 augmentation electrons   23.870116670846524     
 soft         electrons   164.18050061230429     
 augmentation electrons   23.870116670846524     
 soft         electrons   164.18050061230429     
 augmentation electrons   23.870116670846524     
 soft         electrons   164.18050061230429     
 augmentation electrons   23.870116670846524     
 soft         electrons   164.18050061230429     
 augmentation electrons   23.870116670846524     
 soft         electrons   164.18050061230429     
 augmentation electrons   23.870116670846524     
 soft         electrons   164.18050061230429     
 augmentation electrons   23.870116670846524     
 soft         electrons   164.18050061230429     
 augmentation electrons   23.870116670846524     
 soft         electrons   164.18050061230429     
 augmentation electrons   23.870116670846524     
 soft         electrons   164.18050061230429     
 augmentation electrons   23.870116670846524     
 soft         electrons   164.18050061230429     
 augmentation electrons   23.870116670846524     
 soft         electrons   164.18050061230429     
 augmentation electrons   23.870116670846524     
 soft         electrons   164.18050061230429     
 augmentation electrons   23.870116670846524     
 soft         electrons   164.18050061230429     
 augmentation electrons   23.870116670846524     
 soft         electrons   164.18050061230429     
 augmentation electrons   23.870116670846524     
 soft         electrons   164.18050061230429     
 augmentation electrons   23.870116670846524     
 soft         electrons   164.18050061230429     
 augmentation electrons   23.870116670846524     
 soft         electrons   164.18050061230429     
 augmentation electrons   23.870116670846524     
 soft         electrons   164.18050061230429     
 augmentation electrons   23.870116670846524     
 soft         electrons   164.18050061230429     
 augmentation electrons   23.870116670846524     
 soft         electrons   164.18050061230429     
 augmentation electrons   23.870116670846524     
 soft         electrons   164.18050061230429     
 augmentation electrons   23.870116670846524     
 soft         electrons   164.18050061230429     
 augmentation electrons   23.870116670846524     
 soft         electrons   164.18050061230429     
 augmentation electrons   23.870116670846524     
 soft         electrons   164.18050061230429     
 augmentation electrons   23.870116670846524     
 soft         electrons   164.18050061230429     
 augmentation electrons   23.870116670846524     
 soft         electrons   164.18050061230429     
 augmentation electrons   23.870116670846524     
 soft         electrons   164.18050061230429     
 total        electrons   188.05061728315081     
 total        electrons   188.05061728315081     
 total        electrons   188.05061728315081     
 total        electrons   188.05061728315081     
 total        electrons   188.05061728315081     
 total        electrons   188.05061728315081     
 total        electrons   188.05061728315081     
 total        electrons   188.05061728315081     
 total        electrons   188.05061728315081     
 total        electrons   188.05061728315081     
 total        electrons   188.05061728315081     
 total        electrons   188.05061728315081     
 total        electrons   188.05061728315081     
 total        electrons   188.05061728315081     
 total        electrons   188.05061728315081     
 total        electrons   188.05061728315081     
 total        electrons   188.05061728315081     
 total        electrons   188.05061728315081     
 total        electrons   188.05061728315081     
 total        electrons   188.05061728315081     
 total        electrons   188.05061728315081     
 total        electrons   188.05061728315081     
 total        electrons   188.05061728315081     
 total        electrons   188.05061728315081     
 total        electrons   188.05061728315081     
 total        electrons   188.05061728315081     
 total        electrons   188.05061728315081     
 total        electrons   188.05061728315081     
 total        electrons   188.05061728315081     
 total        electrons   188.05061728315081     
 total        electrons   188.05061728315081     
 total        electrons   188.05061728315081     
 total        electrons   188.05061728315081     
 total        electrons   188.05061728315081     
 total        electrons   188.05061728315081     
 total        electrons   188.05061728315081     
 total        electrons   188.05061728315081     
 total        electrons   188.05061728315081     
 total        electrons   188.05061728315081     
 total        electrons   188.05061728315081     
 total        electrons   188.05061728315081     
 total        electrons   188.05061728315081     
 total        electrons   188.05061728315081     
 total        electrons   188.05061728315081     
 total        electrons   188.05061728315081     
 total        electrons   188.05061728315081     
 total        electrons   188.05061728315081     
 total        electrons   188.05061728315081     
Note: The following floating-point exceptions are signalling: IEEE_OVERFLOW_FLAG
Note: The following floating-point exceptions are signalling: IEEE_OVERFLOW_FLAG
Note: The following floating-point exceptions are signalling: IEEE_OVERFLOW_FLAG
Note: The following floating-point exceptions are signalling: IEEE_OVERFLOW_FLAG
Note: The following floating-point exceptions are signalling: IEEE_OVERFLOW_FLAG
Note: The following floating-point exceptions are signalling: IEEE_OVERFLOW_FLAG
Note: The following floating-point exceptions are signalling: IEEE_OVERFLOW_FLAG
Note: The following floating-point exceptions are signalling: IEEE_OVERFLOW_FLAG
Note: The following floating-point exceptions are signalling: IEEE_OVERFLOW_FLAG
Note: The following floating-point exceptions are signalling: IEEE_OVERFLOW_FLAG
Note: The following floating-point exceptions are signalling: IEEE_OVERFLOW_FLAG
Note: The following floating-point exceptions are signalling: IEEE_OVERFLOW_FLAG
Note: The following floating-point exceptions are signalling: IEEE_OVERFLOW_FLAG
Note: The following floating-point exceptions are signalling: IEEE_OVERFLOW_FLAG
Note: The following floating-point exceptions are signalling: IEEE_OVERFLOW_FLAG
Note: The following floating-point exceptions are signalling: IEEE_OVERFLOW_FLAG
Note: The following floating-point exceptions are signalling: IEEE_OVERFLOW_FLAG
Note: The following floating-point exceptions are signalling: IEEE_OVERFLOW_FLAG
Note: The following floating-point exceptions are signalling: IEEE_OVERFLOW_FLAG
Note: The following floating-point exceptions are signalling: IEEE_OVERFLOW_FLAG
Note: The following floating-point exceptions are signalling: IEEE_OVERFLOW_FLAG
Note: The following floating-point exceptions are signalling: IEEE_OVERFLOW_FLAG
Note: The following floating-point exceptions are signalling: IEEE_OVERFLOW_FLAG
Note: The following floating-point exceptions are signalling: IEEE_OVERFLOW_FLAG
Note: The following floating-point exceptions are signalling: IEEE_OVERFLOW_FLAG
Note: The following floating-point exceptions are signalling: IEEE_OVERFLOW_FLAG
Note: The following floating-point exceptions are signalling: IEEE_OVERFLOW_FLAG
Note: The following floating-point exceptions are signalling: IEEE_OVERFLOW_FLAG
Note: The following floating-point exceptions are signalling: IEEE_OVERFLOW_FLAG
Note: The following floating-point exceptions are signalling: IEEE_OVERFLOW_FLAG
Note: The following floating-point exceptions are signalling: IEEE_OVERFLOW_FLAG
Note: The following floating-point exceptions are signalling: IEEE_OVERFLOW_FLAG
Note: The following floating-point exceptions are signalling: IEEE_OVERFLOW_FLAG
Note: The following floating-point exceptions are signalling: IEEE_OVERFLOW_FLAG
Note: The following floating-point exceptions are signalling: IEEE_OVERFLOW_FLAG
Note: The following floating-point exceptions are signalling: IEEE_OVERFLOW_FLAG
Note: The following floating-point exceptions are signalling: IEEE_OVERFLOW_FLAG
Note: The following floating-point exceptions are signalling: IEEE_OVERFLOW_FLAG
Note: The following floating-point exceptions are signalling: IEEE_OVERFLOW_FLAG
Note: The following floating-point exceptions are signalling: IEEE_OVERFLOW_FLAG
Note: The following floating-point exceptions are signalling: IEEE_OVERFLOW_FLAG
Note: The following floating-point exceptions are signalling: IEEE_OVERFLOW_FLAG
Note: The following floating-point exceptions are signalling: IEEE_OVERFLOW_FLAG
Note: The following floating-point exceptions are signalling: IEEE_OVERFLOW_FLAG
Note: The following floating-point exceptions are signalling: IEEE_OVERFLOW_FLAG
Note: The following floating-point exceptions are signalling: IEEE_OVERFLOW_FLAG
Note: The following floating-point exceptions are signalling: IEEE_OVERFLOW_FLAG
Note: The following floating-point exceptions are signalling: IEEE_OVERFLOW_FLAG
