   54   54   85    1
  0.1409106E+02  0.6088057E-09  0.6088057E-09  0.2372246E-08  0.5000000E-15
   1.0000000000000000E-004
  CAR 
 Name                                    
    200     25    132

  0.3742002E-15  0.3742002E-15  0.1262379E-14  0.1234568E-01
    1      -11.918938   1.000000
    2      -11.338956   1.000000
    3      -10.495128   1.000000
    4       -9.125549   1.000000
    5       -9.036552   1.000000
    6       -8.671527   1.000000
    7       -8.658265   1.000000
    8       -8.461244   1.000000
    9       -8.333302   1.000000
   10       -8.212576   1.000000
   11       -8.163804   1.000000
   12       -8.102013   1.000000
   13       -8.078869   1.000000
   14       -8.064864   1.000000
   15       -7.772731   1.000000
   16       -7.739067   1.000000
   17       -7.718059   1.000000
   18       -7.490940   1.000000
   19       -7.415207   1.000000
   20       -7.280438   1.000000
   21       -6.586157   1.000000
   22       -6.483177   1.000000
   23       -6.410866   1.000000
   24       -6.381312   1.000000
   25       -6.280656   1.000000
   26       -6.270487   1.000000
   27       -6.141707   1.000000
   28       -5.698218   1.000000
   29       -5.590857   1.000000
   30       -5.519954   1.000000
   31       -5.115638   1.000000
   32       -5.022968   1.000000
   33       -4.981250   1.000000
   34       -4.696838   1.000000
   35       -4.558388   1.000000
   36       -4.551759   1.000000
   37       -4.365073   1.000000
   38       -4.033095   1.000000
   39       -3.539921   1.000000
   40       -3.479110   1.000000
   41       -3.331647   1.000000
   42       -3.237143   1.000000
   43       -3.070796   1.000000
   44       -3.006316   1.000000
   45       -2.956491   1.000000
   46       -2.799405   1.000000
   47       -2.725269   1.000000
   48       -2.660889   1.000000
   49       -2.599406   1.000000
   50       -2.561150   1.000000
   51       -2.347535   1.000000
   52       -2.319566   1.000000
   53       -2.276559   1.000000
   54       -2.232118   1.000000
   55       -2.224721   1.000000
   56       -2.190161   1.000000
   57       -2.076625   1.000000
   58       -2.060693   1.000000
   59       -1.880918   1.000000
   60       -1.840061   1.000000
   61       -1.725738   1.000000
   62       -1.711165   1.000000
   63       -1.544785   1.000000
   64       -1.515304   1.000000
   65       -1.508242   1.000000
   66       -1.201397   1.000000
   67       -1.188269   1.000000
   68       -1.179110   1.000000
   69       -1.079862   1.000000
   70       -1.061363   1.000000
   71       -1.058665   1.000000
   72       -1.023639   1.000000
   73       -0.795411   1.000000
   74       -0.635060   1.000000
   75       -0.504192   1.000000
   76       -0.502896   1.000000
   77       -0.387870   1.000000
   78       -0.187971   1.000000
   79       -0.077538   1.000000
   80       -0.077341   1.000000
   81        0.164216   1.000000
   82        0.319217   1.000000
   83        0.683615   1.000000
   84        0.708018   1.000000
   85        0.718770   1.000000
   86        0.802090   1.000000
   87        0.916807   1.000000
   88        0.952370   1.000000
   89        1.056040   1.000000
   90        1.139924   1.000000
   91        1.190176   1.000000
   92        1.196780   1.000000
   93        1.198275   1.000000
   94        1.445407   1.000000
   95        1.663615   1.000123
   96        1.731483   1.000694
   97        1.747029   1.000995
   98        1.767299   1.001558
   99        2.253943   0.499278
  100        2.320434   0.234548
  101        2.336658   0.180447
  102        2.609655  -0.015235
  103        2.809418  -0.000306
  104        2.824662  -0.000206
  105        2.850106  -0.000103
  106        3.021974  -0.000000
  107        3.028299  -0.000000
  108        3.104475  -0.000000
  109        3.137391  -0.000000
  110        3.189920  -0.000000
  111        3.223206  -0.000000
  112        3.322162  -0.000000
  113        3.379851  -0.000000
  114        3.394851  -0.000000
  115        3.475176  -0.000000
  116        3.492689  -0.000000
  117        3.499512  -0.000000
  118        3.563052  -0.000000
  119        3.600130  -0.000000
  120        3.622660  -0.000000
  121        3.730477  -0.000000
  122        3.747170  -0.000000
  123        3.780968  -0.000000
  124        3.802954  -0.000000
  125        3.888672  -0.000000
  126        3.895601  -0.000000
  127        3.987921  -0.000000
  128        4.007619  -0.000000
  129        4.158864  -0.000000
  130        4.238249  -0.000000
  131        4.382248  -0.000000
  132        4.448182  -0.000000

  0.1111111E+00  0.3857958E-15  0.1262379E-14  0.4938272E-01
    1      -11.861649   1.000000
    2      -11.286547   1.000000
    3      -10.455672   1.000000
    4       -9.088121   1.000000
    5       -9.056466   1.000000
    6       -8.807055   1.000000
    7       -8.679597   1.000000
    8       -8.641575   1.000000
    9       -8.485035   1.000000
   10       -8.405966   1.000000
   11       -8.379342   1.000000
   12       -8.333225   1.000000
   13       -8.210568   1.000000
   14       -8.153448   1.000000
   15       -7.603357   1.000000
   16       -7.519290   1.000000
   17       -7.336514   1.000000
   18       -7.320071   1.000000
   19       -7.231173   1.000000
   20       -7.018716   1.000000
   21       -6.622746   1.000000
   22       -6.571479   1.000000
   23       -6.419626   1.000000
   24       -6.353302   1.000000
   25       -6.246379   1.000000
   26       -6.172772   1.000000
   27       -6.070688   1.000000
   28       -5.700107   1.000000
   29       -5.625719   1.000000
   30       -5.601149   1.000000
   31       -5.004180   1.000000
   32       -4.969664   1.000000
   33       -4.787653   1.000000
   34       -4.605131   1.000000
   35       -4.492034   1.000000
   36       -4.446220   1.000000
   37       -4.180123   1.000000
   38       -3.988710   1.000000
   39       -3.575630   1.000000
   40       -3.528938   1.000000
   41       -3.319027   1.000000
   42       -3.243282   1.000000
   43       -3.150352   1.000000
   44       -3.033812   1.000000
   45       -3.004233   1.000000
   46       -2.977840   1.000000
   47       -2.840270   1.000000
   48       -2.744112   1.000000
   49       -2.584539   1.000000
   50       -2.517084   1.000000
   51       -2.370514   1.000000
   52       -2.320296   1.000000
   53       -2.254622   1.000000
   54       -2.212924   1.000000
   55       -2.197526   1.000000
   56       -2.161323   1.000000
   57       -2.078921   1.000000
   58       -2.054190   1.000000
   59       -1.887425   1.000000
   60       -1.848748   1.000000
   61       -1.771471   1.000000
   62       -1.752715   1.000000
   63       -1.642951   1.000000
   64       -1.548150   1.000000
   65       -1.532254   1.000000
   66       -1.404765   1.000000
   67       -1.257509   1.000000
   68       -1.203204   1.000000
   69       -1.114109   1.000000
   70       -1.095891   1.000000
   71       -1.026466   1.000000
   72       -0.968605   1.000000
   73       -0.770495   1.000000
   74       -0.641680   1.000000
   75       -0.586383   1.000000
   76       -0.547577   1.000000
   77       -0.373774   1.000000
   78       -0.335556   1.000000
   79       -0.243744   1.000000
   80       -0.027608   1.000000
   81        0.058627   1.000000
   82        0.135568   1.000000
   83        0.451329   1.000000
   84        0.500231   1.000000
   85        0.614796   1.000000
   86        0.816000   1.000000
   87        0.917191   1.000000
   88        0.986798   1.000000
   89        1.043398   1.000000
   90        1.073787   1.000000
   91        1.119844   1.000000
   92        1.242957   1.000000
   93        1.329910   1.000000
   94        1.404011   1.000000
   95        1.620158   1.000035
   96        1.731207   1.000689
   97        1.984380   1.033520
   98        2.042625   1.029986
   99        2.208670   0.685569
  100        2.346000   0.151986
  101        2.387980   0.050647
  102        2.471770  -0.032122
  103        2.702766  -0.003351
  104        2.747342  -0.001335
  105        2.837416  -0.000146
  106        3.025863  -0.000000
  107        3.097923  -0.000000
  108        3.141788  -0.000000
  109        3.188019  -0.000000
  110        3.220757  -0.000000
  111        3.250665  -0.000000
  112        3.299596  -0.000000
  113        3.333303  -0.000000
  114        3.363744  -0.000000
  115        3.451350  -0.000000
  116        3.461974  -0.000000
  117        3.493631  -0.000000
  118        3.540900  -0.000000
  119        3.562092  -0.000000
  120        3.605258  -0.000000
  121        3.669295  -0.000000
  122        3.727975  -0.000000
  123        3.772273  -0.000000
  124        3.783081  -0.000000
  125        3.834214  -0.000000
  126        3.867967  -0.000000
  127        3.907654  -0.000000
  128        4.014587  -0.000000
  129        4.105425  -0.000000
  130        4.293432  -0.000000
  131        4.313109  -0.000000
  132        4.465707  -0.000000

  0.2222222E+00  0.3935346E-15  0.1262379E-14  0.4938272E-01
    1      -11.691968   1.000000
    2      -11.131824   1.000000
    3      -10.340312   1.000000
    4       -9.377267   1.000000
    5       -9.166021   1.000000
    6       -9.133830   1.000000
    7       -8.973877   1.000000
    8       -8.670144   1.000000
    9       -8.603918   1.000000
   10       -8.562991   1.000000
   11       -8.521034   1.000000
   12       -8.406462   1.000000
   13       -8.385663   1.000000
   14       -8.357322   1.000000
   15       -7.472720   1.000000
   16       -7.192955   1.000000
   17       -7.181509   1.000000
   18       -7.115796   1.000000
   19       -6.953906   1.000000
   20       -6.756191   1.000000
   21       -6.562535   1.000000
   22       -6.407659   1.000000
   23       -6.287904   1.000000
   24       -6.213850   1.000000
   25       -6.157906   1.000000
   26       -5.989550   1.000000
   27       -5.941963   1.000000
   28       -5.734018   1.000000
   29       -5.525285   1.000000
   30       -5.404491   1.000000
   31       -4.840395   1.000000
   32       -4.810059   1.000000
   33       -4.422963   1.000000
   34       -4.330727   1.000000
   35       -4.289678   1.000000
   36       -4.261807   1.000000
   37       -3.909569   1.000000
   38       -3.801862   1.000000
   39       -3.706810   1.000000
   40       -3.666640   1.000000
   41       -3.537855   1.000000
   42       -3.504181   1.000000
   43       -3.349916   1.000000
   44       -3.259575   1.000000
   45       -3.057395   1.000000
   46       -2.963157   1.000000
   47       -2.862500   1.000000
   48       -2.761219   1.000000
   49       -2.556616   1.000000
   50       -2.488932   1.000000
   51       -2.479269   1.000000
   52       -2.364807   1.000000
   53       -2.329737   1.000000
   54       -2.294162   1.000000
   55       -2.262531   1.000000
   56       -2.140609   1.000000
   57       -2.102600   1.000000
   58       -2.087164   1.000000
   59       -1.914405   1.000000
   60       -1.902645   1.000000
   61       -1.851772   1.000000
   62       -1.799921   1.000000
   63       -1.759093   1.000000
   64       -1.661671   1.000000
   65       -1.630642   1.000000
   66       -1.568325   1.000000
   67       -1.416393   1.000000
   68       -1.340870   1.000000
   69       -1.257472   1.000000
   70       -1.208752   1.000000
   71       -1.101048   1.000000
   72       -0.997468   1.000000
   73       -0.865745   1.000000
   74       -0.840513   1.000000
   75       -0.750645   1.000000
   76       -0.618863   1.000000
   77       -0.544438   1.000000
   78       -0.369722   1.000000
   79       -0.287550   1.000000
   80       -0.160282   1.000000
   81        0.053311   1.000000
   82        0.125319   1.000000
   83        0.138143   1.000000
   84        0.300743   1.000000
   85        0.518019   1.000000
   86        0.617315   1.000000
   87        0.749992   1.000000
   88        0.825069   1.000000
   89        0.969114   1.000000
   90        1.008695   1.000000
   91        1.115543   1.000000
   92        1.285311   1.000000
   93        1.302242   1.000000
   94        1.403735   1.000000
   95        1.565556   1.000006
   96        1.720397   1.000532
   97        1.960565   1.029136
   98        2.084782   1.000670
   99        2.237669   0.567895
  100        2.403609   0.024119
  101        2.508745  -0.035097
  102        2.578882  -0.021889
  103        2.735689  -0.001718
  104        2.783267  -0.000584
  105        2.897146  -0.000026
  106        2.941694  -0.000006
  107        2.950735  -0.000005
  108        3.025030  -0.000000
  109        3.056145  -0.000000
  110        3.084329  -0.000000
  111        3.206780  -0.000000
  112        3.252017  -0.000000
  113        3.284055  -0.000000
  114        3.335375  -0.000000
  115        3.341148  -0.000000
  116        3.437552  -0.000000
  117        3.474061  -0.000000
  118        3.482878  -0.000000
  119        3.495748  -0.000000
  120        3.579258  -0.000000
  121        3.641033  -0.000000
  122        3.672553  -0.000000
  123        3.721702  -0.000000
  124        3.819561  -0.000000
  125        3.853841  -0.000000
  126        3.880770  -0.000000
  127        3.951431  -0.000000
  128        4.034186  -0.000000
  129        4.053104  -0.000000
  130        4.223853  -0.000000
  131        4.314227  -0.000000
  132        4.460607  -0.000000

  0.3333333E+00  0.3939838E-15  0.1262379E-14  0.4938272E-01
    1      -11.417375   1.000000
    2      -10.882754   1.000000
    3      -10.158001   1.000000
    4       -9.979864   1.000000
    5       -9.642548   1.000000
    6       -9.356405   1.000000
    7       -8.795323   1.000000
    8       -8.764566   1.000000
    9       -8.723111   1.000000
   10       -8.714271   1.000000
   11       -8.588732   1.000000
   12       -8.495429   1.000000
   13       -8.394671   1.000000
   14       -8.277793   1.000000
   15       -7.831011   1.000000
   16       -7.323873   1.000000
   17       -7.001415   1.000000
   18       -6.947737   1.000000
   19       -6.540396   1.000000
   20       -6.509356   1.000000
   21       -6.398829   1.000000
   22       -6.295239   1.000000
   23       -6.232100   1.000000
   24       -6.156427   1.000000
   25       -5.922765   1.000000
   26       -5.881107   1.000000
   27       -5.498584   1.000000
   28       -5.362556   1.000000
   29       -5.086394   1.000000
   30       -4.939136   1.000000
   31       -4.622764   1.000000
   32       -4.538578   1.000000
   33       -4.253509   1.000000
   34       -4.144642   1.000000
   35       -4.117979   1.000000
   36       -4.070155   1.000000
   37       -4.041148   1.000000
   38       -3.985451   1.000000
   39       -3.946275   1.000000
   40       -3.841848   1.000000
   41       -3.750959   1.000000
   42       -3.699168   1.000000
   43       -3.327578   1.000000
   44       -3.129275   1.000000
   45       -3.093813   1.000000
   46       -3.033446   1.000000
   47       -2.910261   1.000000
   48       -2.833677   1.000000
   49       -2.757445   1.000000
   50       -2.596953   1.000000
   51       -2.556763   1.000000
   52       -2.468152   1.000000
   53       -2.432781   1.000000
   54       -2.409520   1.000000
   55       -2.327136   1.000000
   56       -2.234876   1.000000
   57       -2.200563   1.000000
   58       -2.148601   1.000000
   59       -2.060827   1.000000
   60       -1.976138   1.000000
   61       -1.907731   1.000000
   62       -1.863506   1.000000
   63       -1.816281   1.000000
   64       -1.779893   1.000000
   65       -1.672726   1.000000
   66       -1.615074   1.000000
   67       -1.552285   1.000000
   68       -1.513918   1.000000
   69       -1.414960   1.000000
   70       -1.355062   1.000000
   71       -1.162302   1.000000
   72       -1.112424   1.000000
   73       -1.033873   1.000000
   74       -0.912549   1.000000
   75       -0.854528   1.000000
   76       -0.773603   1.000000
   77       -0.603645   1.000000
   78       -0.509678   1.000000
   79       -0.385873   1.000000
   80       -0.165986   1.000000
   81        0.013646   1.000000
   82        0.102948   1.000000
   83        0.243933   1.000000
   84        0.285717   1.000000
   85        0.394522   1.000000
   86        0.480651   1.000000
   87        0.669259   1.000000
   88        0.678840   1.000000
   89        0.832322   1.000000
   90        0.961199   1.000000
   91        1.004852   1.000000
   92        1.175255   1.000000
   93        1.255283   1.000000
   94        1.369032   1.000000
   95        1.626148   1.000042
   96        1.713989   1.000455
   97        1.779893   1.002034
   98        1.913284   1.018441
   99        2.033534   1.032692
  100        2.364698   0.101384
  101        2.449520  -0.022778
  102        2.539452  -0.030689
  103        2.602913  -0.016602
  104        2.657806  -0.007486
  105        2.751376  -0.001221
  106        2.807284  -0.000323
  107        2.834336  -0.000159
  108        2.928126  -0.000010
  109        2.969149  -0.000003
  110        3.056311  -0.000000
  111        3.114860  -0.000000
  112        3.143349  -0.000000
  113        3.172602  -0.000000
  114        3.249759  -0.000000
  115        3.315928  -0.000000
  116        3.396617  -0.000000
  117        3.491012  -0.000000
  118        3.501155  -0.000000
  119        3.562903  -0.000000
  120        3.603540  -0.000000
  121        3.664060  -0.000000
  122        3.719133  -0.000000
  123        3.738491  -0.000000
  124        3.808666  -0.000000
  125        3.881945  -0.000000
  126        3.918147  -0.000000
  127        4.009638  -0.000000
  128        4.108788  -0.000000
  129        4.154048  -0.000000
  130        4.236148  -0.000000
  131        4.278285  -0.000000
  132        4.324579  -0.000000

  0.4444444E+00  0.3881204E-15  0.1262379E-14  0.4938272E-01
    1      -11.065068   1.000000
    2      -10.561640   1.000000
    3      -10.499925   1.000000
    4      -10.094295   1.000000
    5       -9.922835   1.000000
    6       -9.630259   1.000000
    7       -8.806725   1.000000
    8       -8.803144   1.000000
    9       -8.774240   1.000000
   10       -8.658203   1.000000
   11       -8.560981   1.000000
   12       -8.524886   1.000000
   13       -8.381021   1.000000
   14       -8.203486   1.000000
   15       -8.049753   1.000000
   16       -7.650139   1.000000
   17       -6.951587   1.000000
   18       -6.830253   1.000000
   19       -6.333600   1.000000
   20       -6.315235   1.000000
   21       -6.237075   1.000000
   22       -6.117760   1.000000
   23       -6.083187   1.000000
   24       -6.061565   1.000000
   25       -5.955036   1.000000
   26       -5.871709   1.000000
   27       -4.875582   1.000000
   28       -4.694781   1.000000
   29       -4.653733   1.000000
   30       -4.587361   1.000000
   31       -4.508549   1.000000
   32       -4.405585   1.000000
   33       -4.389118   1.000000
   34       -4.305612   1.000000
   35       -4.242235   1.000000
   36       -4.178010   1.000000
   37       -4.052030   1.000000
   38       -4.019671   1.000000
   39       -3.954037   1.000000
   40       -3.890259   1.000000
   41       -3.759719   1.000000
   42       -3.722470   1.000000
   43       -3.647677   1.000000
   44       -3.582356   1.000000
   45       -3.121026   1.000000
   46       -3.104955   1.000000
   47       -2.962518   1.000000
   48       -2.876298   1.000000
   49       -2.766928   1.000000
   50       -2.603704   1.000000
   51       -2.556258   1.000000
   52       -2.524002   1.000000
   53       -2.472156   1.000000
   54       -2.434686   1.000000
   55       -2.412492   1.000000
   56       -2.333820   1.000000
   57       -2.234977   1.000000
   58       -2.186123   1.000000
   59       -2.151785   1.000000
   60       -2.020722   1.000000
   61       -1.946053   1.000000
   62       -1.922928   1.000000
   63       -1.888635   1.000000
   64       -1.846988   1.000000
   65       -1.785470   1.000000
   66       -1.646421   1.000000
   67       -1.599006   1.000000
   68       -1.525926   1.000000
   69       -1.447828   1.000000
   70       -1.430577   1.000000
   71       -1.197825   1.000000
   72       -1.126263   1.000000
   73       -1.071184   1.000000
   74       -0.996614   1.000000
   75       -0.972809   1.000000
   76       -0.800820   1.000000
   77       -0.752561   1.000000
   78       -0.505920   1.000000
   79       -0.361819   1.000000
   80       -0.258987   1.000000
   81       -0.069633   1.000000
   82        0.200902   1.000000
   83        0.221458   1.000000
   84        0.315059   1.000000
   85        0.324225   1.000000
   86        0.457050   1.000000
   87        0.531620   1.000000
   88        0.654024   1.000000
   89        0.728686   1.000000
   90        0.945372   1.000000
   91        0.975075   1.000000
   92        1.189152   1.000000
   93        1.339356   1.000000
   94        1.482491   1.000000
   95        1.524132   1.000002
   96        1.770329   1.001663
   97        1.804926   1.003360
   98        1.848594   1.007346
   99        1.886426   1.013060
  100        1.991274   1.034408
  101        2.060186   1.021471
  102        2.297543   0.319619
  103        2.448157  -0.021963
  104        2.535263  -0.031496
  105        2.656319  -0.007671
  106        2.783448  -0.000582
  107        2.819248  -0.000237
  108        2.833873  -0.000161
  109        2.874699  -0.000051
  110        2.969860  -0.000003
  111        3.036751  -0.000000
  112        3.055224  -0.000000
  113        3.107244  -0.000000
  114        3.167615  -0.000000
  115        3.303201  -0.000000
  116        3.397348  -0.000000
  117        3.472781  -0.000000
  118        3.502089  -0.000000
  119        3.597036  -0.000000
  120        3.615373  -0.000000
  121        3.637202  -0.000000
  122        3.733650  -0.000000
  123        3.772162  -0.000000
  124        3.885646  -0.000000
  125        3.922376  -0.000000
  126        4.031925  -0.000000
  127        4.078920  -0.000000
  128        4.113026  -0.000000
  129        4.222179  -0.000000
  130        4.329463  -0.000000
  131        4.423555  -0.000000
  132        4.521128  -0.000000

  0.1111111E+00  0.1111111E+00  0.1262379E-14  0.2469136E-01
    1      -11.747578   1.000000
    2      -11.182730   1.000000
    3      -10.377706   1.000000
    4       -9.117805   1.000000
    5       -9.095697   1.000000
    6       -9.013579   1.000000
    7       -8.949149   1.000000
    8       -8.871829   1.000000
    9       -8.713812   1.000000
   10       -8.648428   1.000000
   11       -8.529355   1.000000
   12       -8.382005   1.000000
   13       -8.201182   1.000000
   14       -7.796639   1.000000
   15       -7.761567   1.000000
   16       -7.327414   1.000000
   17       -7.309728   1.000000
   18       -7.169130   1.000000
   19       -7.028157   1.000000
   20       -6.624832   1.000000
   21       -6.565946   1.000000
   22       -6.559717   1.000000
   23       -6.334155   1.000000
   24       -6.286239   1.000000
   25       -6.194666   1.000000
   26       -6.079701   1.000000
   27       -5.899105   1.000000
   28       -5.718930   1.000000
   29       -5.541793   1.000000
   30       -5.473628   1.000000
   31       -5.105451   1.000000
   32       -4.692709   1.000000
   33       -4.577937   1.000000
   34       -4.531098   1.000000
   35       -4.345364   1.000000
   36       -4.159056   1.000000
   37       -3.967512   1.000000
   38       -3.843222   1.000000
   39       -3.739794   1.000000
   40       -3.669209   1.000000
   41       -3.525426   1.000000
   42       -3.349537   1.000000
   43       -3.232251   1.000000
   44       -3.090480   1.000000
   45       -3.070531   1.000000
   46       -2.956653   1.000000
   47       -2.844202   1.000000
   48       -2.677894   1.000000
   49       -2.645127   1.000000
   50       -2.622004   1.000000
   51       -2.481917   1.000000
   52       -2.320829   1.000000
   53       -2.258356   1.000000
   54       -2.215459   1.000000
   55       -2.182698   1.000000
   56       -2.175243   1.000000
   57       -2.135902   1.000000
   58       -2.019804   1.000000
   59       -2.001914   1.000000
   60       -1.836115   1.000000
   61       -1.813648   1.000000
   62       -1.778462   1.000000
   63       -1.739190   1.000000
   64       -1.636153   1.000000
   65       -1.623908   1.000000
   66       -1.492412   1.000000
   67       -1.357326   1.000000
   68       -1.300852   1.000000
   69       -1.213100   1.000000
   70       -1.105526   1.000000
   71       -1.062654   1.000000
   72       -1.045643   1.000000
   73       -0.877222   1.000000
   74       -0.865251   1.000000
   75       -0.674867   1.000000
   76       -0.570084   1.000000
   77       -0.415302   1.000000
   78       -0.359523   1.000000
   79       -0.312130   1.000000
   80       -0.070082   1.000000
   81       -0.065513   1.000000
   82        0.076756   1.000000
   83        0.143318   1.000000
   84        0.387799   1.000000
   85        0.662473   1.000000
   86        0.701130   1.000000
   87        0.875704   1.000000
   88        0.896577   1.000000
   89        0.949554   1.000000
   90        0.957573   1.000000
   91        1.093753   1.000000
   92        1.120591   1.000000
   93        1.338803   1.000000
   94        1.500351   1.000001
   95        1.543174   1.000003
   96        1.723109   1.000568
   97        2.073651   1.011502
   98        2.165169   0.837214
   99        2.218940   0.644939
  100        2.221290   0.635451
  101        2.494412  -0.035384
  102        2.596483  -0.017961
  103        2.611049  -0.014960
  104        2.784173  -0.000572
  105        2.882065  -0.000041
  106        2.902267  -0.000023
  107        3.062522  -0.000000
  108        3.093986  -0.000000
  109        3.190714  -0.000000
  110        3.213254  -0.000000
  111        3.252343  -0.000000
  112        3.263293  -0.000000
  113        3.292704  -0.000000
  114        3.308163  -0.000000
  115        3.363246  -0.000000
  116        3.392111  -0.000000
  117        3.440181  -0.000000
  118        3.489852  -0.000000
  119        3.510184  -0.000000
  120        3.584463  -0.000000
  121        3.655267  -0.000000
  122        3.657714  -0.000000
  123        3.698363  -0.000000
  124        3.732077  -0.000000
  125        3.850809  -0.000000
  126        3.882352  -0.000000
  127        3.926249  -0.000000
  128        4.002098  -0.000000
  129        4.094134  -0.000000
  130        4.297228  -0.000000
  131        4.333872  -0.000000
  132        4.509034  -0.000000

  0.2222222E+00  0.1111111E+00  0.1262379E-14  0.4938272E-01
    1      -11.524630   1.000000
    2      -10.980560   1.000000
    3      -10.228734   1.000000
    4       -9.667789   1.000000
    5       -9.370898   1.000000
    6       -9.217319   1.000000
    7       -9.158857   1.000000
    8       -8.975496   1.000000
    9       -8.875839   1.000000
   10       -8.852183   1.000000
   11       -8.384873   1.000000
   12       -8.286684   1.000000
   13       -8.176766   1.000000
   14       -7.952248   1.000000
   15       -7.604117   1.000000
   16       -7.292915   1.000000
   17       -7.274638   1.000000
   18       -7.136408   1.000000
   19       -7.020841   1.000000
   20       -6.664189   1.000000
   21       -6.502414   1.000000
   22       -6.176414   1.000000
   23       -6.168919   1.000000
   24       -6.028860   1.000000
   25       -5.849861   1.000000
   26       -5.716013   1.000000
   27       -5.663048   1.000000
   28       -5.533939   1.000000
   29       -5.241851   1.000000
   30       -5.210094   1.000000
   31       -5.060607   1.000000
   32       -4.638331   1.000000
   33       -4.288649   1.000000
   34       -4.207506   1.000000
   35       -4.177272   1.000000
   36       -4.055083   1.000000
   37       -3.965253   1.000000
   38       -3.929440   1.000000
   39       -3.821780   1.000000
   40       -3.777936   1.000000
   41       -3.591256   1.000000
   42       -3.423822   1.000000
   43       -3.289771   1.000000
   44       -3.162552   1.000000
   45       -3.023463   1.000000
   46       -2.961753   1.000000
   47       -2.938741   1.000000
   48       -2.876911   1.000000
   49       -2.641373   1.000000
   50       -2.627277   1.000000
   51       -2.564227   1.000000
   52       -2.519367   1.000000
   53       -2.458677   1.000000
   54       -2.400367   1.000000
   55       -2.359319   1.000000
   56       -2.232518   1.000000
   57       -2.135694   1.000000
   58       -2.078219   1.000000
   59       -2.030686   1.000000
   60       -1.923438   1.000000
   61       -1.865262   1.000000
   62       -1.815244   1.000000
   63       -1.771068   1.000000
   64       -1.749158   1.000000
   65       -1.722689   1.000000
   66       -1.581932   1.000000
   67       -1.518272   1.000000
   68       -1.494164   1.000000
   69       -1.430963   1.000000
   70       -1.232560   1.000000
   71       -1.130876   1.000000
   72       -1.111849   1.000000
   73       -1.006186   1.000000
   74       -0.927925   1.000000
   75       -0.728314   1.000000
   76       -0.628318   1.000000
   77       -0.602252   1.000000
   78       -0.487176   1.000000
   79       -0.354033   1.000000
   80       -0.168908   1.000000
   81       -0.145268   1.000000
   82        0.081631   1.000000
   83        0.291522   1.000000
   84        0.346988   1.000000
   85        0.543832   1.000000
   86        0.592460   1.000000
   87        0.658864   1.000000
   88        0.738730   1.000000
   89        0.849283   1.000000
   90        0.988123   1.000000
   91        1.016357   1.000000
   92        1.115720   1.000000
   93        1.256882   1.000000
   94        1.331712   1.000000
   95        1.607338   1.000024
   96        1.695870   1.000289
   97        1.826095   1.004985
   98        1.940450   1.024611