    3    3   60    1
  0.8144830E+01  0.3039000E-09  0.3039000E-09  0.3055000E-09  0.5000000E-15
   1.0000000000000000E-004
  CAR 
 Name                                    
     12    216     10

  0.3742002E-15  0.3742002E-15  0.3742002E-15  0.2962963E-03
    1       -5.299156   1.000000
    2        4.621027   1.000000
    3        4.621030   1.000000
    4        6.696853   1.000000
    5        7.007702   1.000000
    6        8.820896   1.000000
    7        8.820898   1.000000
    8       13.329586   0.000000
    9       13.329797   0.000000
   10       14.250725   0.000000

  0.6666667E-01  0.3766815E-15  0.3742002E-15  0.1777778E-02
    1       -5.207180   1.000000
    2        4.407992   1.000000
    3        4.663082   1.000000
    4        6.533468   1.000000
    5        6.738484   1.000000
    6        8.784577   1.000000
    7        9.384175   1.000000
    8       12.584446  -0.000000
    9       12.680850  -0.000000
   10       14.961708   0.000000

  0.1333333E+00  0.3754153E-15  0.3742002E-15  0.1777778E-02
    1       -4.935753   1.000000
    2        3.843626   1.000000
    3        4.775419   1.000000
    4        5.740104   1.000000
    5        6.819608   1.000000
    6        8.683499   1.000000
    7       10.419795   1.023394
    8       11.656502  -0.000000
    9       11.943463  -0.000000
   10       15.953505   0.000000

  0.2000000E+00  0.3870416E-15  0.3742002E-15  0.1777778E-02
    1       -4.497914   1.000000
    2        3.073503   1.000000
    3        4.920042   1.000000
    4        4.995179   1.000000
    5        6.799515   1.000000
    6        8.538745   1.000000
    7       11.085730  -0.000000
    8       11.440122  -0.000000
    9       11.465272  -0.000000
   10       16.419725   0.000000

  0.2666667E+00  0.4120044E-15  0.3742002E-15  0.1777778E-02
    1       -3.913980   1.000000
    2        2.208891   1.000000
    3        4.371795   1.000000
    4        5.050062   1.000000
    5        6.535386   1.000000
    6        8.378280   1.000000
    7       11.102823  -0.000000
    8       11.198467  -0.000000
    9       12.233039  -0.000000
   10       16.314752   0.000000

  0.3333333E+00  0.4025434E-15  0.3742002E-15  0.1777778E-02
    1       -3.210410   1.000000
    2        1.307501   1.000000
    3        3.893122   1.000000
    4        5.133475   1.000000
    5        6.099812   1.000000
    6        8.230057   1.000000
    7       11.183702  -0.000000
    8       11.665966  -0.000000
    9       12.494341  -0.000000
   10       17.005311   0.000000

  0.4000000E+00  0.3732510E-15  0.3742002E-15  0.1777778E-02
    1       -2.421580   1.000000
    2        0.399437   1.000000
    3        3.569696   1.000000
    4        5.169661   1.000000
    5        5.696396   1.000000
    6        8.117540   1.000000
    7       11.296501  -0.000000
    8       12.420432  -0.000000
    9       12.525283  -0.000000
   10       17.044196   0.000000

  0.4666667E+00  0.3915456E-15  0.3742002E-15  0.1777778E-02
    1       -1.628090   1.000000
    2       -0.449023   1.000000
    3        3.406943   1.000000
    4        5.178916   1.000000
    5        5.465163   1.000000
    6        8.057077   1.000000
    7       11.402694  -0.000000
    8       12.315539  -0.000000
    9       13.283480  -0.000000
   10       16.871868   0.000000

  0.6666667E-01  0.6666667E-01  0.3742002E-15  0.1777778E-02
    1       -5.025427   1.000000
    2        4.032731   1.000000
    3        4.723437   1.000000
    4        5.957126   1.000000
    5        6.805355   1.000000
    6        8.697939   1.000000
    7       10.146356   1.000000
    8       11.917950  -0.000000
    9       12.078773  -0.000000
   10       15.620068   0.000000

  0.1333333E+00  0.6666667E-01  0.3742002E-15  0.3555556E-02
    1       -4.670453   1.000000
    2        3.398113   1.000000
    3        4.793060   1.000000
    4        5.261373   1.000000
    5        6.878131   1.000000
    6        8.527247   1.000000
    7       11.156204  -0.000000
    8       11.180876  -0.000000
    9       11.639747  -0.000000
   10       16.626915   0.000000

  0.2000000E+00  0.6666667E-01  0.3742002E-15  0.3555556E-02
    1       -4.158518   1.000000
    2        2.617609   1.000000
    3        4.630350   1.000000
    4        4.812409   1.000000
    5        6.847130   1.000000
    6        8.308905   1.000000
    7       10.682456  -0.028281
    8       11.539105  -0.000000
    9       12.160575  -0.000000
   10       16.292541   0.000000

  0.2666667E+00  0.6666667E-01  0.3742002E-15  0.3555556E-02
    1       -3.512395   1.000000
    2        1.765745   1.000000
    3        4.118697   1.000000
    4        4.732436   1.000000
    5        6.672078   1.000000
    6        8.082253   1.000000
    7       10.619355   0.187911
    8       11.804290  -0.000000
    9       12.762060  -0.000000
   10       16.298911   0.000000

  0.3333333E+00  0.6666667E-01  0.3742002E-15  0.3555556E-02
    1       -2.760987   1.000000
    2        0.880127   1.000000
    3        3.746123   1.000000
    4        4.570647   1.000000
    5        6.453008   1.000000
    6        7.885999   1.000000
    7       10.844257  -0.000572
    8       12.356226  -0.000000
    9       12.871997  -0.000000
   10       17.224311   0.000000

  0.4000000E+00  0.6666667E-01  0.3742002E-15  0.3555556E-02
    1       -1.947315   1.000000
    2       -0.006797   1.000000
    3        3.520616   1.000000
    4        4.413861   1.000000
    5        6.296039   1.000000
    6        7.753232   1.000000
    7       11.122743  -0.000000
    8       12.786205  -0.000000
    9       12.985236  -0.000000
   10       17.186732   0.000000

  0.4666667E+00  0.6666667E-01  0.3742002E-15  0.1777778E-02
    1       -1.331527   1.000000
    2       -0.645676   1.000000
    3        3.445250   1.000000
    4        4.350280   1.000000
    5        6.241241   1.000000
    6        7.706318   1.000000
    7       11.244594  -0.000000
    8       12.737103  -0.000000
    9       13.296155  -0.000000
   10       17.102548   0.000000

  0.1333333E+00  0.1333333E+00  0.3742002E-15  0.1777778E-02
    1       -4.240580   1.000000
    2        2.809141   1.000000
    3        4.637389   1.000000
    4        4.746755   1.000000
    5        7.016066   1.000000
    6        8.213291   1.000000
    7       10.523117   0.901102
    8       11.668426  -0.000000
    9       12.203982  -0.000000
   10       16.273570   0.000000

  0.2000000E+00  0.1333333E+00  0.3742002E-15  0.3555556E-02
    1       -3.663795   1.000000
    2        2.123212   1.000000
    3        4.301641   1.000000
    4        4.306592   1.000000
    5        7.197081   1.000000
    6        7.824639   1.000000
    7       10.080558   1.000000
    8       12.005148  -0.000000
    9       13.194846  -0.000000
   10       15.968496   0.000000

  0.2666667E+00  0.1333333E+00  0.3742002E-15  0.3555556E-02
    1       -2.963856   1.000000
    2        1.358680   1.000000
    3        3.914108   1.000000
    4        3.963765   1.000000
    5        7.280642   1.000000
    6        7.444421   1.000000
    7       10.049626   1.000000
    8       12.471476  -0.000000
    9       13.746068   0.000000
   10       16.240736   0.000000

  0.3333333E+00  0.1333333E+00  0.3742002E-15  0.3555556E-02
    1       -2.171767   1.000000
    2        0.529502   1.000000
    3        3.587283   1.000000
    4        3.742084   1.000000
    5        7.144606   1.000000
    6        7.229920   1.000000
    7       10.389960   1.011179
    8       12.836928  -0.000000
    9       13.810242   0.000000
   10       17.059506   0.000000

  0.4000000E+00  0.1333333E+00  0.3742002E-15  0.3555556E-02
    1       -1.348894   1.000000
    2       -0.311930   1.000000
    3        3.407134   1.000000
    4        3.633489   1.000000
    5        6.979684   1.000000
    6        7.162220   1.000000
    7       10.762371  -0.013201
    8       12.959616  -0.000000
    9       13.760170   0.000000
   10       17.831802   0.000000

  0.2000000E+00  0.2000000E+00  0.3742002E-15  0.1777778E-02
    1       -3.031246   1.000000
    2        1.600407   1.000000
    3        3.609988   1.000000
    4        4.070091   1.000000
    5        7.236575   1.000000
    6        7.710669   1.000000
    7        9.608274   1.000000
    8       12.531167  -0.000000
    9       14.327921   0.000000
   10       15.771897   0.000000

  0.2666667E+00  0.2000000E+00  0.3742002E-15  0.3555556E-02
    1       -2.284978   1.000000
    2        1.001463   1.000000
    3        2.967174   1.000000
    4        3.947894   1.000000
    5        6.685500   1.000000
    6        8.074130   1.000000
    7        9.558765   1.000000
    8       12.808620  -0.000000
    9       14.957924   0.000000
   10       16.163719   0.000000

  0.3333333E+00  0.2000000E+00  0.3742002E-15  0.3555556E-02
    1       -1.459196   1.000000
    2        0.272249   1.000000
    3        2.549388   1.000000
    4        3.910167   1.000000
    5        6.287460   1.000000
    6        8.099292   1.000000
    7       10.010657   1.000000
    8       12.671276  -0.000000
    9       14.972056   0.000000
   10       17.028416   0.000000

  0.4000000E+00  0.2000000E+00  0.3742002E-15  0.1777778E-02
    1       -0.713769   1.000000
    2       -0.445610   1.000000
    3        2.411286   1.000000
    4        3.907412   1.000000
    5        6.139943   1.000000
    6        8.065609   1.000000
    7       10.330721   1.001245
    8       12.474023  -0.000000
    9       14.946086   0.000000
   10       17.425414   0.000000

  0.2666667E+00  0.2666667E+00  0.3742002E-15  0.1777778E-02
    1       -1.502446   1.000000
    2        0.644464   1.000000
    3        2.091165   1.000000
    4        4.071774   1.000000
    5        5.975690   1.000000
    6        8.883006   1.000000
    7        9.267691   1.000000
    8       12.573519  -0.000000
    9       16.044207   0.000000
   10       16.198285   0.000000

  0.3333333E+00  0.2666667E+00  0.3742002E-15  0.3555556E-02
    1       -0.665315   1.000000
    2        0.111959   1.000000
    3        1.553582   1.000000
    4        4.260135   1.000000
    5        5.476468   1.000000
    6        8.958362   1.000000
    7        9.751370   1.000000
    8       12.049524  -0.000000
    9       16.042674   0.000000
   10       16.971520   0.000000

  0.3333333E+00  0.3333333E+00  0.3742002E-15  0.5925926E-03
    1       -0.027049   1.000000
    2       -0.027047   1.000000
    3        0.931928   1.000000
    4        4.788090   1.000000
    5        4.788092   1.000000
    6        9.535833   1.000000
    7        9.535833   1.000000
    8       11.639775  -0.000000
    9       16.719708   0.000000
   10       16.719709   0.000000

  0.3742002E-15  0.3742002E-15  0.6666667E-01  0.5925926E-03
    1       -5.225261   1.000000
    2        4.680959   1.000000
    3        4.680962   1.000000
    4        5.908218   1.000000
    5        7.757303   1.000000
    6        8.582431   1.000000
    7        8.582433   1.000000
    8       13.145494  -0.000000
    9       13.145502  -0.000000
   10       14.603571   0.000000

  0.6666667E-01  0.3766815E-15  0.6666667E-01  0.3555556E-02
    1       -5.134647   1.000000
    2        4.458672   1.000000
    3        4.714309   1.000000
    4        5.793564   1.000000
    5        7.309909   1.000000
    6        8.547062   1.000000
    7        9.271625   1.000000
    8       12.602579  -0.000000
    9       12.705402  -0.000000
   10       14.994420   0.000000

  0.1333333E+00  0.3754153E-15  0.6666667E-01  0.3555556E-02
    1       -4.867433   1.000000
    2        3.865769   1.000000
    3        4.797435   1.000000
    4        5.401382   1.000000
    5        6.974604   1.000000
    6        8.464303   1.000000
    7       10.279207   1.000094
    8       11.851364  -0.000000
    9       12.093848  -0.000000
   10       15.762770   0.000000

  0.2000000E+00  0.3870416E-15  0.6666667E-01  0.3555556E-02
    1       -4.436907   1.000000
    2        3.056632   1.000000
    3        4.861996   1.000000
    4        4.886964   1.000000
    5        6.797402   1.000000
    6        8.389040   1.000000
    7       10.882463  -0.000077
    8       11.638258  -0.000000
    9       11.763103  -0.000000
   10       15.960810   0.000000

  0.2666667E+00  0.4120044E-15  0.6666667E-01  0.3555556E-02
    1       -3.863566   1.000000
    2        2.157980   1.000000
    3        4.357540   1.000000
    4        4.937047   1.000000
    5        6.500246   1.000000
    6        8.365344   1.000000
    7       11.069359  -0.000000
    8       11.377021  -0.000000
    9       12.315654  -0.000000
   10       15.995781   0.000000

  0.3333333E+00  0.4025434E-15  0.6666667E-01  0.3555556E-02
    1       -3.173199   1.000000
    2        1.235754   1.000000
    3        3.958838   1.000000
    4        4.933224   1.000000
    5        6.077424   1.000000
    6        8.387846   1.000000
    7       11.301171  -0.000000
    8       11.564743  -0.000000
    9       12.565536  -0.000000
   10       16.430543   0.000000

  0.4000000E+00  0.3732510E-15  0.6666667E-01  0.3555556E-02
    1       -2.396446   1.000000
    2        0.318688   1.000000
    3        3.689029   1.000000
    4        4.899411   1.000000
    5        5.687901   1.000000
    6        8.418722   1.000000
    7       11.353113  -0.000000
    8       11.986754  -0.000000
    9       12.891441  -0.000000
   10       16.790672   0.000000

  0.4666667E+00  0.3915456E-15  0.6666667E-01  0.3555556E-02
    1       -1.590388   1.000000
    2       -0.551822   1.000000
    3        3.554237   1.000000
    4        4.871293   1.000000
    5        5.462152   1.000000
    6        8.435044   1.000000
    7       11.425515  -0.000000
    8       12.003820  -0.000000
    9       13.544370   0.000000
   10       16.499387   0.000000

  0.6666667E-01  0.6666667E-01  0.6666667E-01  0.3555556E-02
    1       -4.955690   1.000000
    2        4.072696   1.000000
    3        4.735017   1.000000
    4        5.544680   1.000000
    5        7.055527   1.000000
    6        8.445855   1.000000
    7       10.049963   1.000000
    8       12.024833  -0.000000
    9       12.231761  -0.000000
   10       15.600497   0.000000

  0.1333333E+00  0.6666667E-01  0.6666667E-01  0.7111111E-02
    1       -4.606511   1.000000
    2        3.413308   1.000000
    3        4.652562   1.000000
    4        5.184882   1.000000
    5        6.950424   1.000000
    6        8.273468   1.000000
    7       10.936280  -0.000003
    8       11.441179  -0.000000
    9       11.906441  -0.000000
   10       16.167044   0.000000

  0.2000000E+00  0.6666667E-01  0.6666667E-01  0.7111111E-02
    1       -4.103668   1.000000
    2        2.595707   1.000000
    3        4.361805   1.000000
    4        4.952250   1.000000
    5        6.830200   1.000000
    6        8.151462   1.000000
    7       10.877804  -0.000100
    8       11.556701  -0.000000
    9       12.262978  -0.000000
   10       15.984169   0.000000

  0.2666667E+00  0.6666667E-01  0.6666667E-01  0.7111111E-02
    1       -3.469872   1.000000
    2        1.711884   1.000000
    3        4.026723   1.000000
    4        4.747229   1.000000
    5        6.560482   1.000000
    6        8.147093   1.000000
    7       10.813562  -0.002252
    8       11.793875  -0.000000
    9       12.765559  -0.000000
   10       16.098446   0.000000

  0.3333333E+00  0.6666667E-01  0.6666667E-01  0.7111111E-02
    1       -2.732513   1.000000
    2        0.808474   1.000000
    3        3.775203   1.000000
    4        4.510954   1.000000
    5        6.243639   1.000000
    6        8.188350   1.000000
    7       10.961518  -0.000000
    8       12.196422  -0.000000
    9       12.957359  -0.000000
   10       16.621049   0.000000

  0.4000000E+00  0.6666667E-01  0.6666667E-01  0.7111111E-02
    1       -1.926558   1.000000
    2       -0.088205   1.000000
    3        3.632731   1.000000
    4        4.309255   1.000000
    5        6.015298   1.000000
    6        8.208935   1.000000
    7       11.173887  -0.000000
    8       12.370568  -0.000000
    9       13.330690   0.000000
   10       16.756359   0.000000

  0.4666667E+00  0.6666667E-01  0.6666667E-01  0.3555556E-02
    1       -1.260154   1.000000
    2       -0.782991   1.000000
    3        3.589087   1.000000
    4        4.228583   1.000000
    5        5.934965   1.000000
    6        8.212111   1.000000
    7       11.273142  -0.000000
    8       12.366714  -0.000000
    9       13.620462   0.000000
   10       16.610326   0.000000

  0.1333333E+00  0.1333333E+00  0.6666667E-01  0.3555556E-02
    1       -4.184302   1.000000
    2        2.820355   1.000000
    3        4.205215   1.000000
    4        5.026435   1.000000
    5        7.091093   1.000000
    6        7.892067   1.000000
    7       10.834974  -0.000886
    8       11.628044  -0.000000
    9       12.302572  -0.000000
   10       16.067163   0.000000

  0.2000000E+00  0.1333333E+00  0.6666667E-01  0.7111111E-02
    1       -3.618758   1.000000
    2        2.110270   1.000000
    3        3.793791   1.000000
    4        4.728094   1.000000
    5        7.138747   1.000000
    6        7.669422   1.000000
    7       10.428917   1.027577
    8       12.027612  -0.000000
    9       13.143982  -0.000000
   10       15.809663   0.000000

  0.2666667E+00  0.1333333E+00  0.6666667E-01  0.7111111E-02
    1       -2.933387   1.000000
    2        1.314091   1.000000
    3        3.513373   1.000000
    4        4.345410   1.000000
    5        6.782099   1.000000
    6        7.869734   1.000000
    7       10.313332   1.000557
    8       12.460657  -0.000000
    9       13.648562   0.000000
   10       16.073450   0.000000

  0.3333333E+00  0.1333333E+00  0.6666667E-01  0.7111111E-02
    1       -2.156697   1.000000
    2        0.465711   1.000000
    3        3.365411   1.000000
    4        3.994465   1.000000
    5        6.444599   1.000000
    6        8.008066   1.000000
    7       10.526513   0.883896
    8       12.756071  -0.000000
    9       13.783458   0.000000
   10       16.661612   0.000000

  0.4000000E+00  0.1333333E+00  0.6666667E-01  0.7111111E-02
    1       -1.331521   1.000000
    2       -0.393971   1.000000
    3        3.321143   1.000000
    4        3.774215   1.000000
    5        6.258033   1.000000
    6        8.035852   1.000000
    7       10.825932  -0.001332
    8       12.809583  -0.000000
    9       13.843890   0.000000
   10       16.954100   0.000000

  0.2000000E+00  0.2000000E+00  0.6666667E-01  0.3555556E-02
    1       -3.000132   1.000000
    2        1.585579   1.000000
    3        3.237455   1.000000
    4        4.400919   1.000000
    5        6.925805   1.000000
    6        7.821254   1.000000
    7        9.999398   1.000000
    8       12.545700  -0.000000
    9       14.179893   0.000000
   10       15.641645   0.000000

  0.2666667E+00  0.2000000E+00  0.6666667E-01  0.7111111E-02
    1       -2.271778   1.000000
    2        0.964366   1.000000
    3        2.771999   1.000000
    4        4.152985   1.000000
    5        6.398156   1.000000
    6        8.295415   1.000000
    7        9.853293   1.000000
    8       12.811598  -0.000000
    9       14.796208   0.000000
   10       15.989362   0.000000

  0.3333333E+00  0.2000000E+00  0.6666667E-01  0.7111111E-02
    1       -1.464834   1.000000
    2        0.217107   1.000000
    3        2.478585   1.000000
    4        4.028611   1.000000
    5        6.015683   1.000000
    6        8.473494   1.000000
    7       10.151614   1.000000
    8       12.680338  -0.000000
    9       14.867087   0.000000
   10       16.745906   0.000000

  0.4000000E+00  0.2000000E+00  0.6666667E-01  0.3555556E-02
    1       -0.671670   1.000000
    2       -0.560556   1.000000
    3        2.381504   1.000000
    4        3.995648   1.000000
    5        5.875323   1.000000
    6        8.482786   1.000000
    7       10.419909   1.023447
    8       12.496241  -0.000000
    9       14.860099   0.000000
   10       17.092093   0.000000

  0.2666667E+00  0.2666667E+00  0.6666667E-01  0.3555556E-02
    1       -1.512748   1.000000
    2        0.599762   1.000000
    3        2.018605   1.000000
    4        4.178933   1.000000
    5        5.804766   1.000000
    6        9.013028   1.000000
    7        9.570369   1.000000
    8       12.601229  -0.000000
    9       15.929768   0.000000
   10       15.974988   0.000000

  0.3333333E+00  0.2666667E+00  0.6666667E-01  0.7111111E-02
    1       -0.706300   1.000000
    2        0.058848   1.000000
    3        1.558439   1.000000
    4        4.309812   1.000000
    5        5.364923   1.000000
    6        9.207382   1.000000
    7        9.897252   1.000000
    8       12.103397  -0.000000
    9       15.922652   0.000000
   10       16.781714   0.000000

  0.3333333E+00  0.3333333E+00  0.6666667E-01  0.1185185E-02
    1       -0.107153   1.000000
    2       -0.107150   1.000000
    3        1.014448   1.000000
    4        4.768362   1.000000
    5        4.768364   1.000000
    6        9.718411   1.000000
    7        9.718411   1.000000
    8       11.706533  -0.000000
    9       16.585851   0.000000
   10       16.585852   0.000000

  0.3742002E-15  0.3742002E-15  0.1333333E+00  0.5925926E-03
    1       -5.007499   1.000000
    2        4.860360   1.000000
    3        4.860363   1.000000
    4        4.940302   1.000000
    5        8.018348   1.000000
    6        8.018349   1.000000
    7        8.626830   1.000000
    8       12.633929  -0.000000
    9       12.633932  -0.000000
   10       14.625050   0.000000

  0.6666667E-01  0.3766815E-15  0.1333333E+00  0.3555556E-02
    1       -4.921176   1.000000
    2        4.591496   1.000000
    3        4.863039   1.000000
    4        4.895531   1.000000
    5        7.540953   1.000000
    6        8.001497   1.000000
    7        9.303941   1.000000
    8       12.379604  -0.000000
    9       12.519333  -0.000000
   10       14.961374   0.000000

  0.1333333E+00  0.3754153E-15  0.1333333E+00  0.3555556E-02
    1       -4.667158   1.000000
    2        3.888556   1.000000
    3        4.769216   1.000000
    4        4.848606   1.000000
    5        7.084492   1.000000
    6        8.002160   1.000000
    7       10.188286   1.000000
    8       12.015546  -0.000000
    9       12.273438  -0.000000
   10       15.684794   0.000000

  0.2000000E+00  0.3870416E-15  0.1333333E+00  0.3555556E-02
    1       -4.259754   1.000000
    2        2.981611   1.000000
    3        4.561872   1.000000
    4        4.774229   1.000000
    5        6.741424   1.000000
    6        8.118005   1.000000
    7       10.695808  -0.034907
    8       12.013416  -0.000000
    9       12.157312  -0.000000
   10       15.570204   0.000000

  0.2666667E+00  0.4120044E-15  0.1333333E+00  0.3555556E-02
    1       -3.720253   1.000000
    2        2.021655   1.000000
    3        4.325207   1.000000
    4        4.631101   1.000000
    5        6.381443   1.000000
    6        8.387031   1.000000
    7       10.958544  -0.000001
    8       11.788595  -0.000000
    9       12.598378  -0.000000
   10       15.542457   0.000000

  0.3333333E+00  0.4025434E-15  0.1333333E+00  0.3555556E-02
    1       -3.073707   1.000000
    2        1.073540   1.000000
    3        4.121902   1.000000
    4        4.459984   1.000000
    5        5.983112   1.000000
    6        8.747751   1.000000
    7       11.319658  -0.000000
    8       11.623000  -0.000000
    9       12.829184  -0.000000
   10       15.959439   0.000000

  0.4000000E+00  0.3732510E-15  0.1333333E+00  0.3555556E-02
    1       -2.345006   1.000000
    2        0.158878   1.000000
    3        3.987779   1.000000
    4        4.314344   1.000000
    5        5.631306   1.000000
    6        9.082491   1.000000
    7       11.528220  -0.000000
    8       11.530270  -0.000000
    9       13.255063  -0.000000
   10       16.251438   0.000000

  0.4666667E+00  0.3915456E-15  0.1333333E+00  0.3555556E-02
    1       -1.555403   1.000000
    2       -0.717562   1.000000
    3        3.926492   1.000000
    4        4.232382   1.000000
    5        5.424167   1.000000
    6        9.279683   1.000000
    7       11.493661  -0.000000
    8       11.525540  -0.000000
    9       13.937828   0.000000
   10       15.923732   0.000000

  0.6666667E-01  0.6666667E-01  0.1333333E+00  0.3555556E-02
    1       -4.750968   1.000000
    2        4.185821   1.000000
    3        4.553629   1.000000
    4        5.031249   1.000000
    5        7.263793   1.000000
    6        7.891842   1.000000
    7       10.020291   1.000000
    8       12.032530  -0.000000
    9       12.373749  -0.000000
   10       15.538526   0.000000

  0.1333333E+00  0.6666667E-01  0.1333333E+00  0.7111111E-02
    1       -4.420058   1.000000
    2        3.433190   1.000000
    3        4.240013   1.000000
    4        5.079836   1.000000
    5        7.043719   1.000000
    6        7.789545   1.000000
    7       10.788801  -0.005768
    8       11.734887  -0.000000
    9       12.278822  -0.000000
   10       15.891189   0.000000

  0.2000000E+00  0.6666667E-01  0.1333333E+00  0.7111111E-02
    1       -3.945999   1.000000
    2        2.518076   1.000000
    3        3.989382   1.000000
    4        4.971796   1.000000
    5        6.711028   1.000000
    6        7.967971   1.000000
    7       11.049641  -0.000000
    8       11.766651  -0.000000
    9       12.538034  -0.000000
   10       15.594199   0.000000

  0.2666667E+00  0.6666667E-01  0.1333333E+00  0.7111111E-02
    1       -3.351966   1.000000
    2        1.576339   1.000000
    3        3.810791   1.000000
    4        4.729937   1.000000
    5        6.297773   1.000000
    6        8.351553   1.000000
    7       11.166934  -0.000000
    8       11.811402  -0.000000
    9       12.906581  -0.000000
   10       15.692353   0.000000

  0.3333333E+00  0.6666667E-01  0.1333333E+00  0.7111111E-02
    1       -2.663233   1.000000
    2        0.654162   1.000000
    3        3.729152   1.000000
    4        4.430202   1.000000
    5        5.911894   1.000000
    6        8.769033   1.000000
    7       11.265179  -0.000000
    8       11.908702  -0.000000
    9       13.172130  -0.000000
   10       16.122829   0.000000

  0.4000000E+00  0.6666667E-01  0.1333333E+00  0.7111111E-02
    1       -1.903591   1.000000
    2       -0.235239   1.000000
    3        3.757302   1.000000
    4        4.142803   1.000000
    5        5.643094   1.000000
    6        9.073020   1.000000
    7       11.326008  -0.000000
    8       11.903593  -0.000000
    9       13.677709   0.000000
   10       16.167962   0.000000

  0.4666667E+00  0.6666667E-01  0.1333333E+00  0.3555556E-02
    1       -1.128593   1.000000
    2       -1.051341   1.000000
    3        3.855750   1.000000
    4        3.953093   1.000000
    5        5.547609   1.000000
    6        9.180074   1.000000
    7       11.355485  -0.000000
    8       11.872201  -0.000000
    9       14.038120   0.000000
   10       15.959699   0.000000

  0.1333333E+00  0.1333333E+00  0.1333333E+00  0.3555556E-02
    1       -4.022015   1.000000
    2        2.846952   1.000000
    3        3.657535   1.000000
    4        5.136893   1.000000
    5        7.277742   1.000000
    6        7.310341   1.000000
    7       11.339320  -0.000000
    8       11.548033  -0.000000
    9       12.558063  -0.000000
   10       15.789174   0.000000

  0.2000000E+00  0.1333333E+00  0.1333333E+00  0.7111111E-02
    1       -3.492178   1.000000
    2        2.065278   1.000000
    3        3.300777   1.000000
    4        4.961779   1.000000
    5        6.719950   1.000000
    6        7.782876   1.000000
    7       11.072040  -0.000000
    8       12.054113  -0.000000
    9       13.121741  -0.000000
   10       15.517999   0.000000

  0.2666667E+00  0.1333333E+00  0.1333333E+00  0.7111111E-02
    1       -2.854172   1.000000
    2        1.201873   1.000000
    3        3.132581   1.000000
    4        4.645797   1.000000
    5        6.219816   1.000000
    6        8.343934   1.000000
    7       10.922876  -0.000007
    8       12.400802  -0.000000
    9       13.536689   0.000000
   10       15.708843   0.000000

  0.3333333E+00  0.1333333E+00  0.1333333E+00  0.7111111E-02
    1       -2.133390   1.000000
    2        0.332736   1.000000
    3        3.090952   1.000000
    4        4.312592   1.000000
    5        5.849976   1.000000
    6        8.826121   1.000000
    7       10.916261  -0.000010
    8       12.537327  -0.000000
    9       13.797663   0.000000
   10       16.126566   0.000000

  0.4000000E+00  0.1333333E+00  0.1333333E+00  0.7111111E-02
    1       -1.356965   1.000000
    2       -0.514295   1.000000
    3        3.113694   1.000000
    4        4.086428   1.000000
    5        5.654269   1.000000
    6        9.081128   1.000000
    7       11.012835  -0.000000
    8       12.500855  -0.000000
    9       14.023026   0.000000
   10       16.268597   0.000000

  0.2000000E+00  0.2000000E+00  0.1333333E+00  0.3555556E-02
    1       -2.917698   1.000000
    2        1.537565   1.000000
    3        2.759781   1.000000
    4        4.748707   1.000000
    5        6.348137   1.000000
    6        8.147619   1.000000
    7       10.778425  -0.008167
    8       12.571820  -0.000000
    9       13.913419   0.000000
   10       15.367816   0.000000

  0.2666667E+00  0.2000000E+00  0.1333333E+00  0.7111111E-02
    1       -2.247097   1.000000
    2        0.864358   1.000000
    3        2.459911   1.000000
    4        4.487914   1.000000
    5        5.886092   1.000000
    6        8.747564   1.000000
    7       10.563252   0.632149
    8       12.815482  -0.000000
    9       14.477842   0.000000
   10       15.627869   0.000000
