   55   55   85    1
  0.1383486E+02  0.6088057E-09  0.6088057E-09  0.2372246E-08  0.5000000E-15
   1.0000000000000000E-004
  CAR 
 Name                                    
    201     41    132

  0.3742002E-15  0.3742002E-15  0.1262379E-14  0.1234568E-01
    1      -11.796335   1.000000
    2      -11.217436   1.000000
    3      -10.389593   1.000000
    4       -9.091578   1.000000
    5       -8.947649   1.000000
    6       -8.910603   1.000000
    7       -8.531281   1.000000
    8       -8.339150   1.000000
    9       -8.214462   1.000000
   10       -8.087146   1.000000
   11       -8.031380   1.000000
   12       -7.984377   1.000000
   13       -7.951514   1.000000
   14       -7.946865   1.000000
   15       -7.655479   1.000000
   16       -7.621392   1.000000
   17       -7.600721   1.000000
   18       -7.363352   1.000000
   19       -7.298138   1.000000
   20       -7.152849   1.000000
   21       -6.914529   1.000000
   22       -6.435822   1.000000
   23       -6.374820   1.000000
   24       -6.280752   1.000000
   25       -6.266564   1.000000
   26       -6.152414   1.000000
   27       -6.141885   1.000000
   28       -5.728949   1.000000
   29       -5.575333   1.000000
   30       -5.427813   1.000000
   31       -5.007632   1.000000
   32       -4.970375   1.000000
   33       -4.857900   1.000000
   34       -4.837624   1.000000
   35       -4.511896   1.000000
   36       -4.449401   1.000000
   37       -4.374087   1.000000
   38       -3.912962   1.000000
   39       -3.415784   1.000000
   40       -3.347264   1.000000
   41       -3.258796   1.000000
   42       -3.205182   1.000000
   43       -2.935387   1.000000
   44       -2.916051   1.000000
   45       -2.843609   1.000000
   46       -2.735817   1.000000
   47       -2.651657   1.000000
   48       -2.543714   1.000000
   49       -2.482431   1.000000
   50       -2.451966   1.000000
   51       -2.218817   1.000000
   52       -2.197233   1.000000
   53       -2.196858   1.000000
   54       -2.124702   1.000000
   55       -2.102633   1.000000
   56       -2.095973   1.000000
   57       -1.951524   1.000000
   58       -1.948796   1.000000
   59       -1.780153   1.000000
   60       -1.747525   1.000000
   61       -1.594209   1.000000
   62       -1.591911   1.000000
   63       -1.451928   1.000000
   64       -1.397151   1.000000
   65       -1.378251   1.000000
   66       -1.289359   1.000000
   67       -1.091355   1.000000
   68       -1.076403   1.000000
   69       -1.046995   1.000000
   70       -0.974172   1.000000
   71       -0.939845   1.000000
   72       -0.915000   1.000000
   73       -0.906548   1.000000
   74       -0.670702   1.000000
   75       -0.523014   1.000000
   76       -0.377013   1.000000
   77       -0.375901   1.000000
   78       -0.311329   1.000000
   79       -0.155030   1.000000
   80        0.051243   1.000000
   81        0.166232   1.000000
   82        0.384422   1.000000
   83        0.397489   1.000000
   84        0.807684   1.000000
   85        0.816094   1.000000
   86        0.903855   1.000000
   87        0.921939   1.000000
   88        1.043434   1.000000
   89        1.069336   1.000000
   90        1.184853   1.000000
   91        1.263176   1.000000
   92        1.314869   1.000000
   93        1.320989   1.000000
   94        1.327280   1.000000
   95        1.508462   1.000000
   96        1.676757   1.000002
   97        1.862855   1.000570
   98        1.924777   1.002269
   99        2.378123   0.564320
  100        2.419803   0.389236
  101        2.453944   0.256266
  102        2.703677  -0.025308
  103        2.721640  -0.021167
  104        2.952408  -0.000280
  105        2.956660  -0.000251
  106        3.053359  -0.000016
  107        3.096066  -0.000004
  108        3.246124  -0.000000
  109        3.295142  -0.000000
  110        3.303561  -0.000000
  111        3.389178  -0.000000
  112        3.405165  -0.000000
  113        3.517608  -0.000000
  114        3.522379  -0.000000
  115        3.605350  -0.000000
  116        3.615392  -0.000000
  117        3.628409  -0.000000
  118        3.684376  -0.000000
  119        3.721572  -0.000000
  120        3.730038  -0.000000
  121        3.822789  -0.000000
  122        3.892242  -0.000000
  123        3.894929  -0.000000
  124        3.911370  -0.000000
  125        3.969642  -0.000000
  126        4.017823  -0.000000
  127        4.086878  -0.000000
  128        4.144546  -0.000000
  129        4.288679  -0.000000
  130        4.303263  -0.000000
  131        4.509720  -0.000000
  132        4.575464  -0.000000

  0.1111111E+00  0.3857958E-15  0.1262379E-14  0.2469136E-01
    1      -11.739014   1.000000
    2      -11.164947   1.000000
    3      -10.349415   1.000000
    4       -9.055323   1.000000
    5       -8.938607   1.000000
    6       -8.909226   1.000000
    7       -8.680136   1.000000
    8       -8.557567   1.000000
    9       -8.369363   1.000000
   10       -8.284304   1.000000
   11       -8.250255   1.000000
   12       -8.207614   1.000000
   13       -8.082714   1.000000
   14       -8.041243   1.000000
   15       -7.497348   1.000000
   16       -7.400642   1.000000
   17       -7.273439   1.000000
   18       -7.201105   1.000000
   19       -7.125075   1.000000
   20       -6.975330   1.000000
   21       -6.816526   1.000000
   22       -6.472727   1.000000
   23       -6.379451   1.000000
   24       -6.297647   1.000000
   25       -6.178012   1.000000
   26       -6.114360   1.000000
   27       -6.019104   1.000000
   28       -5.750895   1.000000
   29       -5.598754   1.000000
   30       -5.496752   1.000000
   31       -4.921835   1.000000
   32       -4.857636   1.000000
   33       -4.809927   1.000000
   34       -4.660448   1.000000
   35       -4.438532   1.000000
   36       -4.344801   1.000000
   37       -4.165693   1.000000
   38       -3.874477   1.000000
   39       -3.455788   1.000000
   40       -3.400459   1.000000
   41       -3.232214   1.000000
   42       -3.183938   1.000000
   43       -3.050637   1.000000
   44       -2.923054   1.000000
   45       -2.894876   1.000000
   46       -2.869080   1.000000
   47       -2.778639   1.000000
   48       -2.676234   1.000000
   49       -2.467955   1.000000
   50       -2.405685   1.000000
   51       -2.263069   1.000000
   52       -2.221087   1.000000
   53       -2.150666   1.000000
   54       -2.101793   1.000000
   55       -2.074565   1.000000
   56       -2.065941   1.000000
   57       -1.961552   1.000000
   58       -1.950186   1.000000
   59       -1.783600   1.000000
   60       -1.750664   1.000000
   61       -1.649251   1.000000
   62       -1.636459   1.000000
   63       -1.557623   1.000000
   64       -1.434417   1.000000
   65       -1.409990   1.000000
   66       -1.330773   1.000000
   67       -1.266824   1.000000
   68       -1.136110   1.000000
   69       -1.085182   1.000000
   70       -0.999826   1.000000
   71       -0.955693   1.000000
   72       -0.899603   1.000000
   73       -0.832088   1.000000
   74       -0.660067   1.000000
   75       -0.544335   1.000000
   76       -0.477981   1.000000
   77       -0.403429   1.000000
   78       -0.269996   1.000000
   79       -0.219490   1.000000
   80       -0.119600   1.000000
   81        0.111091   1.000000
   82        0.201545   1.000000
   83        0.327946   1.000000
   84        0.595366   1.000000
   85        0.630703   1.000000
   86        0.761054   1.000000
   87        0.895325   1.000000
   88        1.064629   1.000000
   89        1.112256   1.000000
   90        1.165732   1.000000
   91        1.194143   1.000000
   92        1.238814   1.000000
   93        1.351778   1.000000
   94        1.448509   1.000000
   95        1.528417   1.000000
   96        1.683105   1.000003
   97        2.088852   1.026633
   98        2.162396   1.034632
   99        2.328232   0.760094
  100        2.440539   0.306444
  101        2.497658   0.118360
  102        2.579033  -0.015998
  103        2.644314  -0.035325
  104        2.789943  -0.008447
  105        2.986538  -0.000113
  106        3.137442  -0.000001
  107        3.207506  -0.000000
  108        3.267403  -0.000000
  109        3.293296  -0.000000
  110        3.331406  -0.000000
  111        3.380909  -0.000000
  112        3.388958  -0.000000
  113        3.468699  -0.000000
  114        3.492888  -0.000000
  115        3.561966  -0.000000
  116        3.598220  -0.000000
  117        3.625319  -0.000000
  118        3.660490  -0.000000
  119        3.684782  -0.000000
  120        3.707685  -0.000000
  121        3.772259  -0.000000
  122        3.841969  -0.000000
  123        3.856062  -0.000000
  124        3.897341  -0.000000
  125        3.950797  -0.000000
  126        3.985105  -0.000000
  127        4.024661  -0.000000
  128        4.126896  -0.000000
  129        4.242037  -0.000000
  130        4.359033  -0.000000
  131        4.439376  -0.000000
  132        4.576001  -0.000000

  0.2222222E+00  0.3935346E-15  0.1262379E-14  0.2469136E-01
    1      -11.569224   1.000000
    2      -11.009934   1.000000
    3      -10.231924   1.000000
    4       -9.254235   1.000000
    5       -9.040973   1.000000
    6       -9.012251   1.000000
    7       -8.950328   1.000000
    8       -8.821759   1.000000
    9       -8.525523   1.000000
   10       -8.470001   1.000000
   11       -8.434127   1.000000
   12       -8.294706   1.000000
   13       -8.283040   1.000000
   14       -8.239676   1.000000
   15       -7.409499   1.000000
   16       -7.343576   1.000000
   17       -7.056949   1.000000
   18       -7.033525   1.000000
   19       -6.850620   1.000000
   20       -6.756572   1.000000
   21       -6.467788   1.000000
   22       -6.302762   1.000000
   23       -6.218943   1.000000
   24       -6.123716   1.000000
   25       -6.067840   1.000000
   26       -6.011487   1.000000
   27       -5.839588   1.000000
   28       -5.788572   1.000000
   29       -5.419485   1.000000
   30       -5.310826   1.000000
   31       -4.732799   1.000000
   32       -4.709674   1.000000
   33       -4.665657   1.000000
   34       -4.255674   1.000000
   35       -4.201382   1.000000
   36       -4.142680   1.000000
   37       -3.802972   1.000000
   38       -3.714412   1.000000
   39       -3.622755   1.000000
   40       -3.545374   1.000000
   41       -3.422808   1.000000
   42       -3.403184   1.000000
   43       -3.241743   1.000000
   44       -3.147246   1.000000
   45       -3.052097   1.000000
   46       -2.841752   1.000000
   47       -2.759225   1.000000
   48       -2.720631   1.000000
   49       -2.458964   1.000000
   50       -2.383806   1.000000
   51       -2.370838   1.000000
   52       -2.260259   1.000000
   53       -2.220968   1.000000
   54       -2.183240   1.000000
   55       -2.164316   1.000000
   56       -2.045868   1.000000
   57       -2.012928   1.000000
   58       -1.972887   1.000000
   59       -1.811117   1.000000
   60       -1.785690   1.000000
   61       -1.769964   1.000000
   62       -1.701441   1.000000
   63       -1.677621   1.000000
   64       -1.556314   1.000000
   65       -1.515614   1.000000
   66       -1.459604   1.000000
   67       -1.383824   1.000000
   68       -1.313474   1.000000
   69       -1.233717   1.000000
   70       -1.176673   1.000000
   71       -1.026158   1.000000
   72       -0.959462   1.000000
   73       -0.852926   1.000000
   74       -0.732257   1.000000
   75       -0.650190   1.000000
   76       -0.615964   1.000000
   77       -0.495663   1.000000
   78       -0.415412   1.000000
   79       -0.247398   1.000000
   80       -0.171933   1.000000
   81       -0.038941   1.000000
   82        0.173271   1.000000
   83        0.246442   1.000000
   84        0.346201   1.000000
   85        0.428867   1.000000
   86        0.651859   1.000000
   87        0.682865   1.000000
   88        0.891576   1.000000
   89        0.949865   1.000000
   90        1.093407   1.000000
   91        1.132097   1.000000
   92        1.242857   1.000000
   93        1.372196   1.000000
   94        1.446581   1.000000
   95        1.612517   1.000000
   96        1.671659   1.000002
   97        2.063381   1.020775
   98        2.117534   1.032505
   99        2.304386   0.838372
  100        2.436031   0.323970
  101        2.527639   0.050535
  102        2.705766  -0.024826
  103        2.828668  -0.004339
  104        2.873380  -0.001789
  105        3.047984  -0.000019
  106        3.057832  -0.000014
  107        3.095158  -0.000004
  108        3.133535  -0.000001
  109        3.169562  -0.000000
  110        3.186344  -0.000000
  111        3.302687  -0.000000
  112        3.359897  -0.000000
  113        3.414299  -0.000000
  114        3.444672  -0.000000
  115        3.470347  -0.000000
  116        3.544948  -0.000000
  117        3.576644  -0.000000
  118        3.594474  -0.000000
  119        3.638488  -0.000000
  120        3.707508  -0.000000
  121        3.723114  -0.000000
  122        3.780475  -0.000000
  123        3.819517  -0.000000
  124        3.920857  -0.000000
  125        3.970370  -0.000000
  126        4.000065  -0.000000
  127        4.081196  -0.000000
  128        4.122770  -0.000000
  129        4.165182  -0.000000
  130        4.337226  -0.000000
  131        4.394538  -0.000000
  132        4.591011  -0.000000

  0.3333333E+00  0.3939838E-15  0.1262379E-14  0.2469136E-01
    1      -11.294378   1.000000
    2      -10.760160   1.000000
    3      -10.046211   1.000000
    4       -9.857217   1.000000
    5       -9.519073   1.000000
    6       -9.235121   1.000000
    7       -8.813013   1.000000
    8       -8.669247   1.000000
    9       -8.624282   1.000000
   10       -8.595625   1.000000
   11       -8.583121   1.000000
   12       -8.446764   1.000000
   13       -8.361185   1.000000
   14       -8.265911   1.000000
   15       -7.702677   1.000000
   16       -7.619063   1.000000
   17       -6.871874   1.000000
   18       -6.817960   1.000000
   19       -6.534382   1.000000
   20       -6.408496   1.000000
   21       -6.289447   1.000000
   22       -6.223456   1.000000
   23       -6.121969   1.000000
   24       -6.091979   1.000000
   25       -5.966909   1.000000
   26       -5.810646   1.000000
   27       -5.381102   1.000000
   28       -5.233042   1.000000
   29       -5.010329   1.000000
   30       -4.824417   1.000000
   31       -4.518780   1.000000
   32       -4.489502   1.000000
   33       -4.407685   1.000000
   34       -4.068281   1.000000
   35       -4.022935   1.000000
   36       -3.953719   1.000000
   37       -3.929974   1.000000
   38       -3.887956   1.000000
   39       -3.846464   1.000000
   40       -3.733490   1.000000
   41       -3.697488   1.000000
   42       -3.602397   1.000000
   43       -3.223604   1.000000
   44       -3.031199   1.000000
   45       -2.995733   1.000000
   46       -2.953850   1.000000
   47       -2.816099   1.000000
   48       -2.723743   1.000000
   49       -2.670670   1.000000
   50       -2.509596   1.000000
   51       -2.450780   1.000000
   52       -2.381769   1.000000
   53       -2.336089   1.000000
   54       -2.294168   1.000000
   55       -2.238019   1.000000
   56       -2.187136   1.000000
   57       -2.098034   1.000000
   58       -2.075394   1.000000
   59       -1.952524   1.000000
   60       -1.903289   1.000000
   61       -1.849269   1.000000
   62       -1.760466   1.000000
   63       -1.713661   1.000000
   64       -1.689662   1.000000
   65       -1.617418   1.000000
   66       -1.540706   1.000000
   67       -1.490883   1.000000
   68       -1.410350   1.000000
   69       -1.387049   1.000000
   70       -1.312379   1.000000
   71       -1.110685   1.000000
   72       -1.034048   1.000000
   73       -0.966982   1.000000
   74       -0.830805   1.000000
   75       -0.777969   1.000000
   76       -0.673041   1.000000
   77       -0.642719   1.000000
   78       -0.488957   1.000000
   79       -0.368754   1.000000
   80       -0.256214   1.000000
   81       -0.035740   1.000000
   82        0.137018   1.000000
   83        0.216482   1.000000
   84        0.384357   1.000000
   85        0.423946   1.000000
   86        0.529397   1.000000
   87        0.612297   1.000000
   88        0.781650   1.000000
   89        0.801569   1.000000
   90        0.967005   1.000000
   91        1.079439   1.000000
   92        1.140906   1.000000
   93        1.311012   1.000000
   94        1.358483   1.000000
   95        1.531444   1.000000
   96        1.833592   1.000275
   97        1.886787   1.000998
   98        1.953012   1.003949
   99        2.116352   1.032303
  100        2.427260   0.358866
  101        2.500469   0.111038
  102        2.600588  -0.028477
  103        2.666953  -0.032879
  104        2.756212  -0.013892
  105        2.779196  -0.009984
  106        2.942295  -0.000362
  107        2.962906  -0.000213
  108        3.042362  -0.000022
  109        3.063231  -0.000012
  110        3.160102  -0.000000
  111        3.242288  -0.000000
  112        3.260677  -0.000000
  113        3.277294  -0.000000
  114        3.383260  -0.000000
  115        3.420009  -0.000000
  116        3.533515  -0.000000
  117        3.581349  -0.000000
  118        3.607245  -0.000000
  119        3.662500  -0.000000
  120        3.719745  -0.000000
  121        3.745990  -0.000000
  122        3.838320  -0.000000
  123        3.886249  -0.000000
  124        3.925995  -0.000000
  125        3.992614  -0.000000
  126        4.040102  -0.000000
  127        4.077471  -0.000000
  128        4.205023  -0.000000
  129        4.254484  -0.000000
  130        4.383678  -0.000000
  131        4.416792  -0.000000
  132        4.445513  -0.000000

  0.4444444E+00  0.3881204E-15  0.1262379E-14  0.2469136E-01
    1      -10.941223   1.000000
    2      -10.437137   1.000000
    3      -10.378005   1.000000
    4       -9.972786   1.000000
    5       -9.807322   1.000000
    6       -9.512641   1.000000
    7       -8.707958   1.000000
    8       -8.679180   1.000000
    9       -8.658971   1.000000
   10       -8.650348   1.000000
   11       -8.521535   1.000000
   12       -8.425209   1.000000
   13       -8.397115   1.000000
   14       -8.255264   1.000000
   15       -8.075352   1.000000
   16       -7.794455   1.000000
   17       -6.822210   1.000000
   18       -6.701657   1.000000
   19       -6.517678   1.000000
   20       -6.223134   1.000000
   21       -6.160090   1.000000
   22       -6.041070   1.000000
   23       -5.962729   1.000000
   24       -5.934653   1.000000
   25       -5.859888   1.000000
   26       -5.756537   1.000000
   27       -4.778831   1.000000
   28       -4.599742   1.000000
   29       -4.553002   1.000000
   30       -4.495028   1.000000
   31       -4.400246   1.000000
   32       -4.344112   1.000000
   33       -4.263866   1.000000
   34       -4.234528   1.000000
   35       -4.168729   1.000000
   36       -4.092416   1.000000
   37       -4.050205   1.000000
   38       -3.915952   1.000000
   39       -3.889994   1.000000
   40       -3.816247   1.000000
   41       -3.726736   1.000000
   42       -3.625637   1.000000
   43       -3.568231   1.000000
   44       -3.493445   1.000000
   45       -3.010587   1.000000
   46       -2.985477   1.000000
   47       -2.846101   1.000000
   48       -2.756773   1.000000
   49       -2.674537   1.000000
   50       -2.563561   1.000000
   51       -2.481336   1.000000
   52       -2.414164   1.000000
   53       -2.359501   1.000000
   54       -2.350026   1.000000
   55       -2.306025   1.000000
   56       -2.240315   1.000000
   57       -2.192440   1.000000
   58       -2.119280   1.000000
   59       -2.074556   1.000000
   60       -1.966909   1.000000
   61       -1.876788   1.000000
   62       -1.828029   1.000000
   63       -1.802808   1.000000
   64       -1.763886   1.000000
   65       -1.672587   1.000000
   66       -1.599135   1.000000
   67       -1.527411   1.000000
   68       -1.445029   1.000000
   69       -1.391834   1.000000
   70       -1.332922   1.000000
   71       -1.234648   1.000000
   72       -1.036289   1.000000
   73       -0.974818   1.000000
   74       -0.921873   1.000000
   75       -0.853181   1.000000
   76       -0.818732   1.000000
   77       -0.675822   1.000000
   78       -0.611426   1.000000
   79       -0.370668   1.000000
   80       -0.231070   1.000000
   81       -0.125811   1.000000
   82        0.087596   1.000000
   83        0.340102   1.000000
   84        0.385651   1.000000
   85        0.445472   1.000000
   86        0.462178   1.000000
   87        0.588790   1.000000
   88        0.684054   1.000000
   89        0.784936   1.000000
   90        0.852695   1.000000
   91        1.062738   1.000000
   92        1.074468   1.000000
   93        1.233800   1.000000
   94        1.494256   1.000000
   95        1.583355   1.000000
   96        1.837243   1.000302
   97        1.921058   1.002101
   98        1.967178   1.005119
   99        2.005205   1.009633
  100        2.074719   1.023377
  101        2.127768   1.034035
  102        2.392420   0.504030
  103        2.530422   0.045383
  104        2.617428  -0.033528
  105        2.702300  -0.025625
  106        2.809546  -0.006103
  107        2.894855  -0.001120
  108        2.931552  -0.000473
  109        2.993870  -0.000092
  110        3.063707  -0.000011
  111        3.123636  -0.000002
  112        3.193477  -0.000000
  113        3.208631  -0.000000
  114        3.277505  -0.000000
  115        3.382896  -0.000000
  116        3.502223  -0.000000
  117        3.548666  -0.000000
  118        3.595807  -0.000000
  119        3.652571  -0.000000
  120        3.733289  -0.000000
  121        3.771610  -0.000000
  122        3.862021  -0.000000
  123        3.914443  -0.000000
  124        4.012302  -0.000000
  125        4.041722  -0.000000
  126        4.153624  -0.000000
  127        4.230335  -0.000000
  128        4.253914  -0.000000
  129        4.323795  -0.000000
  130        4.457599  -0.000000
  131        4.564391  -0.000000
  132        4.629753  -0.000000

  0.3742002E-15  0.1111111E+00  0.1262379E-14  0.2469136E-01
    1      -11.739014   1.000000
    2      -11.164946   1.000000
    3      -10.349415   1.000000
    4       -9.055322   1.000000
    5       -8.938603   1.000000
    6       -8.909220   1.000000
    7       -8.680211   1.000000
    8       -8.557545   1.000000
    9       -8.369503   1.000000
   10       -8.284249   1.000000
   11       -8.250091   1.000000
   12       -8.207648   1.000000
   13       -8.082573   1.000000
   14       -8.041413   1.000000
   15       -7.497376   1.000000
   16       -7.400537   1.000000
   17       -7.273430   1.000000
   18       -7.201153   1.000000
   19       -7.125025   1.000000
   20       -6.975388   1.000000
   21       -6.816469   1.000000
   22       -6.472809   1.000000
   23       -6.379298   1.000000
   24       -6.297777   1.000000
   25       -6.177952   1.000000
   26       -6.114313   1.000000
   27       -6.019181   1.000000
   28       -5.750936   1.000000
   29       -5.598696   1.000000
   30       -5.496817   1.000000
   31       -4.921817   1.000000
   32       -4.857693   1.000000
   33       -4.810006   1.000000
   34       -4.660548   1.000000
   35       -4.437872   1.000000
   36       -4.344793   1.000000
   37       -4.166069   1.000000
   38       -3.874498   1.000000
   39       -3.455827   1.000000
   40       -3.400461   1.000000
   41       -3.232119   1.000000
   42       -3.184118   1.000000
   43       -3.050122   1.000000
   44       -2.923205   1.000000
   45       -2.894879   1.000000
   46       -2.869367   1.000000
   47       -2.778249   1.000000
   48       -2.676713   1.000000
   49       -2.467823   1.000000
   50       -2.405780   1.000000
   51       -2.262944   1.000000
   52       -2.221203   1.000000
   53       -2.150685   1.000000
   54       -2.101322   1.000000
   55       -2.074850   1.000000
   56       -2.066036   1.000000
   57       -1.962016   1.000000
   58       -1.949762   1.000000
   59       -1.783644   1.000000
   60       -1.750511   1.000000
   61       -1.649313   1.000000
   62       -1.635959   1.000000
   63       -1.558069   1.000000
   64       -1.434269   1.000000
   65       -1.410107   1.000000
   66       -1.331128   1.000000
   67       -1.266674   1.000000
   68       -1.136127   1.000000
   69       -1.084458   1.000000
   70       -0.999670   1.000000
   71       -0.956485   1.000000
   72       -0.899569   1.000000
   73       -0.832413   1.000000
   74       -0.660132   1.000000
   75       -0.544667   1.000000
   76       -0.478044   1.000000
   77       -0.403611   1.000000
   78       -0.270013   1.000000
   79       -0.219566   1.000000
   80       -0.118641   1.000000
   81        0.110814   1.000000
   82        0.201239   1.000000
   83        0.328626   1.000000
   84        0.595106   1.000000
   85        0.630719   1.000000
   86        0.760991   1.000000
   87        0.894862   1.000000
   88        1.064842   1.000000
   89        1.112592   1.000000
   90        1.166022   1.000000
   91        1.194116   1.000000
   92        1.238698   1.000000
   93        1.352090   1.000000
   94        1.448344   1.000000
   95        1.528478   1.000000
   96        1.682643   1.000003
   97        2.088771   1.026615
   98        2.163056   1.034548
   99        2.327849   0.761445
  100        2.440837   0.305294
  101        2.497519   0.118727
  102        2.579019  -0.015987
  103        2.644472  -0.035318
  104        2.789979  -0.008442
  105        2.986468  -0.000113
  106        3.137753  -0.000001
  107        3.208104  -0.000000
  108        3.266754  -0.000000
  109        3.293095  -0.000000
  110        3.331530  -0.000000
  111        3.380565  -0.000000
  112        3.388892  -0.000000
  113        3.468747  -0.000000
  114        3.492989  -0.000000
  115        3.562101  -0.000000
  116        3.598224  -0.000000
  117        3.625570  -0.000000
  118        3.659939  -0.000000
  119        3.684572  -0.000000
  120        3.708456  -0.000000
  121        3.772215  -0.000000
  122        3.841591  -0.000000
  123        3.856030  -0.000000
  124        3.897271  -0.000000
  125        3.950658  -0.000000
  126        3.985514  -0.000000
  127        4.024933  -0.000000
  128        4.126732  -0.000000
  129        4.241861  -0.000000
  130        4.359732  -0.000000
  131        4.439483  -0.000000
  132        4.575643  -0.000000

  0.1111111E+00  0.1111111E+00  0.1262379E-14  0.2469136E-01
    1      -11.624822   1.000000
    2      -11.060771   1.000000
    3      -10.269719   1.000000
    4       -8.997757   1.000000
    5       -8.982802   1.000000
    6       -8.970049   1.000000
    7       -8.851220   1.000000
    8       -8.830786   1.000000
    9       -8.744260   1.000000
   10       -8.568567   1.000000
   11       -8.521529   1.000000
   12       -8.260687   1.000000
   13       -8.071896   1.000000
   14       -7.682079   1.000000
   15       -7.638576   1.000000
   16       -7.349830   1.000000
   17       -7.196044   1.000000
   18       -7.176203   1.000000
   19       -7.039048   1.000000
   20       -6.589610   1.000000
   21       -6.492158   1.000000
   22       -6.447854   1.000000
   23       -6.245246   1.000000
   24       -6.227644   1.000000
   25       -6.097020   1.000000
   26       -5.981170   1.000000
   27       -5.892947   1.000000
   28       -5.628995   1.000000
   29       -5.597106   1.000000
   30       -5.370928   1.000000
   31       -5.002430   1.000000
   32       -4.947595   1.000000
   33       -4.451006   1.000000
   34       -4.406118   1.000000
   35       -4.259867   1.000000
   36       -4.139447   1.000000
   37       -3.859086   1.000000
   38       -3.782892   1.000000
   39       -3.624451   1.000000
   40       -3.551155   1.000000
   41       -3.424566   1.000000
   42       -3.200986   1.000000
   43       -3.140327   1.000000
   44       -3.079558   1.000000
   45       -2.947384   1.000000
   46       -2.851444   1.000000
   47       -2.742253   1.000000
   48       -2.649632   1.000000
   49       -2.536616   1.000000
   50       -2.502191   1.000000
   51       -2.364009   1.000000
   52       -2.231962   1.000000
   53       -2.147217   1.000000
   54       -2.100990   1.000000
   55       -2.084225   1.000000
   56       -2.063679   1.000000
   57       -2.031061   1.000000
   58       -1.936264   1.000000
   59       -1.874226   1.000000
   60       -1.728639   1.000000
   61       -1.709649   1.000000
   62       -1.677187   1.000000
   63       -1.649557   1.000000
   64       -1.537960   1.000000
   65       -1.503686   1.000000
   66       -1.424942   1.000000
   67       -1.382613   1.000000
   68       -1.260256   1.000000
   69       -1.201034   1.000000
   70       -1.034201   1.000000
   71       -0.985687   1.000000
   72       -0.945893   1.000000
   73       -0.916012   1.000000
   74       -0.797240   1.000000
   75       -0.619276   1.000000
   76       -0.552993   1.000000
   77       -0.448780   1.000000
   78       -0.304322   1.000000
   79       -0.236126   1.000000
   80       -0.166150   1.000000
   81        0.021157   1.000000
   82        0.084998   1.000000
   83        0.241126   1.000000
   84        0.334732   1.000000
   85        0.503389   1.000000
   86        0.711029   1.000000
   87        0.839677   1.000000
   88        1.016707   1.000000
   89        1.021391   1.000000
   90        1.074294   1.000000
   91        1.101002   1.000000
   92        1.216369   1.000000
   93        1.251055   1.000000
   94        1.506930   1.000000
   95        1.591776   1.000000
   96        1.710999   1.000008
   97        2.133126   1.034647
   98        2.226274   0.998579