   50   50   85    1
  0.1651726E+02  0.6071501E-09  0.6071501E-09  0.2586333E-08  0.5000000E-15
   1.0000000000000000E-004
  CAR 
 Name                                    
    194     25    126

  0.3742002E-15  0.3742002E-15  0.1262379E-14  0.1234568E-01
    1      -12.891012   1.000000
    2      -12.195442   1.000000
    3      -11.428691   1.000000
    4       -9.794983   1.000000
    5       -9.741445   1.000000
    6       -9.697975   1.000000
    7       -9.588490   1.000000
    8       -9.299501   1.000000
    9       -9.200710   1.000000
   10       -9.160405   1.000000
   11       -9.014242   1.000000
   12       -8.975761   1.000000
   13       -8.968650   1.000000
   14       -8.873195   1.000000
   15       -8.868053   1.000000
   16       -8.850374   1.000000
   17       -8.319217   1.000000
   18       -8.258234   1.000000
   19       -8.229587   1.000000
   20       -7.604514   1.000000
   21       -7.472523   1.000000
   22       -7.402981   1.000000
   23       -6.922994   1.000000
   24       -6.906180   1.000000
   25       -6.807977   1.000000
   26       -6.801835   1.000000
   27       -5.854895   1.000000
   28       -5.748457   1.000000
   29       -5.638839   1.000000
   30       -5.604360   1.000000
   31       -4.790795   1.000000
   32       -4.746426   1.000000
   33       -4.731084   1.000000
   34       -4.608072   1.000000
   35       -4.100965   1.000000
   36       -4.084595   1.000000
   37       -4.078476   1.000000
   38       -4.045366   1.000000
   39       -3.937841   1.000000
   40       -3.885271   1.000000
   41       -3.822111   1.000000
   42       -3.704457   1.000000
   43       -3.511587   1.000000
   44       -3.401567   1.000000
   45       -3.336683   1.000000
   46       -3.331931   1.000000
   47       -3.314368   1.000000
   48       -3.228924   1.000000
   49       -3.210922   1.000000
   50       -3.161948   1.000000
   51       -3.142323   1.000000
   52       -2.884348   1.000000
   53       -2.865237   1.000000
   54       -2.847713   1.000000
   55       -2.763305   1.000000
   56       -2.740154   1.000000
   57       -2.709889   1.000000
   58       -2.679212   1.000000
   59       -2.675533   1.000000
   60       -2.573279   1.000000
   61       -2.455270   1.000000
   62       -2.429063   1.000000
   63       -2.379133   1.000000
   64       -2.366453   1.000000
   65       -2.336817   1.000000
   66       -2.069785   1.000000
   67       -2.065462   1.000000
   68       -1.830760   1.000000
   69       -1.453655   1.000000
   70       -1.417460   1.000000
   71       -1.296020   1.000000
   72       -1.177060   1.000000
   73       -1.158899   1.000000
   74       -0.801266   1.000000
   75       -0.463520   1.000000
   76       -0.431304   1.000000
   77       -0.189460   1.000000
   78       -0.171021   1.000000
   79       -0.036941   1.000000
   80        0.173215   1.000000
   81        0.213363   1.000000
   82        0.364236   1.000000
   83        0.422966   1.000000
   84        0.591561   1.000000
   85        0.597329   1.000000
   86        0.636556   1.000000
   87        0.852390   1.000000
   88        0.933092   1.000000
   89        1.053393   1.000009
   90        1.187126   1.000420
   91        1.204680   1.000643
   92        1.423668   1.026186
   93        1.437204   1.029191
   94        1.564850   0.996524
   95        1.615292   0.908151
   96        1.615354   0.908003
   97        1.776291   0.310414
   98        2.053543  -0.022284
   99        2.106200  -0.011543
  100        2.176769  -0.003507
  101        2.339797  -0.000071
  102        2.343265  -0.000064
  103        2.388162  -0.000017
  104        2.526731  -0.000000
  105        2.583543  -0.000000
  106        2.618461  -0.000000
  107        2.625587  -0.000000
  108        2.643518  -0.000000
  109        2.658018  -0.000000
  110        2.693988  -0.000000
  111        2.826759  -0.000000
  112        2.850947  -0.000000
  113        2.910296  -0.000000
  114        2.956342  -0.000000
  115        2.964278  -0.000000
  116        2.973423  -0.000000
  117        2.995441  -0.000000
  118        3.026088  -0.000000
  119        3.102629  -0.000000
  120        3.123608  -0.000000
  121        3.164909  -0.000000
  122        3.238674  -0.000000
  123        3.313489  -0.000000
  124        3.369531  -0.000000
  125        3.392031  -0.000000
  126        3.486613  -0.000000

  0.1111111E+00  0.3762813E-15  0.1262379E-14  0.4938272E-01
    1      -12.833127   1.000000
    2      -12.144747   1.000000
    3      -11.393181   1.000000
    4       -9.870334   1.000000
    5       -9.721939   1.000000
    6       -9.693286   1.000000
    7       -9.687216   1.000000
    8       -9.626818   1.000000
    9       -9.481073   1.000000
   10       -9.358565   1.000000
   11       -9.274277   1.000000
   12       -9.226277   1.000000
   13       -9.180495   1.000000
   14       -8.541339   1.000000
   15       -8.526544   1.000000
   16       -8.227993   1.000000
   17       -8.148923   1.000000
   18       -8.121853   1.000000
   19       -7.955835   1.000000
   20       -7.516452   1.000000
   21       -7.448680   1.000000
   22       -7.356607   1.000000
   23       -6.935817   1.000000
   24       -6.901605   1.000000
   25       -6.829012   1.000000
   26       -6.814428   1.000000
   27       -5.801161   1.000000
   28       -5.622283   1.000000
   29       -5.580851   1.000000
   30       -5.402651   1.000000
   31       -4.813429   1.000000
   32       -4.756838   1.000000
   33       -4.691737   1.000000
   34       -4.580379   1.000000
   35       -4.210726   1.000000
   36       -4.183727   1.000000
   37       -4.090660   1.000000
   38       -4.052949   1.000000
   39       -3.924876   1.000000
   40       -3.890100   1.000000
   41       -3.851363   1.000000
   42       -3.803617   1.000000
   43       -3.765826   1.000000
   44       -3.664737   1.000000
   45       -3.487855   1.000000
   46       -3.349171   1.000000
   47       -3.277529   1.000000
   48       -3.238279   1.000000
   49       -3.148821   1.000000
   50       -3.093392   1.000000
   51       -3.029146   1.000000
   52       -2.915215   1.000000
   53       -2.887923   1.000000
   54       -2.860499   1.000000
   55       -2.797628   1.000000
   56       -2.711420   1.000000
   57       -2.690356   1.000000
   58       -2.646499   1.000000
   59       -2.620917   1.000000
   60       -2.515877   1.000000
   61       -2.485624   1.000000
   62       -2.453948   1.000000
   63       -2.422327   1.000000
   64       -2.289275   1.000000
   65       -2.204341   1.000000
   66       -2.118685   1.000000
   67       -2.080786   1.000000
   68       -1.800379   1.000000
   69       -1.756708   1.000000
   70       -1.638469   1.000000
   71       -1.309905   1.000000
   72       -1.231763   1.000000
   73       -1.134486   1.000000
   74       -0.909037   1.000000
   75       -0.600262   1.000000
   76       -0.498725   1.000000
   77       -0.244294   1.000000
   78       -0.198064   1.000000
   79       -0.052632   1.000000
   80       -0.020276   1.000000
   81        0.179297   1.000000
   82        0.329471   1.000000
   83        0.471917   1.000000
   84        0.546977   1.000000
   85        0.565999   1.000000
   86        0.584534   1.000000
   87        0.848435   1.000000
   88        0.921095   1.000000
   89        1.098680   1.000038
   90        1.239135   1.001412
   91        1.287785   1.003803
   92        1.412798   1.023678
   93        1.443180   1.030431
   94        1.524838   1.027670
   95        1.604509   0.932275
   96        1.625378   0.882927
   97        1.783699   0.282182
   98        2.037344  -0.026024
   99        2.130440  -0.007958
  100        2.262060  -0.000551
  101        2.306521  -0.000178
  102        2.312062  -0.000153
  103        2.358110  -0.000042
  104        2.453041  -0.000002
  105        2.500684  -0.000000
  106        2.566748  -0.000000
  107        2.599550  -0.000000
  108        2.633897  -0.000000
  109        2.675150  -0.000000
  110        2.720087  -0.000000
  111        2.735298  -0.000000
  112        2.833662  -0.000000
  113        2.853120  -0.000000
  114        2.887591  -0.000000
  115        2.939174  -0.000000
  116        2.945490  -0.000000
  117        2.974539  -0.000000
  118        3.077364  -0.000000
  119        3.097136  -0.000000
  120        3.125879  -0.000000
  121        3.147966  -0.000000
  122        3.216733  -0.000000
  123        3.293028  -0.000000
  124        3.355754  -0.000000
  125        3.425348  -0.000000
  126        3.543896  -0.000000

  0.2222222E+00  0.3499357E-15  0.1262379E-14  0.4938272E-01
    1      -12.661328   1.000000
    2      -11.994923   1.000000
    3      -11.288925   1.000000
    4      -10.369825   1.000000
    5      -10.109448   1.000000
    6       -9.957813   1.000000
    7       -9.725128   1.000000
    8       -9.718126   1.000000
    9       -9.585775   1.000000
   10       -9.528164   1.000000
   11       -9.486962   1.000000
   12       -9.357339   1.000000
   13       -9.338472   1.000000
   14       -8.115465   1.000000
   15       -8.082483   1.000000
   16       -7.989555   1.000000
   17       -7.857457   1.000000
   18       -7.810694   1.000000
   19       -7.389426   1.000000
   20       -7.384793   1.000000
   21       -7.336561   1.000000
   22       -7.046895   1.000000
   23       -6.956501   1.000000
   24       -6.845831   1.000000
   25       -6.702007   1.000000
   26       -6.575716   1.000000
   27       -5.660745   1.000000
   28       -5.435782   1.000000
   29       -5.417217   1.000000
   30       -4.968678   1.000000
   31       -4.860990   1.000000
   32       -4.833965   1.000000
   33       -4.595915   1.000000
   34       -4.559065   1.000000
   35       -4.506601   1.000000
   36       -4.459451   1.000000
   37       -4.432207   1.000000
   38       -4.403741   1.000000
   39       -4.132581   1.000000
   40       -4.029175   1.000000
   41       -3.854666   1.000000
   42       -3.800224   1.000000
   43       -3.796221   1.000000
   44       -3.636108   1.000000
   45       -3.453160   1.000000
   46       -3.383749   1.000000
   47       -3.363164   1.000000
   48       -3.297328   1.000000
   49       -3.210720   1.000000
   50       -3.184232   1.000000
   51       -3.044376   1.000000
   52       -3.023220   1.000000
   53       -2.925829   1.000000
   54       -2.854972   1.000000
   55       -2.797178   1.000000
   56       -2.717504   1.000000
   57       -2.678288   1.000000
   58       -2.617665   1.000000
   59       -2.613860   1.000000
   60       -2.599196   1.000000
   61       -2.538377   1.000000
   62       -2.473316   1.000000
   63       -2.433400   1.000000
   64       -2.413959   1.000000
   65       -2.338771   1.000000
   66       -2.192518   1.000000
   67       -2.152688   1.000000
   68       -1.936688   1.000000
   69       -1.800703   1.000000
   70       -1.556682   1.000000
   71       -1.319735   1.000000
   72       -1.233164   1.000000
   73       -1.144742   1.000000
   74       -1.062772   1.000000
   75       -0.991302   1.000000
   76       -0.602582   1.000000
   77       -0.570787   1.000000
   78       -0.410731   1.000000
   79       -0.036323   1.000000
   80        0.105573   1.000000
   81        0.111104   1.000000
   82        0.257036   1.000000
   83        0.281649   1.000000
   84        0.433341   1.000000
   85        0.445950   1.000000
   86        0.522252   1.000000
   87        0.610997   1.000000
   88        0.780472   1.000000
   89        0.947519   1.000000
   90        1.030713   1.000004
   91        1.262748   1.002325
   92        1.394389   1.019479
   93        1.504449   1.033837
   94        1.574353   0.984478
   95        1.757931   0.383709
   96        1.889789   0.010419
   97        1.923730  -0.021465
   98        1.975998  -0.035455
   99        2.020338  -0.029773
  100        2.122079  -0.009089
  101        2.149116  -0.005815
  102        2.218936  -0.001482
  103        2.237260  -0.000987
  104        2.367714  -0.000031
  105        2.416813  -0.000007
  106        2.435603  -0.000004
  107        2.514019  -0.000000
  108        2.572085  -0.000000
  109        2.603559  -0.000000
  110        2.639651  -0.000000
  111        2.696428  -0.000000
  112        2.784540  -0.000000
  113        2.814975  -0.000000
  114        2.876673  -0.000000
  115        2.898017  -0.000000
  116        2.964051  -0.000000
  117        2.981255  -0.000000
  118        3.000769  -0.000000
  119        3.079375  -0.000000
  120        3.103510  -0.000000
  121        3.215935  -0.000000
  122        3.219862  -0.000000
  123        3.327001  -0.000000
  124        3.391191  -0.000000
  125        3.423542  -0.000000
  126        3.507153  -0.000000

  0.3333333E+00  0.3916643E-15  0.1262379E-14  0.4938272E-01
    1      -12.381010   1.000000
    2      -11.752830   1.000000
    3      -11.124008   1.000000
    4      -10.975258   1.000000
    5      -10.566929   1.000000
    6      -10.315478   1.000000
    7       -9.798531   1.000000
    8       -9.781968   1.000000
    9       -9.620640   1.000000
   10       -9.619594   1.000000
   11       -9.451050   1.000000
   12       -9.439076   1.000000
   13       -9.366395   1.000000
   14       -8.356784   1.000000
   15       -7.665382   1.000000
   16       -7.646251   1.000000
   17       -7.534370   1.000000
   18       -7.447545   1.000000
   19       -7.238122   1.000000
   20       -7.195251   1.000000
   21       -7.003510   1.000000
   22       -6.910666   1.000000
   23       -6.558452   1.000000
   24       -6.407362   1.000000
   25       -6.273756   1.000000
   26       -6.047252   1.000000
   27       -5.476866   1.000000
   28       -5.280442   1.000000
   29       -5.236775   1.000000
   30       -5.163203   1.000000
   31       -5.085875   1.000000
   32       -5.011492   1.000000
   33       -4.939875   1.000000
   34       -4.863119   1.000000
   35       -4.780360   1.000000
   36       -4.704913   1.000000
   37       -4.447672   1.000000
   38       -4.283509   1.000000
   39       -4.201784   1.000000
   40       -4.084982   1.000000
   41       -4.061032   1.000000
   42       -3.712591   1.000000
   43       -3.688576   1.000000
   44       -3.652077   1.000000
   45       -3.605122   1.000000
   46       -3.602641   1.000000
   47       -3.455458   1.000000
   48       -3.394372   1.000000
   49       -3.333056   1.000000
   50       -3.235743   1.000000
   51       -3.201978   1.000000
   52       -3.109025   1.000000
   53       -3.027643   1.000000
   54       -2.970935   1.000000
   55       -2.886281   1.000000
   56       -2.803207   1.000000
   57       -2.771314   1.000000
   58       -2.736796   1.000000
   59       -2.680122   1.000000
   60       -2.615950   1.000000
   61       -2.602202   1.000000
   62       -2.532590   1.000000
   63       -2.434687   1.000000
   64       -2.387990   1.000000
   65       -2.320377   1.000000
   66       -2.262062   1.000000
   67       -2.203433   1.000000
   68       -1.749245   1.000000
   69       -1.747206   1.000000
   70       -1.629170   1.000000
   71       -1.428017   1.000000
   72       -1.351856   1.000000
   73       -1.040271   1.000000
   74       -1.002236   1.000000
   75       -0.880588   1.000000
   76       -0.842979   1.000000
   77       -0.690051   1.000000
   78       -0.638413   1.000000
   79       -0.116493   1.000000
   80       -0.092120   1.000000
   81        0.082692   1.000000
   82        0.128031   1.000000
   83        0.190253   1.000000
   84        0.330569   1.000000
   85        0.383384   1.000000
   86        0.488284   1.000000
   87        0.504199   1.000000
   88        0.702833   1.000000
   89        0.762857   1.000000
   90        0.959470   1.000000
   91        1.050083   1.000008
   92        1.313285   1.006030
   93        1.342218   1.009667
   94        1.486013   1.035455
   95        1.562007   0.999745
   96        1.646323   0.822521
   97        1.697153   0.637548
   98        1.813522   0.178925
   99        1.843697   0.094997
  100        1.964127  -0.034958
  101        2.018101  -0.030233
  102        2.061787  -0.020404
  103        2.160375  -0.004761
  104        2.203976  -0.002037
  105        2.323868  -0.000111
  106        2.403306  -0.000010
  107        2.429534  -0.000004
  108        2.549559  -0.000000
  109        2.579758  -0.000000
  110        2.603135  -0.000000
  111        2.649775  -0.000000
  112        2.709735  -0.000000
  113        2.794055  -0.000000
  114        2.831082  -0.000000
  115        2.882673  -0.000000
  116        2.948296  -0.000000
  117        3.063501  -0.000000
  118        3.076479  -0.000000
  119        3.268668  -0.000000
  120        3.273318  -0.000000
  121        3.301801  -0.000000
  122        3.315124  -0.000000
  123        3.361447  -0.000000
  124        3.450785  -0.000000
  125        3.461992  -0.000000
  126        3.586827  -0.000000

  0.4444444E+00  0.3830161E-15  0.1262379E-14  0.4938272E-01
    1      -12.000738   1.000000
    2      -11.539814   1.000000
    3      -11.415497   1.000000
    4      -11.023086   1.000000
    5      -10.892149   1.000000
    6      -10.625205   1.000000
    7       -9.860815   1.000000
    8       -9.830893   1.000000
    9       -9.674133   1.000000
   10       -9.634384   1.000000
   11       -9.507841   1.000000
   12       -9.473880   1.000000
   13       -9.091023   1.000000
   14       -8.743824   1.000000
   15       -7.477389   1.000000
   16       -7.372014   1.000000
   17       -7.259484   1.000000
   18       -7.252700   1.000000
   19       -6.989163   1.000000
   20       -6.972962   1.000000
   21       -6.927079   1.000000
   22       -6.905971   1.000000
   23       -5.902660   1.000000
   24       -5.771531   1.000000
   25       -5.684201   1.000000
   26       -5.674495   1.000000
   27       -5.649849   1.000000
   28       -5.486127   1.000000
   29       -5.418095   1.000000
   30       -5.369528   1.000000
   31       -5.204137   1.000000
   32       -5.113119   1.000000
   33       -5.070987   1.000000
   34       -5.054945   1.000000
   35       -4.842489   1.000000
   36       -4.771410   1.000000
   37       -4.712520   1.000000
   38       -4.603376   1.000000
   39       -4.412372   1.000000
   40       -4.165384   1.000000
   41       -4.070193   1.000000
   42       -3.907978   1.000000
   43       -3.867508   1.000000
   44       -3.740518   1.000000
   45       -3.582017   1.000000
   46       -3.518428   1.000000
   47       -3.458695   1.000000
   48       -3.388842   1.000000
   49       -3.342704   1.000000
   50       -3.216757   1.000000
   51       -3.151452   1.000000
   52       -3.096129   1.000000
   53       -3.070429   1.000000
   54       -3.011224   1.000000
   55       -2.997229   1.000000
   56       -2.953913   1.000000
   57       -2.846237   1.000000
   58       -2.783381   1.000000
   59       -2.733130   1.000000
   60       -2.700347   1.000000
   61       -2.687032   1.000000
   62       -2.483632   1.000000
   63       -2.439239   1.000000
   64       -2.397898   1.000000
   65       -2.255889   1.000000
   66       -2.184204   1.000000
   67       -2.116365   1.000000
   68       -1.985320   1.000000
   69       -1.679465   1.000000
   70       -1.538212   1.000000
   71       -1.462676   1.000000
   72       -1.368497   1.000000
   73       -1.311178   1.000000
   74       -0.985893   1.000000
   75       -0.881275   1.000000
   76       -0.773973   1.000000
   77       -0.507311   1.000000
   78       -0.460833   1.000000
   79       -0.273013   1.000000
   80       -0.227456   1.000000
   81       -0.156204   1.000000
   82       -0.064173   1.000000
   83        0.153238   1.000000
   84        0.329479   1.000000
   85        0.373368   1.000000
   86        0.456811   1.000000
   87        0.624900   1.000000
   88        0.789482   1.000000
   89        0.882783   1.000000
   90        0.897752   1.000000
   91        0.988074   1.000001
   92        1.020415   1.000003
   93        1.171625   1.000284
   94        1.299880   1.004757
   95        1.316347   1.006356
   96        1.466586   1.034285
   97        1.500642   1.034440
   98        1.597196   0.946972
   99        1.652484   0.802781
  100        1.736981   0.471126
  101        1.866996   0.045758
  102        1.915958  -0.016108
  103        1.994972  -0.034134
  104        2.020654  -0.029708
  105        2.211915  -0.001723
  106        2.273631  -0.000415
  107        2.398725  -0.000012
  108        2.418713  -0.000006
  109        2.479600  -0.000001
  110        2.575486  -0.000000
  111        2.614978  -0.000000
  112        2.672189  -0.000000
  113        2.846164  -0.000000
  114        2.926686  -0.000000
  115        3.009138  -0.000000
  116        3.082922  -0.000000
  117        3.133682  -0.000000
  118        3.174050  -0.000000
  119        3.315723  -0.000000
  120        3.355977  -0.000000
  121        3.429453  -0.000000
  122        3.494267  -0.000000
  123        3.505308  -0.000000
  124        3.546071  -0.000000
  125        3.605603  -0.000000
  126        3.668320  -0.000000

  0.1111111E+00  0.1111111E+00  0.1262379E-14  0.2469136E-01
    1      -12.718313   1.000000
    2      -12.044525   1.000000
    3      -11.322899   1.000000
    4      -10.034722   1.000000
    5      -10.026222   1.000000
    6       -9.911253   1.000000
    7       -9.837931   1.000000
    8       -9.732443   1.000000
    9       -9.677155   1.000000
   10       -9.612470   1.000000
   11       -9.545024   1.000000
   12       -9.100527   1.000000
   13       -8.797139   1.000000
   14       -8.774155   1.000000
   15       -8.149554   1.000000
   16       -7.975437   1.000000
   17       -7.908841   1.000000
   18       -7.687378   1.000000
   19       -7.649830   1.000000
   20       -7.538431   1.000000
   21       -7.292343   1.000000
   22       -7.226513   1.000000
   23       -6.907709   1.000000
   24       -6.851654   1.000000
   25       -6.719518   1.000000
   26       -6.676985   1.000000
   27       -5.722196   1.000000
   28       -5.698763   1.000000
   29       -5.184289   1.000000
   30       -5.153764   1.000000
   31       -4.887092   1.000000
   32       -4.796914   1.000000
   33       -4.598546   1.000000
   34       -4.557639   1.000000
   35       -4.505804   1.000000
   36       -4.488804   1.000000
   37       -4.165949   1.000000
   38       -4.105864   1.000000
   39       -4.021380   1.000000
   40       -3.995580   1.000000
   41       -3.883405   1.000000
   42       -3.801854   1.000000
   43       -3.737056   1.000000
   44       -3.709642   1.000000
   45       -3.629046   1.000000
   46       -3.462712   1.000000
   47       -3.306676   1.000000
   48       -3.302815   1.000000
   49       -3.210302   1.000000
   50       -3.157211   1.000000
   51       -3.080079   1.000000
   52       -2.947086   1.000000
   53       -2.913363   1.000000
   54       -2.840497   1.000000
   55       -2.779661   1.000000
   56       -2.747185   1.000000
   57       -2.621744   1.000000
   58       -2.585715   1.000000
   59       -2.569273   1.000000
   60       -2.530810   1.000000
   61       -2.502050   1.000000
   62       -2.453425   1.000000
   63       -2.375351   1.000000
   64       -2.349356   1.000000
   65       -2.295208   1.000000
   66       -2.288985   1.000000
   67       -2.055685   1.000000
   68       -1.988368   1.000000
   69       -1.905762   1.000000
   70       -1.589049   1.000000
   71       -1.265734   1.000000
   72       -1.248667   1.000000
   73       -1.133002   1.000000
   74       -1.060168   1.000000
   75       -0.896637   1.000000
   76       -0.623101   1.000000
   77       -0.336796   1.000000
   78       -0.313341   1.000000
   79       -0.047425   1.000000
   80       -0.044791   1.000000
   81        0.121139   1.000000
   82        0.194545   1.000000
   83        0.375893   1.000000
   84        0.390668   1.000000
   85        0.546578   1.000000
   86        0.654578   1.000000
   87        0.698237   1.000000
   88        0.775996   1.000000
   89        1.011392   1.000002
   90        1.208139   1.000698
   91        1.281718   1.003387
   92        1.364742   1.013413
   93        1.436921   1.029131
   94        1.568525   0.992101
   95        1.715542   0.561642
   96        1.857287   0.064621
   97        1.898495   0.000037
   98        2.002388  -0.033092
   99        2.033764  -0.026839
  100        2.061587  -0.020449
  101        2.161527  -0.004662
  102        2.237270  -0.000986
  103        2.376938  -0.000024
  104        2.455920  -0.000002
  105        2.489308  -0.000001
  106        2.500642  -0.000000
  107        2.544335  -0.000000
  108        2.570950  -0.000000
  109        2.661651  -0.000000
  110        2.668066  -0.000000
  111        2.759284  -0.000000
  112        2.769056  -0.000000
  113        2.828483  -0.000000
  114        2.847358  -0.000000
  115        2.871587  -0.000000
  116        2.903357  -0.000000
  117        3.009207  -0.000000
  118        3.029987  -0.000000
  119        3.105318  -0.000000
  120        3.113734  -0.000000
  121        3.136392  -0.000000
  122        3.200661  -0.000000
  123        3.267879  -0.000000
  124        3.411781  -0.000000
  125        3.412531  -0.000000
  126        3.492634  -0.000000

  0.2222222E+00  0.1111111E+00  0.1262379E-14  0.4938272E-01
    1      -12.492246   1.000000
    2      -11.848444   1.000000
    3      -11.187109   1.000000
    4      -10.642070   1.000000
    5      -10.302081   1.000000
    6      -10.226803   1.000000
    7      -10.118312   1.000000
    8       -9.992767   1.000000
    9       -9.842951   1.000000
   10       -9.454617   1.000000
   11       -9.435698   1.000000
   12       -9.073252   1.000000
   13       -8.943231   1.000000
   14       -8.282604   1.000000
   15       -8.119939   1.000000
   16       -7.932569   1.000000
   17       -7.846543   1.000000
   18       -7.594841   1.000000
   19       -7.255319   1.000000
   20       -6.983383   1.000000
   21       -6.940432   1.000000
   22       -6.742353   1.000000
   23       -6.711450   1.000000
   24       -6.663131   1.000000
   25       -6.460263   1.000000
   26       -6.328515   1.000000
   27       -5.701069   1.000000
   28       -5.530062   1.000000
   29       -5.258517   1.000000
   30       -5.043329   1.000000
   31       -4.954149   1.000000
   32       -4.904013   1.000000
   33       -4.766726   1.000000
   34       -4.727146   1.000000
   35       -4.488499   1.000000
   36       -4.422139   1.000000
   37       -4.395812   1.000000
   38       -4.314672   1.000000
   39       -4.193099   1.000000
   40       -4.086009   1.000000
   41       -3.963105   1.000000
   42       -3.891978   1.000000
   43       -3.690352   1.000000
   44       -3.669957   1.000000
   45       -3.651698   1.000000
   46       -3.512948   1.000000
   47       -3.471050   1.000000
   48       -3.437869   1.000000
   49       -3.349151   1.000000
   50       -3.324047   1.000000
   51       -3.107825   1.000000
   52       -3.076267   1.000000
   53       -3.024698   1.000000
   54       -2.951191   1.000000
   55       -2.874688   1.000000
   56       -2.830129   1.000000
   57       -2.772755   1.000000
   58       -2.664799   1.000000
   59       -2.618118   1.000000
   60       -2.570604   1.000000
   61       -2.542369   1.000000
   62       -2.446970   1.000000
   63       -2.414817   1.000000
   64       -2.380305   1.000000
   65       -2.372708   1.000000
   66       -2.277674   1.000000
   67       -2.165572   1.000000
   68       -1.859083   1.000000
   69       -1.698835   1.000000
   70       -1.500180   1.000000
   71       -1.425178   1.000000
   72       -1.317677   1.000000
   73       -1.144457   1.000000
   74       -1.071804   1.000000
   75       -0.911173   1.000000
   76       -0.751732   1.000000
   77       -0.624608   1.000000
   78       -0.467747   1.000000
   79       -0.130983   1.000000
   80       -0.026661   1.000000
   81        0.043138   1.000000
   82        0.188778   1.000000
   83        0.189309   1.000000
   84        0.236643   1.000000
   85        0.424559   1.000000
   86        0.505308   1.000000
   87        0.571148   1.000000
   88        0.728272   1.000000
   89        0.909838   1.000000
   90        0.949709   1.000000
   91        1.038046   1.000006
   92        1.264060   1.002388
   93        1.472483   1.034887
   94        1.583383   0.971137
   95        1.599806   0.941881
   96        1.685113   0.685325
   97        1.783362   0.283445
   98        1.822278   0.152287
   99        2.037840  -0.025910
  100        2.072419  -0.018056
  101        2.126173  -0.008521
  102        2.198965  -0.002259
  103        2.284738  -0.000314
  104        2.327071  -0.000102
  105        2.392325  -0.000015
  106        2.440413  -0.000003
  107        2.466342  -0.000001
  108        2.568956  -0.000000
  109        2.577499  -0.000000
  110        2.638482  -0.000000
  111        2.681495  -0.000000
  112        2.728886  -0.000000
  113        2.822305  -0.000000
  114        2.845750  -0.000000
  115        2.892163  -0.000000
  116        2.916586  -0.000000
  117        2.973259  -0.000000
  118        3.040803  -0.000000
  119        3.056141  -0.000000
  120        3.159474  -0.000000
  121        3.180159  -0.000000
  122        3.206411  -0.000000
  123        3.295560  -0.000000
  124        3.356803  -0.000000
  125        3.458570  -0.000000
  126        3.478632  -0.000000

  0.3333333E+00  0.1111111E+00  0.1262379E-14  0.4938272E-01
    1      -12.161790   1.000000
    2      -11.566608   1.000000
    3      -11.222107   1.000000
    4      -10.990723   1.000000
    5      -10.765369   1.000000
    6      -10.454196   1.000000