   57   57    1    1
  0.1253331E+02  0.6078000E-09  0.6078000E-09  0.2233000E-08  0.5000000E-15
   1.0000000000000000E-004
  CAR 
 Name                                    
    205     41    132

  0.3742002E-15  0.3742002E-15  0.1262379E-14  0.1234568E-01
    1      -11.012978   1.000000
    2      -10.438657   1.000000
    3       -9.669580   1.000000
    4       -8.830186   1.000000
    5       -8.177633   1.000000
    6       -8.132741   1.000000
    7       -7.747369   1.000000
    8       -7.665386   1.000000
    9       -7.546796   1.000000
   10       -7.416013   1.000000
   11       -7.266920   1.000000
   12       -7.246812   1.000000
   13       -7.210068   1.000000
   14       -7.207570   1.000000
   15       -6.911847   1.000000
   16       -6.883544   1.000000
   17       -6.835803   1.000000
   18       -6.722681   1.000000
   19       -6.670247   1.000000
   20       -6.568960   1.000000
   21       -6.373851   1.000000
   22       -6.252917   1.000000
   23       -5.683101   1.000000
   24       -5.668210   1.000000
   25       -5.435062   1.000000
   26       -5.399510   1.000000
   27       -5.343627   1.000000
   28       -5.317737   1.000000
   29       -5.137534   1.000000
   30       -5.025606   1.000000
   31       -4.687673   1.000000
   32       -4.192629   1.000000
   33       -4.082961   1.000000
   34       -4.050907   1.000000
   35       -3.868960   1.000000
   36       -3.794943   1.000000
   37       -3.661130   1.000000
   38       -3.085205   1.000000
   39       -2.898517   1.000000
   40       -2.742277   1.000000
   41       -2.734082   1.000000
   42       -2.531364   1.000000
   43       -2.343646   1.000000
   44       -2.253543   1.000000
   45       -2.158770   1.000000
   46       -2.066547   1.000000
   47       -2.008483   1.000000
   48       -1.874257   1.000000
   49       -1.856601   1.000000
   50       -1.676154   1.000000
   51       -1.604125   1.000000
   52       -1.518326   1.000000
   53       -1.475627   1.000000
   54       -1.471635   1.000000
   55       -1.410262   1.000000
   56       -1.313268   1.000000
   57       -1.283684   1.000000
   58       -1.256924   1.000000
   59       -1.132029   1.000000
   60       -1.097352   1.000000
   61       -1.057224   1.000000
   62       -1.015267   1.000000
   63       -0.940000   1.000000
   64       -0.919506   1.000000
   65       -0.781141   1.000000
   66       -0.652028   1.000000
   67       -0.614127   1.000000
   68       -0.578099   1.000000
   69       -0.425103   1.000000
   70       -0.336994   1.000000
   71       -0.304802   1.000000
   72       -0.274668   1.000000
   73       -0.231490   1.000000
   74       -0.188355   1.000000
   75        0.033975   1.000000
   76        0.145731   1.000000
   77        0.270188   1.000000
   78        0.319206   1.000000
   79        0.335501   1.000000
   80        0.545289   1.000000
   81        0.860157   1.000000
   82        0.896389   1.000000
   83        0.940159   1.000000
   84        0.981948   1.000000
   85        1.083994   1.000000
   86        1.546885   1.000000
   87        1.726885   1.000000
   88        1.751180   1.000000
   89        1.798482   1.000000
   90        1.847204   1.000000
   91        1.871822   1.000000
   92        1.956242   1.000000
   93        1.974809   1.000000
   94        2.081235   1.000000
   95        2.123845   1.000000
   96        2.128408   1.000000
   97        2.435747   1.000000
   98        2.647271   1.000083
   99        2.807176   1.003660
  100        3.130949   0.921393
  101        3.235353   0.568352
  102        3.241757   0.541450
  103        3.429744  -0.009788
  104        3.524155  -0.033037
  105        3.569446  -0.023556
  106        3.700783  -0.003336
  107        3.702657  -0.003217
  108        3.827633  -0.000180
  109        4.059166  -0.000000
  110        4.077363  -0.000000
  111        4.082308  -0.000000
  112        4.158861  -0.000000
  113        4.236264  -0.000000
  114        4.374155  -0.000000
  115        4.383148  -0.000000
  116        4.422452  -0.000000
  117        4.497155  -0.000000
  118        4.578119  -0.000000
  119        4.589364  -0.000000
  120        4.623368  -0.000000
  121        4.723819  -0.000000
  122        4.805435  -0.000000
  123        4.817327  -0.000000
  124        4.864417  -0.000000
  125        5.347509  -0.000000
  126        5.398401  -0.000000
  127        5.576843  -0.000000
  128        5.707573  -0.000000
  129        6.071899  -0.000000
  130        6.402171  -0.000000
  131        6.481458  -0.000000
  132        6.644695  -0.000000

  0.1111111E+00  0.3687552E-15  0.1262379E-14  0.2469136E-01
    1      -10.955434   1.000000
    2      -10.386373   1.000000
    3       -9.628728   1.000000
    4       -8.796516   1.000000
    5       -8.168064   1.000000
    6       -8.140101   1.000000
    7       -7.851273   1.000000
    8       -7.816549   1.000000
    9       -7.714503   1.000000
   10       -7.614708   1.000000
   11       -7.513568   1.000000
   12       -7.448756   1.000000
   13       -7.318211   1.000000
   14       -7.302318   1.000000
   15       -7.037665   1.000000
   16       -6.695218   1.000000
   17       -6.648011   1.000000
   18       -6.594992   1.000000
   19       -6.407850   1.000000
   20       -6.319034   1.000000
   21       -6.257206   1.000000
   22       -6.072795   1.000000
   23       -5.680141   1.000000
   24       -5.632575   1.000000
   25       -5.491455   1.000000
   26       -5.377866   1.000000
   27       -5.329486   1.000000
   28       -5.213317   1.000000
   29       -5.139524   1.000000
   30       -4.924822   1.000000
   31       -4.630359   1.000000
   32       -4.078695   1.000000
   33       -4.022400   1.000000
   34       -3.890606   1.000000
   35       -3.809528   1.000000
   36       -3.763260   1.000000
   37       -3.465347   1.000000
   38       -3.072515   1.000000
   39       -2.887197   1.000000
   40       -2.727414   1.000000
   41       -2.684712   1.000000
   42       -2.586016   1.000000
   43       -2.444821   1.000000
   44       -2.216374   1.000000
   45       -2.205886   1.000000
   46       -2.103841   1.000000
   47       -2.049601   1.000000
   48       -1.958340   1.000000
   49       -1.909472   1.000000
   50       -1.826519   1.000000
   51       -1.668191   1.000000
   52       -1.603947   1.000000
   53       -1.497446   1.000000
   54       -1.429727   1.000000
   55       -1.420758   1.000000
   56       -1.386325   1.000000
   57       -1.235804   1.000000
   58       -1.176017   1.000000
   59       -1.130729   1.000000
   60       -1.079385   1.000000
   61       -1.055809   1.000000
   62       -1.010561   1.000000
   63       -0.957943   1.000000
   64       -0.909455   1.000000
   65       -0.807368   1.000000
   66       -0.701972   1.000000
   67       -0.689054   1.000000
   68       -0.601847   1.000000
   69       -0.549284   1.000000
   70       -0.460222   1.000000
   71       -0.371844   1.000000
   72       -0.302031   1.000000
   73       -0.188150   1.000000
   74       -0.124371   1.000000
   75        0.035413   1.000000
   76        0.096486   1.000000
   77        0.212719   1.000000
   78        0.293170   1.000000
   79        0.319708   1.000000
   80        0.497396   1.000000
   81        0.605316   1.000000
   82        0.635711   1.000000
   83        0.939963   1.000000
   84        1.037369   1.000000
   85        1.103062   1.000000
   86        1.376662   1.000000
   87        1.459732   1.000000
   88        1.622789   1.000000
   89        1.728157   1.000000
   90        1.801424   1.000000
   91        1.860841   1.000000
   92        1.951412   1.000000
   93        1.980445   1.000000
   94        2.037452   1.000000
   95        2.139119   1.000000
   96        2.244605   1.000000
   97        2.500175   1.000001
   98        2.865587   1.009961
   99        2.974191   1.032241
  100        3.109882   0.962779
  101        3.214074   0.655592
  102        3.258938   0.468829
  103        3.335345   0.177637
  104        3.401996   0.023227
  105        3.457017  -0.027730
  106        3.674170  -0.005456
  107        3.899494  -0.000023
  108        3.951789  -0.000004
  109        4.044212  -0.000000
  110        4.076657  -0.000000
  111        4.091949  -0.000000
  112        4.173808  -0.000000
  113        4.251875  -0.000000
  114        4.300945  -0.000000
  115        4.358113  -0.000000
  116        4.388998  -0.000000
  117        4.434747  -0.000000
  118        4.470712  -0.000000
  119        4.494127  -0.000000
  120        4.508065  -0.000000
  121        4.609469  -0.000000
  122        4.668414  -0.000000
  123        4.691650  -0.000000
  124        4.772932  -0.000000
  125        4.849395  -0.000000
  126        4.996626  -0.000000
  127        5.193863  -0.000000
  128        5.351965  -0.000000
  129        5.574649  -0.000000
  130        6.198002  -0.000000
  131        6.558651  -0.000000
  132        6.731316  -0.000000

  0.2222222E+00  0.3503827E-15  0.1262379E-14  0.2469136E-01
    1      -10.784989   1.000000
    2      -10.232050   1.000000
    3       -9.509930   1.000000
    4       -8.701800   1.000000
    5       -8.469808   1.000000
    6       -8.326510   1.000000
    7       -8.185952   1.000000
    8       -8.025925   1.000000
    9       -7.836398   1.000000
   10       -7.716087   1.000000
   11       -7.653348   1.000000
   12       -7.617812   1.000000
   13       -7.547236   1.000000
   14       -7.462264   1.000000
   15       -7.301998   1.000000
   16       -6.672479   1.000000
   17       -6.515654   1.000000
   18       -6.291474   1.000000
   19       -6.236051   1.000000
   20       -6.083868   1.000000
   21       -5.989304   1.000000
   22       -5.671804   1.000000
   23       -5.545691   1.000000
   24       -5.432905   1.000000
   25       -5.382995   1.000000
   26       -5.310721   1.000000
   27       -5.228322   1.000000
   28       -5.096415   1.000000
   29       -4.759083   1.000000
   30       -4.691623   1.000000
   31       -4.422657   1.000000
   32       -3.910505   1.000000
   33       -3.880713   1.000000
   34       -3.740517   1.000000
   35       -3.632114   1.000000
   36       -3.374463   1.000000
   37       -3.087414   1.000000
   38       -3.049858   1.000000
   39       -2.891822   1.000000
   40       -2.805898   1.000000
   41       -2.740877   1.000000
   42       -2.638246   1.000000
   43       -2.613984   1.000000
   44       -2.567674   1.000000
   45       -2.434270   1.000000
   46       -2.152500   1.000000
   47       -2.104915   1.000000
   48       -2.038216   1.000000
   49       -1.887674   1.000000
   50       -1.779804   1.000000
   51       -1.710178   1.000000
   52       -1.653400   1.000000
   53       -1.583392   1.000000
   54       -1.481611   1.000000
   55       -1.455478   1.000000
   56       -1.403481   1.000000
   57       -1.351794   1.000000
   58       -1.297053   1.000000
   59       -1.195843   1.000000
   60       -1.126677   1.000000
   61       -1.051992   1.000000
   62       -1.029236   1.000000
   63       -0.998982   1.000000
   64       -0.977339   1.000000
   65       -0.943405   1.000000
   66       -0.847895   1.000000
   67       -0.812578   1.000000
   68       -0.705901   1.000000
   69       -0.652036   1.000000
   70       -0.610175   1.000000
   71       -0.493861   1.000000
   72       -0.346912   1.000000
   73       -0.248633   1.000000
   74       -0.180968   1.000000
   75       -0.118953   1.000000
   76       -0.062942   1.000000
   77       -0.006228   1.000000
   78        0.194251   1.000000
   79        0.348558   1.000000
   80        0.407334   1.000000
   81        0.476826   1.000000
   82        0.600983   1.000000
   83        0.785578   1.000000
   84        0.995310   1.000000
   85        1.045336   1.000000
   86        1.093023   1.000000
   87        1.267111   1.000000
   88        1.449537   1.000000
   89        1.524104   1.000000
   90        1.734513   1.000000
   91        1.753691   1.000000
   92        1.901519   1.000000
   93        1.920680   1.000000
   94        1.945285   1.000000
   95        2.214931   1.000000
   96        2.313284   1.000000
   97        2.385602   1.000000
   98        2.767468   1.001640
   99        2.836224   1.006191
  100        3.101154   0.976745
  101        3.206012   0.687319
  102        3.295444   0.319198
  103        3.444654  -0.021159
  104        3.546068  -0.028858
  105        3.655889  -0.007451
  106        3.727227  -0.001960
  107        3.856628  -0.000081
  108        3.895722  -0.000026
  109        3.926607  -0.000010
  110        3.948610  -0.000005
  111        4.016581  -0.000000
  112        4.087860  -0.000000
  113        4.167210  -0.000000
  114        4.208043  -0.000000
  115        4.245566  -0.000000
  116        4.296659  -0.000000
  117        4.353298  -0.000000
  118        4.374767  -0.000000
  119        4.426441  -0.000000
  120        4.503737  -0.000000
  121        4.555733  -0.000000
  122        4.607199  -0.000000
  123        4.687416  -0.000000
  124        4.761305  -0.000000
  125        4.813952  -0.000000
  126        4.908435  -0.000000
  127        4.974981  -0.000000
  128        5.001855  -0.000000
  129        5.243370  -0.000000
  130        5.447409  -0.000000
  131        5.460171  -0.000000
  132        6.331125  -0.000000

  0.3333333E+00  0.3767071E-15  0.1262379E-14  0.2469136E-01
    1      -10.508899   1.000000
    2       -9.983750   1.000000
    3       -9.326954   1.000000
    4       -9.080230   1.000000
    5       -8.754915   1.000000
    6       -8.531556   1.000000
    7       -8.463086   1.000000
    8       -7.943748   1.000000
    9       -7.875319   1.000000
   10       -7.837757   1.000000
   11       -7.738942   1.000000
   12       -7.674947   1.000000
   13       -7.655839   1.000000
   14       -7.606646   1.000000
   15       -7.561284   1.000000
   16       -6.871027   1.000000
   17       -6.728404   1.000000
   18       -6.080995   1.000000
   19       -5.985585   1.000000
   20       -5.819590   1.000000
   21       -5.633653   1.000000
   22       -5.519203   1.000000
   23       -5.386383   1.000000
   24       -5.374971   1.000000
   25       -5.280972   1.000000
   26       -5.158699   1.000000
   27       -4.643830   1.000000
   28       -4.520670   1.000000
   29       -4.359467   1.000000
   30       -4.232306   1.000000
   31       -4.096447   1.000000
   32       -3.714476   1.000000
   33       -3.635644   1.000000
   34       -3.608807   1.000000
   35       -3.425054   1.000000
   36       -3.279626   1.000000
   37       -3.188794   1.000000
   38       -3.132658   1.000000
   39       -3.087025   1.000000
   40       -3.054345   1.000000
   41       -2.963625   1.000000
   42       -2.847224   1.000000
   43       -2.672900   1.000000
   44       -2.402805   1.000000
   45       -2.351248   1.000000
   46       -2.291622   1.000000
   47       -2.059419   1.000000
   48       -1.995264   1.000000
   49       -1.911144   1.000000
   50       -1.847116   1.000000
   51       -1.826158   1.000000
   52       -1.752124   1.000000
   53       -1.700505   1.000000
   54       -1.670274   1.000000
   55       -1.606616   1.000000
   56       -1.510164   1.000000
   57       -1.454139   1.000000
   58       -1.369735   1.000000
   59       -1.335190   1.000000
   60       -1.270502   1.000000
   61       -1.208469   1.000000
   62       -1.186679   1.000000
   63       -1.107015   1.000000
   64       -1.063782   1.000000
   65       -1.012973   1.000000
   66       -0.924058   1.000000
   67       -0.900436   1.000000
   68       -0.794041   1.000000
   69       -0.733243   1.000000
   70       -0.639672   1.000000
   71       -0.569108   1.000000
   72       -0.446881   1.000000
   73       -0.367181   1.000000
   74       -0.307962   1.000000
   75       -0.253170   1.000000
   76       -0.120236   1.000000
   77       -0.074114   1.000000
   78       -0.056275   1.000000
   79        0.192671   1.000000
   80        0.296880   1.000000
   81        0.538129   1.000000
   82        0.584382   1.000000
   83        0.786539   1.000000
   84        0.851335   1.000000
   85        1.032133   1.000000
   86        1.115736   1.000000
   87        1.182527   1.000000
   88        1.413977   1.000000
   89        1.424391   1.000000
   90        1.606460   1.000000
   91        1.660104   1.000000
   92        1.763644   1.000000
   93        1.847786   1.000000
   94        1.910455   1.000000
   95        2.053095   1.000000
   96        2.231030   1.000000
   97        2.493385   1.000001
   98        2.579711   1.000011
   99        2.618958   1.000036
  100        2.950674   1.027452
  101        3.104557   0.971515
  102        3.231398   0.584857
  103        3.316681   0.239995
  104        3.411996   0.009404
  105        3.505835  -0.035144
  106        3.589708  -0.018954
  107        3.665194  -0.006375
  108        3.736383  -0.001615
  109        3.797313  -0.000392
  110        3.888391  -0.000032
  111        3.941905  -0.000006
  112        3.996659  -0.000001
  113        4.045218  -0.000000
  114        4.123295  -0.000000
  115        4.163908  -0.000000
  116        4.267064  -0.000000
  117        4.302388  -0.000000
  118        4.378464  -0.000000
  119        4.395586  -0.000000
  120        4.484543  -0.000000
  121        4.529500  -0.000000
  122        4.624850  -0.000000
  123        4.763079  -0.000000
  124        4.807122  -0.000000
  125        4.882183  -0.000000
  126        4.953459  -0.000000
  127        5.014644  -0.000000
  128        5.096334  -0.000000
  129        5.324129  -0.000000
  130        5.533201  -0.000000
  131        5.786271  -0.000000
  132        6.179484  -0.000000

  0.4444444E+00  0.3698634E-15  0.1262379E-14  0.2469136E-01
    1      -10.151015   1.000000
    2       -9.681143   1.000000
    3       -9.581347   1.000000
    4       -9.240169   1.000000
    5       -9.058581   1.000000
    6       -8.742812   1.000000
    7       -8.329002   1.000000
    8       -7.991717   1.000000
    9       -7.939000   1.000000
   10       -7.929119   1.000000
   11       -7.824169   1.000000
   12       -7.685323   1.000000
   13       -7.678108   1.000000
   14       -7.609885   1.000000
   15       -7.560508   1.000000
   16       -7.242446   1.000000
   17       -6.761416   1.000000
   18       -5.987799   1.000000
   19       -5.880815   1.000000
   20       -5.802040   1.000000
   21       -5.492272   1.000000
   22       -5.277180   1.000000
   23       -5.247828   1.000000
   24       -5.151829   1.000000
   25       -5.105412   1.000000
   26       -5.037197   1.000000
   27       -4.120165   1.000000
   28       -4.058783   1.000000
   29       -3.872199   1.000000
   30       -3.819934   1.000000
   31       -3.773723   1.000000
   32       -3.670999   1.000000
   33       -3.642598   1.000000
   34       -3.548306   1.000000
   35       -3.496311   1.000000
   36       -3.357912   1.000000
   37       -3.291043   1.000000
   38       -3.287714   1.000000
   39       -3.226110   1.000000
   40       -3.118104   1.000000
   41       -3.028906   1.000000
   42       -2.993809   1.000000
   43       -2.864143   1.000000
   44       -2.769166   1.000000
   45       -2.376578   1.000000
   46       -2.287979   1.000000
   47       -2.127506   1.000000
   48       -2.083000   1.000000
   49       -1.992119   1.000000
   50       -1.862101   1.000000
   51       -1.833252   1.000000
   52       -1.799304   1.000000
   53       -1.694094   1.000000
   54       -1.658283   1.000000
   55       -1.593693   1.000000
   56       -1.552947   1.000000
   57       -1.493568   1.000000
   58       -1.436284   1.000000
   59       -1.372096   1.000000
   60       -1.356602   1.000000
   61       -1.313378   1.000000
   62       -1.249078   1.000000
   63       -1.212584   1.000000
   64       -1.177572   1.000000
   65       -1.131163   1.000000
   66       -0.973847   1.000000
   67       -0.907967   1.000000
   68       -0.835616   1.000000
   69       -0.740093   1.000000
   70       -0.727590   1.000000
   71       -0.598622   1.000000
   72       -0.516691   1.000000
   73       -0.418278   1.000000
   74       -0.366159   1.000000
   75       -0.284314   1.000000
   76       -0.212628   1.000000
   77       -0.118551   1.000000
   78       -0.072974   1.000000
   79       -0.022089   1.000000
   80        0.208421   1.000000
   81        0.559919   1.000000
   82        0.626820   1.000000
   83        0.674388   1.000000
   84        0.820458   1.000000
   85        1.028782   1.000000
   86        1.154481   1.000000
   87        1.241197   1.000000
   88        1.372404   1.000000
   89        1.428733   1.000000
   90        1.516146   1.000000
   91        1.650877   1.000000
   92        1.696486   1.000000
   93        1.857771   1.000000
   94        1.900953   1.000000
   95        2.039414   1.000000
   96        2.240059   1.000000
   97        2.429342   1.000000
   98        2.571679   1.000008
   99        2.606895   1.000025
  100        2.716976   1.000517
  101        2.796889   1.003000
  102        3.017038   1.035009
  103        3.137872   0.905362
  104        3.252033   0.498021
  105        3.357383   0.114346
  106        3.445205  -0.021504
  107        3.511121  -0.034715
  108        3.635742  -0.010236
  109        3.700892  -0.003329
  110        3.752748  -0.001128
  111        3.867983  -0.000059
  112        3.900458  -0.000022
  113        3.911049  -0.000016
  114        4.033657  -0.000000
  115        4.064225  -0.000000
  116        4.193553  -0.000000
  117        4.260076  -0.000000
  118        4.337857  -0.000000
  119        4.366127  -0.000000
  120        4.465594  -0.000000
  121        4.600808  -0.000000
  122        4.777481  -0.000000
  123        4.808922  -0.000000
  124        4.873655  -0.000000
  125        4.959364  -0.000000
  126        5.057403  -0.000000
  127        5.155156  -0.000000
  128        5.298078  -0.000000
  129        5.466351  -0.000000
  130        5.517070  -0.000000
  131        5.638559  -0.000000
  132        5.903472  -0.000000

  0.3742002E-15  0.1111111E+00  0.1262379E-14  0.2469136E-01
    1      -10.955433   1.000000
    2      -10.386372   1.000000
    3       -9.628727   1.000000
    4       -8.796524   1.000000
    5       -8.168055   1.000000
    6       -8.140095   1.000000
    7       -7.851289   1.000000
    8       -7.816621   1.000000
    9       -7.714445   1.000000
   10       -7.614821   1.000000
   11       -7.513494   1.000000
   12       -7.448841   1.000000
   13       -7.318213   1.000000
   14       -7.302116   1.000000
   15       -7.037700   1.000000
   16       -6.695067   1.000000
   17       -6.648156   1.000000
   18       -6.595039   1.000000
   19       -6.407977   1.000000
   20       -6.318873   1.000000
   21       -6.257222   1.000000
   22       -6.072848   1.000000
   23       -5.679860   1.000000
   24       -5.632584   1.000000
   25       -5.491374   1.000000
   26       -5.377791   1.000000
   27       -5.329453   1.000000
   28       -5.213368   1.000000
   29       -5.139728   1.000000
   30       -4.925278   1.000000
   31       -4.630300   1.000000
   32       -4.078621   1.000000
   33       -4.022389   1.000000
   34       -3.890744   1.000000
   35       -3.808785   1.000000
   36       -3.763405   1.000000
   37       -3.465627   1.000000
   38       -3.072555   1.000000
   39       -2.887184   1.000000
   40       -2.727722   1.000000
   41       -2.684258   1.000000
   42       -2.586094   1.000000
   43       -2.444762   1.000000
   44       -2.215441   1.000000
   45       -2.206669   1.000000
   46       -2.104552   1.000000
   47       -2.048542   1.000000
   48       -1.959242   1.000000
   49       -1.909274   1.000000
   50       -1.826718   1.000000
   51       -1.667656   1.000000
   52       -1.604909   1.000000
   53       -1.497029   1.000000
   54       -1.429449   1.000000
   55       -1.421011   1.000000
   56       -1.386181   1.000000
   57       -1.235337   1.000000
   58       -1.176244   1.000000
   59       -1.130950   1.000000
   60       -1.079382   1.000000
   61       -1.054953   1.000000
   62       -1.011776   1.000000
   63       -0.957572   1.000000
   64       -0.908729   1.000000
   65       -0.808313   1.000000
   66       -0.702341   1.000000
   67       -0.689291   1.000000
   68       -0.601392   1.000000
   69       -0.548476   1.000000
   70       -0.460800   1.000000
   71       -0.371770   1.000000
   72       -0.301833   1.000000
   73       -0.189157   1.000000
   74       -0.123737   1.000000
   75        0.035574   1.000000
   76        0.096531   1.000000
   77        0.212857   1.000000
   78        0.293510   1.000000
   79        0.318801   1.000000
   80        0.497521   1.000000
   81        0.605004   1.000000
   82        0.636402   1.000000
   83        0.940114   1.000000
   84        1.035834   1.000000
   85        1.104493   1.000000
   86        1.376553   1.000000
   87        1.459810   1.000000
   88        1.623013   1.000000
   89        1.727387   1.000000
   90        1.801995   1.000000
   91        1.860655   1.000000
   92        1.951473   1.000000
   93        1.980400   1.000000
   94        2.037480   1.000000
   95        2.139159   1.000000
   96        2.244639   1.000000
   97        2.500055   1.000001
   98        2.866730   1.010135
   99        2.973000   1.032031
  100        3.110330   0.962012
  101        3.215326   0.650586
  102        3.258051   0.472572
  103        3.333095   0.184751
  104        3.403364   0.021200
  105        3.457348  -0.027873
  106        3.674089  -0.005464
  107        3.899813  -0.000023
  108        3.953056  -0.000004
  109        4.043889  -0.000000
  110        4.074934  -0.000000
  111        4.092214  -0.000000
  112        4.174768  -0.000000
  113        4.251853  -0.000000
  114        4.303316  -0.000000
  115        4.360006  -0.000000
  116        4.394998  -0.000000
  117        4.452673  -0.000000
  118        4.484685  -0.000000
  119        4.503884  -0.000000
  120        4.586064  -0.000000
  121        4.640714  -0.000000
  122        4.699092  -0.000000
  123        4.762810  -0.000000
  124        4.782786  -0.000000
  125        4.845657  -0.000000
  126        5.257583  -0.000000
  127        5.525060  -0.000000
  128        5.656842  -0.000000
  129        5.897664  -0.000000
  130        6.138373  -0.000000
  131        6.573461  -0.000000
  132        6.640331  -0.000000

  0.1111111E+00  0.1111111E+00  0.1262379E-14  0.2469136E-01
    1      -10.841149   1.000000
    2      -10.282847   1.000000
    3       -9.548621   1.000000
    4       -8.731066   1.000000
    5       -8.235541   1.000000
    6       -8.212823   1.000000
    7       -8.100719   1.000000
    8       -8.047774   1.000000
    9       -7.922343   1.000000
   10       -7.851600   1.000000
   11       -7.753758   1.000000
   12       -7.617528   1.000000
   13       -7.349603   1.000000
   14       -7.234518   1.000000
   15       -6.897292   1.000000
   16       -6.892022   1.000000
   17       -6.639081   1.000000
   18       -6.408234   1.000000
   19       -6.306036   1.000000
   20       -6.256553   1.000000
   21       -5.833547   1.000000
   22       -5.746864   1.000000
   23       -5.610213   1.000000
   24       -5.518571   1.000000
   25       -5.408634   1.000000
   26       -5.260157   1.000000
   27       -5.159397   1.000000
   28       -5.155205   1.000000
   29       -4.920361   1.000000
   30       -4.919203   1.000000
   31       -4.597359   1.000000
   32       -4.173998   1.000000
   33       -3.749277   1.000000
   34       -3.660466   1.000000
   35       -3.604700   1.000000
   36       -3.558148   1.000000
   37       -3.224931   1.000000
   38       -3.079617   1.000000
   39       -2.910891   1.000000
   40       -2.788743   1.000000
   41       -2.680058   1.000000
   42       -2.623640   1.000000
   43       -2.615472   1.000000
   44       -2.407562   1.000000
   45       -2.239500   1.000000
   46       -2.126722   1.000000
   47       -2.090012   1.000000
   48       -1.964439   1.000000
   49       -1.879893   1.000000
   50       -1.816821   1.000000
   51       -1.784405   1.000000
   52       -1.630768   1.000000
   53       -1.623417   1.000000
   54       -1.554239   1.000000
   55       -1.447484   1.000000
   56       -1.405983   1.000000
   57       -1.263778   1.000000
   58       -1.211501   1.000000
   59       -1.159375   1.000000
   60       -1.127117   1.000000
   61       -1.095105   1.000000
   62       -0.993090   1.000000
   63       -0.971535   1.000000
   64       -0.855270   1.000000
   65       -0.851922   1.000000
   66       -0.831591   1.000000
   67       -0.813046   1.000000
   68       -0.656384   1.000000
   69       -0.639865   1.000000
   70       -0.526147   1.000000
   71       -0.397858   1.000000
   72       -0.395191   1.000000
   73       -0.237071   1.000000
   74       -0.176413   1.000000
   75       -0.097623   1.000000
   76       -0.038425   1.000000
   77        0.076011   1.000000
   78        0.151403   1.000000
   79        0.343225   1.000000
   80        0.487938   1.000000
   81        0.491302   1.000000
   82        0.656645   1.000000
   83        0.850455   1.000000
   84        0.858365   1.000000
   85        1.019806   1.000000
   86        1.076501   1.000000
   87        1.390172   1.000000
   88        1.511976   1.000000
   89        1.708926   1.000000
   90        1.813044   1.000000
   91        1.819401   1.000000
   92        1.873656   1.000000
   93        1.880853   1.000000
   94        1.992792   1.000000
   95        2.062369   1.000000
   96        2.351693   1.000000
   97        2.501796   1.000001
   98        2.784106   1.002322