 running on    4 total cores
 distrk:  each k-point on    4 cores,    1 groups
 distr:  one band on    2 cores,    2 groups
 using from now: INCAR     
 vasp.5.4.4.18Apr17-6-g9f103f2a35 (build Dec  7 2020 12:43:57) complex           
 POSCAR found type information on POSCAR  Mo B 
 POSCAR found :  2 types and       3 ions
 scaLAPACK will be used
 LDA part: xc-table for Pade appr. of Perdew
 POSCAR, INCAR and KPOINTS ok, starting setup
 FFT: planning ...
 WAVECAR not read
 augmentation electrons   12.018373587906812     
 soft         electrons   0.0000000000000000     
 augmentation electrons   12.018373587906812     
 soft         electrons   0.0000000000000000     
 augmentation electrons   12.018373587906812     
 soft         electrons   0.0000000000000000     
 augmentation electrons   12.018373587906812     
 soft         electrons   0.0000000000000000     
 total        electrons   12.018373587906812     
 total        electrons   12.018373587906812     
 total        electrons   12.018373587906812     
 total        electrons   12.018373587906812     
 augmentation electrons   169.75791458332097     
 soft         electrons   0.0000000000000000     
 augmentation electrons   169.75791458332097     
 soft         electrons   0.0000000000000000     
 augmentation electrons   169.75791458332097     
 soft         electrons   0.0000000000000000     
 augmentation electrons   169.75791458332097     
 soft         electrons   0.0000000000000000     
 total        electrons   169.75791458332097     
 total        electrons   169.75791458332097     
 total        electrons   169.75791458332097     
 total        electrons   169.75791458332097     
 entering main loop
       N       E                     dE             d eps       ncg     rms          rms(c)
DAV:   1     0.337596704372E+02    0.33760E+02   -0.57144E+03  4320   0.105E+03
DAV:   2    -0.229494007940E+02   -0.56709E+02   -0.53803E+02  5148   0.219E+02
DAV:   3    -0.251423858185E+02   -0.21930E+01   -0.21014E+01  6018   0.381E+01
DAV:   4    -0.251694647857E+02   -0.27079E-01   -0.26661E-01  5462   0.321E+00
DAV:   5    -0.251698521019E+02   -0.38732E-03   -0.38677E-03  5602   0.292E-01    0.357E+01
RMM:   6    -0.212501980250E+02    0.39197E+01   -0.13612E+01  4336   0.232E+01    0.882E+00
RMM:   7    -0.212600348082E+02   -0.98368E-02   -0.40562E-01  4330   0.411E+00    0.529E+00
RMM:   8    -0.212970189927E+02   -0.36984E-01   -0.35959E-01  4320   0.648E+00    0.245E+00
RMM:   9    -0.212574870307E+02    0.39532E-01   -0.86087E-02  4320   0.216E+00    0.285E-01
RMM:  10    -0.212572488341E+02    0.23820E-03   -0.41884E-03  4383   0.431E-01    0.268E-01
RMM:  11    -0.212563989491E+02    0.84988E-03   -0.12331E-03  4320   0.249E-01    0.509E-02
RMM:  12    -0.212564038767E+02   -0.49276E-05   -0.58338E-05  4336   0.462E-02    0.143E-02
RMM:  13    -0.212564069998E+02   -0.31231E-05   -0.25930E-05  4338   0.407E-02    0.967E-03
RMM:  14    -0.212564054658E+02    0.15340E-05   -0.32516E-06  3550   0.144E-02    0.145E-03
RMM:  15    -0.212564054959E+02   -0.30049E-07   -0.10991E-07  2600   0.336E-03
   1 F= -.21256405E+02 E0= -.21256182E+02  d E =-.212564E+02
 curvature:   0.00 expect dE= 0.000E+00 dE for cont linesearch  0.000E+00
 trial: gam= 0.00000 g(F)=  0.123E-43 g(S)=  0.100E+01 ort = 0.000E+00 (trialstep = 0.100E+01)
 search vector abs. value=  0.100E+01
 bond charge predicted
       N       E                     dE             d eps       ncg     rms          rms(c)
DAV:   1    -0.216672086605E+02   -0.41080E+00   -0.24621E+01  4360   0.474E+01    0.149E+01
RMM:   2    -0.211870283729E+02    0.48018E+00   -0.12791E+00  4320   0.781E+00    0.578E+00
RMM:   3    -0.211090335904E+02    0.77995E-01   -0.10737E-01  4322   0.228E+00    0.374E+00
RMM:   4    -0.210969973514E+02    0.12036E-01   -0.60799E-02  4320   0.174E+00    0.454E-01
RMM:   5    -0.210978570525E+02   -0.85970E-03   -0.64700E-03  4345   0.496E-01    0.168E-01
RMM:   6    -0.210973270603E+02    0.52999E-03   -0.38257E-03  4322   0.483E-01    0.888E-02
RMM:   7    -0.210972004196E+02    0.12664E-03   -0.13979E-04  4331   0.107E-01    0.239E-02
RMM:   8    -0.210971955184E+02    0.49012E-05   -0.22042E-05  4330   0.335E-02    0.135E-02
RMM:   9    -0.210971962227E+02   -0.70423E-06   -0.90434E-06  3992   0.272E-02
   2 F= -.21097196E+02 E0= -.21097069E+02  d E =0.159209E+00
 trial-energy change:    0.159209  1 .order    0.076610   -1.004312    1.157531
 step:   0.4091(harm=  0.4646)  dis= 0.00000  next Energy=   -21.456202 (dE=-0.200E+00)
 bond charge predicted
       N       E                     dE             d eps       ncg     rms          rms(c)
DAV:   1    -0.216340598442E+02   -0.53686E+00   -0.89658E+00  4348   0.300E+01    0.851E+00
RMM:   2    -0.214713519229E+02    0.16271E+00   -0.26367E-01  4320   0.389E+00    0.295E+00
RMM:   3    -0.214488733523E+02    0.22479E-01   -0.31558E-02  4320   0.131E+00    0.137E+00
RMM:   4    -0.214460217853E+02    0.28516E-02   -0.15555E-02  4320   0.922E-01    0.197E-01
RMM:   5    -0.214464115974E+02   -0.38981E-03   -0.80542E-04  4345   0.261E-01    0.518E-02
RMM:   6    -0.214463998692E+02    0.11728E-04   -0.59660E-04  4320   0.208E-01    0.642E-02
RMM:   7    -0.214463548748E+02    0.44994E-04   -0.85391E-05  4320   0.830E-02    0.107E-02
RMM:   8    -0.214463546840E+02    0.19081E-06   -0.44113E-06  3627   0.136E-02
   3 F= -.21446355E+02 E0= -.21446285E+02  d E =-.189949E+00
 curvature:  -0.23 expect dE=-0.900E-02 dE for cont linesearch -0.153E-03
 ZBRENT: interpolating
 opt :   0.3989  next Energy=   -21.446487 (dE=-0.190E+00)
 bond charge predicted
       N       E                     dE             d eps       ncg     rms          rms(c)
DAV:   1    -0.214465662740E+02   -0.21140E-03   -0.26973E-03  4762   0.518E-01    0.167E-01
RMM:   2    -0.214465176790E+02    0.48595E-04   -0.90756E-05  4319   0.705E-02    0.613E-02
RMM:   3    -0.214465130450E+02    0.46340E-05   -0.93948E-06  4290   0.228E-02    0.308E-02
RMM:   4    -0.214465139525E+02   -0.90747E-06   -0.46962E-06  3969   0.164E-02    0.404E-03
RMM:   5    -0.214465142923E+02   -0.33979E-06   -0.24131E-07  2430   0.499E-03
   4 F= -.21446514E+02 E0= -.21446442E+02  d E =-.190109E+00
 curvature:  -0.20 expect dE=-0.728E-02 dE for cont linesearch -0.116E-05
 trial: gam= 0.03877 g(F)=  0.341E-43 g(S)=  0.365E-01 ort =-0.242E-02 (trialstep = 0.880E+00)
 search vector abs. value=  0.378E-01
 bond charge predicted
       N       E                     dE             d eps       ncg     rms          rms(c)
DAV:   1    -0.214750974084E+02   -0.28583E-01   -0.95141E-01  4360   0.819E+00    0.461E-01
RMM:   2    -0.214711597180E+02    0.39377E-02   -0.22056E-02  4328   0.128E+00    0.450E-01
RMM:   3    -0.214708431959E+02    0.31652E-03   -0.73023E-04  4349   0.179E-01    0.259E-01
RMM:   4    -0.214709346759E+02   -0.91480E-04   -0.40362E-04  4320   0.193E-01    0.503E-02
RMM:   5    -0.214710273823E+02   -0.92706E-04   -0.20359E-04  4322   0.131E-01    0.545E-02
RMM:   6    -0.214710292791E+02   -0.18968E-05   -0.45130E-05  4320   0.604E-02    0.130E-02
RMM:   7    -0.214710356667E+02   -0.63875E-05   -0.83945E-06  3869   0.371E-02    0.666E-03
RMM:   8    -0.214710354114E+02    0.25521E-06   -0.14444E-06  2928   0.104E-02
   5 F= -.21471035E+02 E0= -.21471005E+02  d E =-.245211E-01
 trial-energy change:   -0.024521  1 .order   -0.025893   -0.032044   -0.019743
 step:   2.2918(harm=  2.2918)  dis= 0.00000  next Energy=   -21.488250 (dE=-0.417E-01)
 bond charge predicted
       N       E                     dE             d eps       ncg     rms          rms(c)
DAV:   1    -0.214984965836E+02   -0.27461E-01   -0.24767E+00  4370   0.131E+01    0.701E-01
RMM:   2    -0.214917691897E+02    0.67274E-02   -0.48446E-02  4328   0.195E+00    0.671E-01
RMM:   3    -0.214916591449E+02    0.11004E-03   -0.16818E-03  4351   0.302E-01    0.395E-01
RMM:   4    -0.214928016354E+02   -0.11425E-02   -0.11314E-03  4320   0.383E-01    0.112E-01
RMM:   5    -0.214933741205E+02   -0.57249E-03   -0.79683E-04  4320   0.300E-01    0.973E-02
RMM:   6    -0.214934870243E+02   -0.11290E-03   -0.28486E-04  4322   0.176E-01    0.324E-02
RMM:   7    -0.214934978607E+02   -0.10836E-04   -0.41951E-05  4330   0.765E-02    0.110E-02
RMM:   8    -0.214934984825E+02   -0.62182E-06   -0.69363E-06  3687   0.239E-02
   6 F= -.21493498E+02 E0= -.21493280E+02  d E =-.469842E-01
 curvature:  -1.19 expect dE=-0.798E-02 dE for cont linesearch -0.186E-02
 ZBRENT: increasing intervall
 opt :   5.1157  next Energy=   -21.473496 (dE=-0.270E-01)
 bond charge predicted
       N       E                     dE             d eps       ncg     rms          rms(c)
DAV:   1    -0.214570309525E+02    0.36467E-01   -0.97034E+00  4354   0.260E+01    0.158E+00
RMM:   2    -0.214205600598E+02    0.36471E-01   -0.18908E-01  4324   0.393E+00    0.141E+00
RMM:   3    -0.214171590947E+02    0.34010E-02   -0.83775E-03  4351   0.729E-01    0.801E-01
RMM:   4    -0.214213006428E+02   -0.41415E-02   -0.62259E-03  4320   0.826E-01    0.271E-01
RMM:   5    -0.214241116785E+02   -0.28110E-02   -0.35248E-03  4320   0.664E-01    0.179E-01
RMM:   6    -0.214253109673E+02   -0.11993E-02   -0.14289E-03  4320   0.479E-01    0.106E-01
RMM:   7    -0.214254536554E+02   -0.14269E-03   -0.86683E-04  4321   0.314E-01    0.453E-02
RMM:   8    -0.214254380387E+02    0.15617E-04   -0.29228E-05  4348   0.428E-02    0.143E-02
RMM:   9    -0.214254381452E+02   -0.10652E-06   -0.33764E-06  3426   0.145E-02
   7 F= -.21425438E+02 E0= -.21425128E+02  d E =0.210761E-01
 curvature:  12.84 expect dE= 0.218E+01 dE for cont linesearch  0.102E+01
 ZBRENT: bracketing found
 ZBRENT: interpolating
 opt :   2.6382  next Energy=   -21.494828 (dE=-0.483E-01)
 bond charge predicted
       N       E                     dE             d eps       ncg     rms          rms(c)
DAV:   1    -0.215092530278E+02   -0.83815E-01   -0.76003E+00  4332   0.234E+01    0.133E+00
RMM:   2    -0.214879817881E+02    0.21271E-01   -0.14803E-01  4328   0.350E+00    0.120E+00
RMM:   3    -0.214884363442E+02   -0.45456E-03   -0.60462E-03  4359   0.625E-01    0.701E-01
RMM:   4    -0.214930884825E+02   -0.46521E-02   -0.44973E-03  4320   0.816E-01    0.216E-01
RMM:   5    -0.214951080346E+02   -0.20196E-02   -0.33543E-03  4320   0.610E-01    0.168E-01
RMM:   6    -0.214952097140E+02   -0.10168E-03   -0.68645E-04  4324   0.252E-01    0.486E-02
RMM:   7    -0.214952702963E+02   -0.60582E-04   -0.15217E-04  4330   0.162E-01    0.136E-02
RMM:   8    -0.214952705491E+02   -0.25283E-06   -0.12962E-05  4226   0.238E-02    0.723E-03
RMM:   9    -0.214952705087E+02    0.40353E-07   -0.88395E-07  2879   0.907E-03
   8 F= -.21495271E+02 E0= -.21495271E+02  d E =-.487562E-01
 curvature:  -0.02 expect dE=-0.149E-03 dE for cont linesearch -0.419E-05
 ZBRENT: interpolating
 opt :   2.8581  next Energy=   -21.495627 (dE=-0.491E-01)
 bond charge predicted
       N       E                     dE             d eps       ncg     rms          rms(c)
DAV:   1    -0.214954472646E+02   -0.17672E-03   -0.59798E-02  4352   0.205E+00    0.116E-01
RMM:   2    -0.214952468708E+02    0.20039E-03   -0.11445E-03  4327   0.305E-01    0.109E-01
RMM:   3    -0.214952314456E+02    0.15425E-04   -0.46818E-05  4346   0.519E-02    0.629E-02
RMM:   4    -0.214952480388E+02   -0.16593E-04   -0.33156E-05  4320   0.604E-02    0.156E-02
RMM:   5    -0.214952566724E+02   -0.86335E-05   -0.13238E-05  4303   0.378E-02    0.117E-02
RMM:   6    -0.214952585598E+02   -0.18875E-05   -0.34860E-06  3468   0.204E-02    0.403E-03
RMM:   7    -0.214952587535E+02   -0.19374E-06   -0.73639E-07  2505   0.107E-02
   9 F= -.21495259E+02 E0= -.21495372E+02  d E =-.487445E-01
 curvature:  -1.42 expect dE=-0.163E-01 dE for cont linesearch -0.129E-03
 trial: gam= 0.47421 g(F)=  0.219E-43 g(S)=  0.115E-01 ort =-0.185E-02 (trialstep = 0.128E+01)
 search vector abs. value=  0.182E-01
 bond charge predicted
       N       E                     dE             d eps       ncg     rms          rms(c)
DAV:   1    -0.214949650454E+02    0.29351E-03   -0.86278E-01  4352   0.856E+00    0.220E+00
RMM:   2    -0.214879447590E+02    0.70203E-02   -0.12420E-02  4320   0.949E-01    0.102E+00
RMM:   3    -0.214864294062E+02    0.15154E-02   -0.31199E-03  4329   0.442E-01    0.404E-01
RMM:   4    -0.214865856528E+02   -0.15625E-03   -0.73734E-04  4322   0.238E-01    0.728E-02
RMM:   5    -0.214867675998E+02   -0.18195E-03   -0.23883E-04  4320   0.217E-01    0.222E-02
RMM:   6    -0.214867762371E+02   -0.86373E-05   -0.19881E-05  4327   0.406E-02    0.107E-02
RMM:   7    -0.214867799997E+02   -0.37626E-05   -0.47903E-06  3499   0.229E-02    0.289E-03
RMM:   8    -0.214867802912E+02   -0.29152E-06   -0.74968E-07  2706   0.101E-02
  10 F= -.21486780E+02 E0= -.21486630E+02  d E =0.847846E-02
 trial-energy change:    0.008478  1 .order    0.007923   -0.013501    0.029348
 step:   0.3811(harm=  0.4019)  dis= 0.00000  next Energy=   -21.497261 (dE=-0.200E-02)
 bond charge predicted
       N       E                     dE             d eps       ncg     rms          rms(c)
DAV:   1    -0.215009993155E+02   -0.14219E-01   -0.42748E-01  4352   0.610E+00    0.153E+00
RMM:   2    -0.214976525866E+02    0.33467E-02   -0.59529E-03  4320   0.667E-01    0.700E-01
RMM:   3    -0.214970136679E+02    0.63892E-03   -0.14685E-03  4326   0.314E-01    0.259E-01
RMM:   4    -0.214971346700E+02   -0.12100E-03   -0.34842E-04  4323   0.171E-01    0.523E-02
RMM:   5    -0.214972275994E+02   -0.92929E-04   -0.13006E-04  4320   0.161E-01    0.145E-02
RMM:   6    -0.214972284845E+02   -0.88511E-06   -0.72614E-06  3639   0.220E-02
  11 F= -.21497228E+02 E0= -.21497292E+02  d E =-.196973E-02
 curvature:  -0.35 expect dE=-0.224E-03 dE for cont linesearch -0.214E-08
 trial: gam=-0.10474 g(F)=  0.188E-42 g(S)=  0.647E-03 ort =-0.106E-04 (trialstep = 0.110E+01)
 search vector abs. value=  0.849E-03
 bond charge predicted
       N       E                     dE             d eps       ncg     rms          rms(c)
DAV:   1    -0.214977410851E+02   -0.51349E-03   -0.34560E-02  4384   0.157E+00    0.114E-01
RMM:   2    -0.214975665164E+02    0.17457E-03   -0.82683E-04  4327   0.249E-01    0.683E-02
RMM:   3    -0.214975546145E+02    0.11902E-04   -0.31880E-05  4352   0.411E-02    0.392E-02
RMM:   4    -0.214975616193E+02   -0.70048E-05   -0.19552E-05  4313   0.447E-02    0.119E-02
RMM:   5    -0.214975670578E+02   -0.54385E-05   -0.88236E-06  4186   0.296E-02    0.923E-03
RMM:   6    -0.214975677831E+02   -0.72529E-06   -0.23778E-06  3095   0.164E-02
  12 F= -.21497568E+02 E0= -.21497668E+02  d E =-.339299E-03
 trial-energy change:   -0.000339  1 .order   -0.000333   -0.000711    0.000044
 step:   1.0351(harm=  1.0322)  dis= 0.00000  next Energy=   -21.497569 (dE=-0.341E-03)
 reached required accuracy - stopping structural energy minimisation
 writing wavefunctions
 augmentation electrons   1.1720521393791885     
 soft         electrons   10.850293905096301     
 augmentation electrons   1.1720521393791885     
 soft         electrons   10.850293905096301     
 augmentation electrons   1.1720521393791885     
 soft         electrons   10.850293905096301     
 augmentation electrons   1.1720521393791885     
 soft         electrons   10.850293905096301     
 total        electrons   12.022346044475489     
 total        electrons   12.022346044475489     
 total        electrons   12.022346044475489     
 total        electrons   12.022346044475489     
