    3    3    1    1
  0.8604740E+01  0.3002604E-09  0.3002604E-09  0.3306224E-09  0.5000000E-15
   1.0000000000000000E-004
  CAR 
 Name                                    
     12   2457     18

  0.3742002E-15  0.3742002E-15  0.3742002E-15  0.2035416E-03
    1       -5.674147   1.000000
    2        4.220171   1.000000
    3        4.629612   1.000000
    4        4.629619   1.000000
    5        5.501578   1.000000
    6        9.331584   0.159124
    7        9.331590   0.014933
    8       11.556138   0.000000
    9       11.556145   0.000000
   10       14.084256   0.000000
   11       14.084265   0.000000
   12       15.024262   0.000000
   13       17.601064   0.000000
   14       17.847784   0.000000
   15       26.640229   0.000000
   16       26.640239   0.000000
   17       28.707086   0.000000
   18       31.093157   0.000000

  0.5882353E-01  0.3706497E-15  0.3742002E-15  0.4070832E-03
    1       -5.604822   1.000000
    2        4.276966   1.000000
    3        4.458437   1.000000
    4        4.660004   1.000000
    5        5.353365   1.000000
    6        9.299102   0.587606
    7        9.544186  -0.009852
    8       11.213604   0.000000
    9       11.281654   0.000000
   10       14.343378   0.000000
   11       14.535916   0.000000
   12       15.267360   0.000000
   13       17.340060   0.000000
   14       17.949007   0.000000
   15       26.773831   0.000000
   16       27.091744   0.000000
   17       28.774250   0.000000
   18       31.156843   0.000000

  0.1176471E+00  0.3767996E-15  0.3742002E-15  0.4070832E-03
    1       -5.399239   1.000000
    2        3.980405   1.000000
    3        4.438515   1.000000
    4        4.739590   1.000000
    5        4.995917   1.000000
    6        9.207487   0.994132
    7       10.076646   0.000000
    8       10.526448   0.000000
    9       10.788590   0.000000
   10       14.777766   0.000000
   11       15.564611   0.000000
   12       15.975355   0.000000
   13       16.720529   0.000000
   14       18.218876   0.000000
   15       27.163131   0.000000
   16       28.273862   0.000000
   17       28.951214   0.000000
   18       31.289707   0.000000

  0.1764706E+00  0.3607731E-15  0.3742002E-15  0.4070832E-03
    1       -5.064285   1.000000
    2        3.307830   1.000000
    3        4.569589   1.000000
    4        4.625539   1.000000
    5        4.836940   1.000000
    6        9.072621   1.000000
    7        9.896088   0.000000
    8       10.389749   0.000000
    9       10.724374   0.000000
   10       15.096218   0.000000
   11       16.055916   0.000000
   12       16.866363   0.000000
   13       17.035316   0.000000
   14       18.539192   0.000000
   15       27.776880   0.000000
   16       29.097428   0.000000
   17       29.787173   0.000000
   18       31.278665   0.000000

  0.2352941E+00  0.3655633E-15  0.3742002E-15  0.4070832E-03
    1       -4.610475   1.000000
    2        2.520844   1.000000
    3        4.161376   1.000000
    4        4.734097   1.000000
    5        4.912402   1.000000
    6        8.915992   1.000000
    7        9.568608   0.000000
    8       10.188863   0.000000
    9       11.264503   0.000000
   10       15.286036   0.000000
   11       15.641295   0.000000
   12       18.257510   0.000000
   13       18.334101   0.000000
   14       18.755237   0.000000
   15       28.563214   0.000000
   16       28.771178   0.000000
   17       30.508704   0.000000
   18       31.122867   0.000000

  0.2941176E+00  0.3668569E-15  0.3742002E-15  0.4070832E-03
    1       -4.050993   1.000000
    2        1.675141   1.000000
    3        3.813134   1.000000
    4        4.675360   1.000000
    5        4.939575   1.000000
    6        8.760002   1.000000
    7        9.680785   0.000000
    8       10.197582   0.000000
    9       11.493827   0.000000
   10       15.388968   0.000000
   11       15.698719   0.000000
   12       18.531381   0.000000
   13       19.683035   0.000000
   14       19.911287   0.000000
   15       27.891814   0.000000
   16       29.379377   0.000000
   17       29.448124   0.000000
   18       29.501790   0.000000

  0.3529412E+00  0.3820644E-15  0.3742002E-15  0.4070832E-03
    1       -3.401468   1.000000
    2        0.803772   1.000000
    3        3.543964   1.000000
    4        4.486151   1.000000
    5        4.922055   1.000000
    6        8.624725   1.000000
    7       10.184536   0.000000
    8       10.359360   0.000000
    9       11.422089   0.000000
   10       15.436009   0.000000
   11       16.185046   0.000000
   12       18.057288   0.000000
   13       20.959597   0.000000
   14       21.532591   0.000000
   15       27.020187   0.000000
   16       27.934110   0.000000
   17       28.193771   0.000000
   18       30.329796   0.000000

  0.4117647E+00  0.3552411E-15  0.3742002E-15  0.4070832E-03
    1       -2.683114   1.000000
    2       -0.065663   1.000000
    3        3.362176   1.000000
    4        4.284144   1.000000
    5        4.886084   1.000000
    6        8.525776   1.000000
    7       10.569258   0.000000
    8       10.868244   0.000000
    9       11.249950   0.000000
   10       15.440508   0.000000
   11       16.802282   0.000000
   12       17.375818   0.000000
   13       22.055240   0.000000
   14       23.064469   0.000000
   15       26.378132   0.000000
   16       26.881701   0.000000
   17       27.091536   0.000000
   18       31.085216   0.000000

  0.4705882E+00  0.3565347E-15  0.3742002E-15  0.4070832E-03
    1       -1.959928   1.000000
    2       -0.865466   1.000000
    3        3.270810   1.000000
    4        4.162160   1.000000
    5        4.859906   1.000000
    6        8.473668   1.000000
    7       10.712476   0.000000
    8       11.132015   0.000000
    9       11.400118   0.000000
   10       15.413232   0.000000
   11       16.851136   0.000000
   12       17.226558   0.000000
   13       22.742228   0.000000
   14       24.153764   0.000000
   15       26.004401   0.000000
   16       26.322320   0.000000
   17       26.444714   0.000000
   18       30.879209   0.000000

  0.3742002E-15  0.5882353E-01  0.3742002E-15  0.4070832E-03
    1       -5.604822   1.000000
    2        4.276966   1.000000
    3        4.458436   1.000000
    4        4.660005   1.000000
    5        5.353365   1.000000
    6        9.299102   0.587609
    7        9.544186  -0.009852
    8       11.213603   0.000000
    9       11.281655   0.000000
   10       14.343380   0.000000
   11       14.535913   0.000000
   12       15.267360   0.000000
   13       17.340060   0.000000
   14       17.949007   0.000000
   15       26.773808   0.000000
   16       27.091734   0.000000
   17       28.774248   0.000000
   18       31.156791   0.000000

  0.5882353E-01  0.5882353E-01  0.3742002E-15  0.4070832E-03
    1       -5.467348   1.000000
    2        4.144891   1.000000
    3        4.374310   1.000000
    4        4.715783   1.000000
    5        5.104307   1.000000
    6        9.222719   0.979094
    7        9.928492   0.000000
    8       10.748414   0.000000
    9       10.885205   0.000000
   10       14.737561   0.000000
   11       15.159972   0.000000
   12       15.771957   0.000000
   13       16.902964   0.000000
   14       18.137141   0.000000
   15       27.025492   0.000000
   16       27.915136   0.000000
   17       28.897150   0.000000
   18       31.256099   0.000000

  0.1176471E+00  0.5882353E-01  0.3742002E-15  0.4070832E-03
    1       -5.196990   1.000000
    2        3.595253   1.000000
    3        4.482320   1.000000
    4        4.726690   1.000000
    5        4.846240   1.000000
    6        9.070205   1.000000
    7       10.111492   0.000000
    8       10.487692   0.000000
    9       10.554444   0.000000
   10       15.145792   0.000000
   11       16.080379   0.000000
   12       16.267724   0.000000
   13       16.785137   0.000000
   14       18.445133   0.000000
   15       27.489125   0.000000
   16       29.069490   0.000000
   17       29.312272   0.000000
   18       31.294969   0.000000

  0.1764706E+00  0.5882353E-01  0.3742002E-15  0.4070832E-03
    1       -4.802287   1.000000
    2        2.891749   1.000000
    3        4.329558   1.000000
    4        4.480394   1.000000
    5        5.064185   1.000000
    6        8.866698   1.000000
    7        9.581032  -0.006358
    8       10.291841   0.000000
    9       11.220434   0.000000
   10       15.387306   0.000000
   11       15.718868   0.000000
   12       17.222801   0.000000
   13       18.109171   0.000000
   14       18.726010   0.000000
   15       28.079737   0.000000
   16       28.990084   0.000000
   17       30.758009   0.000000
   18       31.004542   0.000000

  0.2352941E+00  0.5882353E-01  0.3742002E-15  0.4070832E-03
    1       -4.294909   1.000000
    2        2.098978   1.000000
    3        3.972637   1.000000
    4        4.350145   1.000000
    5        5.263460   1.000000
    6        8.639881   1.000000
    7        9.355593   0.058087
    8       10.340510   0.000000
    9       11.700921   0.000000
   10       15.513165   0.000000
   11       15.522488   0.000000
   12       18.371396   0.000000
   13       18.924977   0.000000
   14       19.582561   0.000000
   15       28.269222   0.000000
   16       28.518759   0.000000
   17       29.945308   0.000000
   18       30.770725   0.000000

  0.2941176E+00  0.5882353E-01  0.3742002E-15  0.4070832E-03
    1       -3.688931   1.000000
    2        1.256945   1.000000
    3        3.683754   1.000000
    4        4.137311   1.000000
    5        5.350092   1.000000
    6        8.419268   1.000000
    7        9.507947  -0.012176
    8       10.594857   0.000000
    9       11.843848   0.000000
   10       15.572838   0.000000
   11       15.819113   0.000000
   12       18.380842   0.000000
   13       19.986801   0.000000
   14       21.104988   0.000000
   15       27.337072   0.000000
   16       28.094424   0.000000
   17       28.480939   0.000000
   18       30.774006   0.000000

  0.3529412E+00  0.5882353E-01  0.3742002E-15  0.4070832E-03
    1       -3.001542   1.000000
    2        0.394008   1.000000
    3        3.474476   1.000000
    4        3.915072   1.000000
    5        5.337405   1.000000
    6        8.234225   1.000000
    7        9.930068  -0.014646
    8       10.952146   0.000000
    9       11.759202   0.000000
   10       15.602781   0.000000
   11       16.427367   0.000000
   12       17.839653   0.000000
   13       21.252291   0.000000
   14       22.566523   0.000000
   15       26.602357   0.000000
   16       27.087012   0.000000
   17       27.256059   0.000000
   18       31.341553   0.000000

  0.4117647E+00  0.5882353E-01  0.3742002E-15  0.4070832E-03
    1       -2.262144   1.000000
    2       -0.453926   1.000000
    3        3.348639   1.000000
    4        3.752968   1.000000
    5        5.295539   1.000000
    6        8.110822   1.000000
    7       10.373644   0.000000
    8       11.274199   0.000000
    9       11.641353   0.000000
   10       15.633392   0.000000
   11       17.004728   0.000000
   12       17.241190   0.000000
   13       22.271307   0.000000
   14       23.730860   0.000000
   15       26.172595   0.000000
   16       26.242459   0.000000
   17       26.450966   0.000000
   18       30.473005   0.000000

  0.4705882E+00  0.5882353E-01  0.3742002E-15  0.4070832E-03
    1       -1.704524   1.000000
    2       -1.048355   1.000000
    3        3.306700   1.000000
    4        3.694269   1.000000
    5        5.276066   1.000000
    6        8.067456   1.000000
    7       10.563839   0.000000
    8       11.409549   0.000000
    9       11.592933   0.000000
   10       15.657633   0.000000
   11       16.964134   0.000000
   12       17.243702   0.000000
   13       22.698975   0.000000
   14       24.167446   0.000000
   15       25.914730   0.000000
   16       26.095164   0.000000
   17       26.160143   0.000000
   18       29.966340   0.000000

 -0.4705882E+00  0.5882353E-01  0.3742002E-15  0.4070832E-03
    1       -2.262144   1.000000
    2       -0.453925   1.000000
    3        3.348638   1.000000
    4        3.752966   1.000000
    5        5.295540   1.000000
    6        8.110823   1.000000
    7       10.373647   0.000000
    8       11.274196   0.000000
    9       11.641353   0.000000
   10       15.633392   0.000000
   11       17.004729   0.000000
   12       17.241189   0.000000
   13       22.271305   0.000000
   14       23.730861   0.000000
   15       26.172594   0.000000
   16       26.242458   0.000000
   17       26.450969   0.000000
   18       30.481594   0.000000

 -0.4117647E+00  0.5882353E-01  0.3742002E-15  0.4070832E-03
    1       -3.001542   1.000000
    2        0.394009   1.000000
    3        3.474475   1.000000
    4        3.915070   1.000000
    5        5.337405   1.000000
    6        8.234226   1.000000
    7        9.930073  -0.017085
    8       10.952142   0.000000
    9       11.759201   0.000000
   10       15.602781   0.000000
   11       16.427369   0.000000
   12       17.839652   0.000000
   13       21.252287   0.000000
   14       22.566527   0.000000
   15       26.602367   0.000000
   16       27.087024   0.000000
   17       27.256044   0.000000
   18       31.312124   0.000000

 -0.3529412E+00  0.5882353E-01  0.3742002E-15  0.4070832E-03
    1       -3.688931   1.000000
    2        1.256947   1.000000
    3        3.683752   1.000000
    4        4.137307   1.000000
    5        5.350093   1.000000
    6        8.419271   1.000000
    7        9.507953  -0.008226
    8       10.594852   0.000000
    9       11.843847   0.000000
   10       15.572840   0.000000
   11       15.819115   0.000000
   12       18.380840   0.000000
   13       19.986794   0.000000
   14       21.104995   0.000000
   15       27.337071   0.000000
   16       28.094422   0.000000
   17       28.480947   0.000000
   18       30.772246   0.000000

 -0.2941176E+00  0.5882353E-01  0.3742002E-15  0.4070832E-03
    1       -4.294909   1.000000
    2        2.098981   1.000000
    3        3.972636   1.000000
    4        4.350140   1.000000
    5        5.263461   1.000000
    6        8.639884   1.000000
    7        9.355599   0.054593
    8       10.340504   0.000000
    9       11.700920   0.000000
   10       15.513166   0.000000
   11       15.522489   0.000000
   12       18.371394   0.000000
   13       18.924969   0.000000
   14       19.582570   0.000000
   15       28.269216   0.000000
   16       28.518747   0.000000
   17       29.945391   0.000000
   18       30.775206   0.000000

 -0.2352941E+00  0.5882353E-01  0.3742002E-15  0.4070832E-03
    1       -4.802287   1.000000
    2        2.891753   1.000000
    3        4.329557   1.000000
    4        4.480390   1.000000
    5        5.064185   1.000000
    6        8.866702   1.000000
    7        9.581038  -0.005533
    8       10.291835   0.000000
    9       11.220432   0.000000
   10       15.387309   0.000000
   11       15.718869   0.000000
   12       17.222795   0.000000
   13       18.109181   0.000000
   14       18.726006   0.000000
   15       28.079731   0.000000
   16       28.990070   0.000000
   17       30.750828   0.000000
   18       30.993767   0.000000

 -0.1764706E+00  0.5882353E-01  0.3742002E-15  0.4070832E-03
    1       -5.196990   1.000000
    2        3.595258   1.000000
    3        4.482317   1.000000
    4        4.726688   1.000000
    5        4.846237   1.000000
    6        9.070209   1.000000
    7       10.111497   0.000000
    8       10.487685   0.000000
    9       10.554442   0.000000
   10       15.145793   0.000000
   11       16.080373   0.000000
   12       16.267725   0.000000
   13       16.785147   0.000000
   14       18.445129   0.000000
   15       27.489106   0.000000
   16       29.069456   0.000000
   17       29.312275   0.000000
   18       31.295505   0.000000

 -0.1176471E+00  0.5882353E-01  0.3742002E-15  0.4070832E-03
    1       -5.467348   1.000000
    2        4.144898   1.000000
    3        4.374310   1.000000
    4        4.715777   1.000000
    5        5.104305   1.000000
    6        9.222724   0.981360
    7        9.928489   0.000000
    8       10.748419   0.000000
    9       10.885197   0.000000
   10       14.737559   0.000000
   11       15.159973   0.000000
   12       15.771963   0.000000
   13       16.902964   0.000000
   14       18.137139   0.000000
   15       27.025483   0.000000
   16       27.915136   0.000000
   17       28.897137   0.000000
   18       31.255551   0.000000

 -0.5882353E-01  0.5882353E-01  0.3742002E-15  0.4070832E-03
    1       -5.604822   1.000000
    2        4.276966   1.000000
    3        4.458442   1.000000
    4        4.659999   1.000000
    5        5.353365   1.000000
    6        9.299106   0.591843
    7        9.544182  -0.011343
    8       11.213606   0.000000
    9       11.281651   0.000000
   10       14.343374   0.000000
   11       14.535920   0.000000
   12       15.267361   0.000000
   13       17.340061   0.000000
   14       17.949006   0.000000
   15       26.773800   0.000000
   16       27.091741   0.000000
   17       28.774251   0.000000
   18       31.156882   0.000000

  0.3742002E-15  0.1176471E+00  0.3742002E-15  0.4070832E-03
    1       -5.399239   1.000000
    2        3.980404   1.000000
    3        4.438515   1.000000
    4        4.739591   1.000000
    5        4.995917   1.000000
    6        9.207487   0.994133
    7       10.076646   0.000000
    8       10.526447   0.000000
    9       10.788591   0.000000
   10       14.777767   0.000000
   11       15.564609   0.000000
   12       15.975355   0.000000
   13       16.720529   0.000000
   14       18.218877   0.000000
   15       27.163133   0.000000
   16       28.273863   0.000000
   17       28.951214   0.000000
   18       31.289706   0.000000

  0.5882353E-01  0.1176471E+00  0.3742002E-15  0.4070832E-03
    1       -5.196990   1.000000
    2        3.595252   1.000000
    3        4.482320   1.000000
    4        4.726690   1.000000
    5        4.846240   1.000000
    6        9.070205   1.000000
    7       10.111492   0.000000
    8       10.487692   0.000000
    9       10.554444   0.000000
   10       15.145792   0.000000
   11       16.080378   0.000000
   12       16.267724   0.000000
   13       16.785137   0.000000
   14       18.445133   0.000000
   15       27.489188   0.000000
   16       29.069501   0.000000
   17       29.312340   0.000000
   18       31.295765   0.000000

  0.1176471E+00  0.1176471E+00  0.3742002E-15  0.4070832E-03
    1       -4.866633   1.000000
    2        3.062037   1.000000
    3        4.337230   1.000000
    4        4.398863   1.000000
    5        5.119580   1.000000
    6        8.794787   1.000000
    7        9.590248  -0.018091
    8       10.340300   0.000000
    9       11.260304   0.000000
   10       15.609271   0.000000
   11       15.745503   0.000000
   12       16.665579   0.000000
   13       18.020596   0.000000
   14       18.731948   0.000000
   15       27.864256   0.000000
   16       29.040838   0.000000
   17       30.852074   0.000000
   18       30.942487   0.000000

  0.1764706E+00  0.1176471E+00  0.3742002E-15  0.4070832E-03
    1       -4.417567   1.000000
    2        2.417360   1.000000
    3        4.042568   1.000000
    4        4.086436   1.000000
    5        5.475215   1.000000
    6        8.438511   1.000000
    7        9.130990   0.522243
    8       10.470682   0.000000
    9       12.000737   0.000000
   10       15.370777   0.000000
   11       15.860353   0.000000
   12       17.561354   0.000000
   13       18.944860   0.000000
   14       19.432978   0.000000
   15       28.019544   0.000000
   16       28.451877   0.000000
   17       30.038786   0.000000
   18       31.552982   0.000000

  0.2352941E+00  0.1176471E+00  0.3742002E-15  0.4070832E-03
    1       -3.861875   1.000000
    2        1.684878   1.000000
    3        3.686783   1.000000
    4        3.827477   1.000000
    5        5.786299   1.000000
    6        8.059029   1.000000
    7        8.934270   1.051063
    8       10.788107   0.000000
    9       12.528074   0.000000
   10       15.382136   0.000000
   11       15.951054   0.000000
   12       18.438966   0.000000
   13       19.177817   0.000000
   14       20.902196   0.000000
   15       27.497225   0.000000
   16       27.569322   0.000000
   17       28.811763   0.000000
   18       31.317347   0.000000

  0.2941176E+00  0.1176471E+00  0.3742002E-15  0.4070832E-03
    1       -3.214142   1.000000
    2        0.886501   1.000000
    3        3.355697   1.000000
    4        3.636397   1.000000
    5        5.941738   1.000000
    6        7.711707   1.000000
    7        9.112809   0.659524
    8       11.127789   0.000000
    9       12.692786   0.000000
   10       15.873752   0.000000
   11       16.001782   0.000000
   12       18.382899   0.000000
   13       20.176229   0.000000
   14       22.296031   0.000000
   15       26.621458   0.000000
   16       26.669793   0.000000
   17       27.583286   0.000000
   18       30.768049   0.000000

  0.3529412E+00  0.1176471E+00  0.3742002E-15  0.4070832E-03
    1       -2.493652   1.000000
    2        0.053321   1.000000
    3        3.109611   1.000000
    4        3.514101   1.000000
    5        5.956931   1.000000
    6        7.446804   1.000000
    7        9.584247   0.011623
    8       11.296719   0.000000
    9       12.658305   0.000000
   10       16.110249   0.000000
   11       16.560139   0.000000
   12       17.961294   0.000000
   13       21.334129   0.000000
   14       23.376222   0.000000
   15       25.642056   0.000000
   16       26.126872   0.000000
   17       26.677525   0.000000
   18       29.892992   0.000000

  0.4117647E+00  0.1176471E+00  0.3742002E-15  0.4070832E-03
    1       -1.751240   1.000000
    2       -0.749983   1.000000
    3        2.980308   1.000000
    4        3.455355   1.000000
    5        5.932773   1.000000
    6        7.303443   1.000000
    7       10.063941   0.000000
    8       11.228753   0.000000
    9       12.606681   0.000000
   10       16.280197   0.000000
   11       17.048579   0.000000
   12       17.581104   0.000000
   13       22.187234   0.000000
   14       23.791942   0.000000
   15       25.014305   0.000000
   16       25.851892   0.000000
   17       26.406804   0.000000
   18       29.122868   0.000000

  0.4705882E+00  0.1176471E+00  0.3742002E-15  0.4070832E-03
    1       -1.751240   1.000000
    2       -0.749982   1.000000
    3        2.980307   1.000000
    4        3.455355   1.000000
    5        5.932773   1.000000
    6        7.303444   1.000000
    7       10.063943   0.000000
    8       11.228751   0.000000
    9       12.606681   0.000000
   10       16.280197   0.000000
   11       17.048579   0.000000
   12       17.581103   0.000000
   13       22.187232   0.000000
   14       23.791941   0.000000
   15       25.014303   0.000000
   16       25.851885   0.000000
   17       26.406805   0.000000
   18       29.122850   0.000000

 -0.4705882E+00  0.1176471E+00  0.3742002E-15  0.4070832E-03
    1       -2.493652   1.000000
    2        0.053323   1.000000
    3        3.109608   1.000000
    4        3.514099   1.000000
    5        5.956932   1.000000
    6        7.446807   1.000000
    7        9.584252   0.019960
    8       11.296716   0.000000
    9       12.658304   0.000000
   10       16.110249   0.000000
   11       16.560141   0.000000
   12       17.961293   0.000000
   13       21.334125   0.000000
   14       23.376225   0.000000
   15       25.642053   0.000000
   16       26.126855   0.000000
   17       26.677530   0.000000
   18       29.892830   0.000000

 -0.4117647E+00  0.1176471E+00  0.3742002E-15  0.4070832E-03
    1       -3.214142   1.000000
    2        0.886505   1.000000
    3        3.355691   1.000000
    4        3.636395   1.000000
    5        5.941738   1.000000
    6        7.711710   1.000000
    7        9.112814   0.648145
    8       11.127784   0.000000
    9       12.692785   0.000000
   10       15.873754   0.000000
   11       16.001783   0.000000
   12       18.382896   0.000000
   13       20.176223   0.000000
   14       22.296037   0.000000
   15       26.621455   0.000000
   16       26.669773   0.000000
   17       27.583294   0.000000
   18       30.768687   0.000000

 -0.3529412E+00  0.1176471E+00  0.3742002E-15  0.4070832E-03
    1       -3.861875   1.000000
    2        1.684883   1.000000
    3        3.686776   1.000000
    4        3.827474   1.000000
    5        5.786299   1.000000
    6        8.059033   1.000000
    7        8.934276   1.031447
    8       10.788101   0.000000
    9       12.528073   0.000000
   10       15.382139   0.000000
   11       15.951057   0.000000
   12       18.438963   0.000000
   13       19.177809   0.000000
   14       20.902204   0.000000
   15       27.497183   0.000000
   16       27.569266   0.000000
   17       28.811699   0.000000
   18       31.296701   0.000000

 -0.2941176E+00  0.1176471E+00  0.3742002E-15  0.4070832E-03
    1       -4.417566   1.000000
    2        2.417367   1.000000
    3        4.042560   1.000000
    4        4.086433   1.000000
    5        5.475215   1.000000
    6        8.438516   1.000000
    7        9.130996   0.550010
    8       10.470675   0.000000
    9       12.000736   0.000000
   10       15.370779   0.000000
   11       15.860357   0.000000
   12       17.561348   0.000000
   13       18.944853   0.000000
   14       19.432988   0.000000
   15       28.019545   0.000000
   16       28.451889   0.000000
   17       30.037812   0.000000
   18       31.575138   0.000000

 -0.2352941E+00  0.1176471E+00  0.3742002E-15  0.4070832E-03
    1       -4.866633   1.000000
    2        3.062044   1.000000
    3        4.337223   1.000000
    4        4.398860   1.000000
    5        5.119579   1.000000
    6        8.794792   1.000000
    7        9.590254  -0.013483
    8       10.340292   0.000000
    9       11.260303   0.000000
   10       15.609275   0.000000
   11       15.745504   0.000000
   12       16.665574   0.000000
   13       18.020607   0.000000
   14       18.731942   0.000000
   15       27.864246   0.000000
   16       29.040838   0.000000
   17       30.864088   0.000000
   18       30.997307   0.000000

 -0.1764706E+00  0.1176471E+00  0.3742002E-15  0.4070832E-03
    1       -5.196990   1.000000
    2        3.595259   1.000000
    3        4.482317   1.000000
    4        4.726687   1.000000
    5        4.846235   1.000000
    6        9.070210   1.000000
    7       10.111495   0.000000
    8       10.487686   0.000000
    9       10.554442   0.000000
   10       15.145792   0.000000
   11       16.080376   0.000000
   12       16.267725   0.000000
   13       16.785147   0.000000
   14       18.445128   0.000000
   15       27.489103   0.000000
   16       29.069447   0.000000
   17       29.312277   0.000000
   18       31.295104   0.000000

 -0.1176471E+00  0.1176471E+00  0.3742002E-15  0.4070832E-03
    1       -5.399238   1.000000
    2        3.980409   1.000000
    3        4.438516   1.000000
    4        4.739586   1.000000
    5        4.995915   1.000000
    6        9.207491   0.997069
    7       10.076644   0.000000
    8       10.526447   0.000000
    9       10.788588   0.000000
   10       14.777764   0.000000
   11       15.564613   0.000000
   12       15.975359   0.000000
   13       16.720529   0.000000
   14       18.218874   0.000000
   15       27.163128   0.000000
   16       28.273872   0.000000
   17       28.951214   0.000000
   18       31.289721   0.000000

 -0.5882353E-01  0.1176471E+00  0.3742002E-15  0.4070832E-03
    1       -5.467348   1.000000
    2        4.144896   1.000000
    3        4.374310   1.000000
    4        4.715778   1.000000
    5        5.104306   1.000000
    6        9.222723   0.981360
    7        9.928489   0.000000
    8       10.748418   0.000000
    9       10.885198   0.000000
   10       14.737562   0.000000
   11       15.159969   0.000000
   12       15.771963   0.000000
   13       16.902964   0.000000
   14       18.137139   0.000000
   15       27.025490   0.000000
   16       27.915141   0.000000
   17       28.897150   0.000000
   18       31.255727   0.000000

  0.3742002E-15  0.1764706E+00  0.3742002E-15  0.4070832E-03
    1       -5.064285   1.000000
    2        3.307829   1.000000
    3        4.569589   1.000000
    4        4.625539   1.000000
    5        4.836941   1.000000
    6        9.072620   1.000000
    7        9.896088   0.000000
    8       10.389749   0.000000
    9       10.724373   0.000000
   10       15.096218   0.000000
   11       16.055916   0.000000
   12       16.866361   0.000000
   13       17.035316   0.000000
   14       18.539193   0.000000
   15       27.776880   0.000000
   16       29.097427   0.000000
   17       29.787172   0.000000
   18       31.277321   0.000000

  0.5882353E-01  0.1764706E+00  0.3742002E-15  0.4070832E-03
    1       -4.802287   1.000000
    2        2.891748   1.000000
    3        4.329559   1.000000
    4        4.480395   1.000000
    5        5.064186   1.000000
    6        8.866698   1.000000
    7        9.581032  -0.006358
    8       10.291841   0.000000
    9       11.220433   0.000000
   10       15.387306   0.000000
   11       15.718869   0.000000
   12       17.222801   0.000000
   13       18.109171   0.000000
   14       18.726010   0.000000
   15       28.079757   0.000000
   16       28.990134   0.000000
   17       30.756974   0.000000
   18       31.057031   0.000000

  0.1176471E+00  0.1764706E+00  0.3742002E-15  0.4070832E-03
    1       -4.417567   1.000000
    2        2.417360   1.000000
    3        4.042569   1.000000
    4        4.086436   1.000000
    5        5.475215   1.000000
    6        8.438511   1.000000