    3    3   60    1
  0.8144830E+01  0.3039000E-09  0.3039000E-09  0.3055000E-09  0.5000000E-15
   1.0000000000000000E-004
  CAR 
 Name                                    
     12    216     10

  0.3742002E-15  0.3742002E-15  0.3742002E-15  0.2962963E-03
    1       -5.790658   1.000000
    2        3.930676   1.000000
    3        4.615752   1.000000
    4        4.615754   1.000000
    5        5.026613   1.000000
    6        9.104610  -0.000363
    7        9.104611  -0.000363
    8       11.003047  -0.000000
    9       11.003050  -0.000000
   10       13.804296   0.000000

  0.6666667E-01  0.3766815E-15  0.3742002E-15  0.1777778E-02
    1       -5.703235   1.000000
    2        4.006424   1.000000
    3        4.393769   1.000000
    4        4.648519   1.000000
    5        4.875374   1.000000
    6        9.063891  -0.002321
    7        9.335581  -0.000000
    8       10.622334  -0.000000
    9       10.709939  -0.000000
   10       14.040207   0.000000

  0.1333333E+00  0.3754153E-15  0.3742002E-15  0.1777778E-02
    1       -5.444497   1.000000
    2        3.785155   1.000000
    3        4.217589   1.000000
    4        4.517110   1.000000
    5        4.727599   1.000000
    6        8.951162  -0.035424
    7        9.882509  -0.000000
    8        9.903877  -0.000000
    9       10.214016  -0.000000
   10       14.373749   0.000000

  0.2000000E+00  0.3870416E-15  0.3742002E-15  0.1777778E-02
    1       -5.024477   1.000000
    2        2.956438   1.000000
    3        4.103777   1.000000
    4        4.433440   1.000000
    5        4.803214   1.000000
    6        8.790893   0.805570
    7        9.282490  -0.000000
    8        9.877181  -0.000000
    9       10.550256  -0.000000
   10       14.567138   0.000000

  0.2666667E+00  0.4120044E-15  0.3742002E-15  0.1777778E-02
    1       -4.458044   1.000000
    2        2.003815   1.000000
    3        3.727427   1.000000
    4        4.506813   1.000000
    5        4.826031   1.000000
    6        8.614712   1.004704
    7        9.138448  -0.000058
    8        9.805549  -0.000000
    9       10.972712  -0.000000
   10       14.657709   0.000000

  0.3333333E+00  0.4025434E-15  0.3742002E-15  0.1777778E-02
    1       -3.763587   1.000000
    2        0.995516   1.000000
    3        3.429956   1.000000
    4        4.375287   1.000000
    5        4.787335   1.000000
    6        8.453304   1.000001
    7        9.540137  -0.000000
    8        9.964815  -0.000000
    9       11.001326  -0.000000
   10       14.696887   0.000000

  0.4000000E+00  0.3732510E-15  0.3742002E-15  0.1777778E-02
    1       -2.963710   1.000000
    2       -0.023971   1.000000
    3        3.227952   1.000000
    4        4.167426   1.000000
    5        4.722910   1.000000
    6        8.331567   1.000000
    7       10.222401  -0.000000
    8       10.270575  -0.000000
    9       10.821335  -0.000000
   10       14.716051   0.000000

  0.4666667E+00  0.3915456E-15  0.3742002E-15  0.1777778E-02
    1       -2.109772   1.000000
    2       -0.991042   1.000000
    3        3.126491   1.000000
    4        4.029117   1.000000
    5        4.677528   1.000000
    6        8.266473   1.000000
    7       10.410866  -0.000000
    8       10.676994  -0.000000
    9       10.898309  -0.000000
   10       14.731508   0.000000

  0.6666667E-01  0.6666667E-01  0.3742002E-15  0.1777778E-02
    1       -5.530128   1.000000
    2        3.999165   1.000000
    3        4.134412   1.000000
    4        4.625231   1.000000
    5        4.698955   1.000000
    6        8.964035  -0.033749
    7        9.756255  -0.000000
    8       10.118848  -0.000000
    9       10.300217  -0.000000
   10       14.401196   0.000000

  0.1333333E+00  0.6666667E-01  0.3742002E-15  0.3555556E-02
    1       -5.190591   1.000000
    2        3.321580   1.000000
    3        4.257012   1.000000
    4        4.266678   1.000000
    5        4.817986   1.000000
    6        8.764775   0.942694
    7        9.454003  -0.000000
    8        9.958893  -0.000000
    9       10.429733  -0.000000
   10       14.707137   0.000000

  0.2000000E+00  0.6666667E-01  0.3742002E-15  0.3555556E-02
    1       -4.696893   1.000000
    2        2.468328   1.000000
    3        3.887742   1.000000
    4        4.212761   1.000000
    5        5.043616   1.000000
    6        8.505768   1.000022
    7        8.981856  -0.026887
    8        9.908955  -0.000000
    9       11.087081  -0.000000
   10       15.087465   0.000000

  0.2666667E+00  0.6666667E-01  0.3742002E-15  0.3555556E-02
    1       -4.065352   1.000000
    2        1.516618   1.000000
    3        3.578164   1.000000
    4        3.994534   1.000000
    5        5.216643   1.000000
    6        8.230420   1.000000
    7        8.944671  -0.034373
    8       10.142521  -0.000000
    9       11.435559  -0.000000
   10       15.118625   0.000000

  0.3333333E+00  0.6666667E-01  0.3742002E-15  0.3555556E-02
    1       -3.315617   1.000000
    2        0.517787   1.000000
    3        3.352815   1.000000
    4        3.736315   1.000000
    5        5.237687   1.000000
    6        7.985445   1.000000
    7        9.348487  -0.000000
    8       10.520060  -0.000000
    9       11.428305  -0.000000
   10       14.907100   0.000000

  0.4000000E+00  0.6666667E-01  0.3742002E-15  0.3555556E-02
    1       -2.475386   1.000000
    2       -0.480748   1.000000
    3        3.218160   1.000000
    4        3.541511   1.000000
    5        5.187644   1.000000
    6        7.815724   1.000000
    7        9.919878  -0.000000
    8       10.826602  -0.000000
    9       11.310496  -0.000000
   10       14.980690   0.000000

  0.4666667E+00  0.6666667E-01  0.3742002E-15  0.1777778E-02
    1       -1.762519   1.000000
    2       -1.247962   1.000000
    3        3.173622   1.000000
    4        3.470325   1.000000
    5        5.160479   1.000000
    6        7.754925   1.000000
    7       10.217173  -0.000000
    8       10.916910  -0.000000
    9       11.255727  -0.000000
   10       15.060235   0.000000

  0.1333333E+00  0.1333333E+00  0.3742002E-15  0.1777778E-02
    1       -4.777019   1.000000
    2        2.700746   1.000000
    3        3.959014   1.000000
    4        4.015893   1.000000
    5        5.129903   1.000000
    6        8.387790   1.000000
    7        8.915411  -0.002300
    8        9.972500  -0.000000
    9       11.220020  -0.000000
   10       15.066173   0.000000

  0.2000000E+00  0.1333333E+00  0.3742002E-15  0.3555556E-02
    1       -4.216986   1.000000
    2        1.948069   1.000000
    3        3.572498   1.000000
    4        3.700733   1.000000
    5        5.550392   1.000000
    6        7.920292   1.000000
    7        8.507762   1.000025
    8       10.298503  -0.000000
    9       11.999532   0.000000
   10       14.793573   0.000000

  0.2666667E+00  0.1333333E+00  0.3742002E-15  0.3555556E-02
    1       -3.527355   1.000000
    2        1.076563   1.000000
    3        3.135239   1.000000
    4        3.515297   1.000000
    5        5.848535   1.000000
    6        7.457589   1.000000
    7        8.504929   1.000021
    8       10.708366  -0.000000
    9       12.425544   0.000000
   10       15.067696   0.000000

  0.3333333E+00  0.1333333E+00  0.3742002E-15  0.3555556E-02
    1       -2.729040   1.000000
    2        0.126726   1.000000
    3        2.813818   1.000000
    4        3.405548   1.000000
    5        5.916503   1.000000
    6        7.086967   1.000000
    7        8.970198  -0.031756
    8       10.902938  -0.000000
    9       12.478400   0.000000
   10       15.764275   0.000000

  0.4000000E+00  0.1333333E+00  0.3742002E-15  0.3555556E-02
    1       -1.861256   1.000000
    2       -0.827997   1.000000
    3        2.647875   1.000000
    4        3.357775   1.000000
    5        5.889928   1.000000
    6        6.880327   1.000000
    7        9.579237  -0.000000
    8       10.742592  -0.000000
    9       12.438472   0.000000
   10       15.811219   0.000000

  0.2000000E+00  0.2000000E+00  0.3742002E-15  0.1777778E-02
    1       -3.597968   1.000000
    2        1.387519   1.000000
    3        2.807755   1.000000
    4        3.593897   1.000000
    5        6.156030   1.000000
    6        7.236143   1.000000
    7        8.105505   1.000000
    8       10.774170  -0.000000
    9       13.019923   0.000000
   10       14.638609   0.000000

  0.2666667E+00  0.2000000E+00  0.3742002E-15  0.3555556E-02
    1       -2.857025   1.000000
    2        0.697435   1.000000
    3        2.174065   1.000000
    4        3.577127   1.000000
    5        6.602630   1.000000
    6        6.616877   1.000000
    7        8.092549   1.000000
    8       10.955174  -0.000000
    9       13.647874   0.000000
   10       14.995932   0.000000

  0.3333333E+00  0.2000000E+00  0.3742002E-15  0.3555556E-02
    1       -2.017331   1.000000
    2       -0.160407   1.000000
    3        1.815709   1.000000
    4        3.618138   1.000000
    5        6.141153   1.000000
    6        6.702459   1.000000
    7        8.651916   1.015118
    8       10.652503  -0.000000
    9       13.726929   0.000000
   10       15.809787   0.000000

  0.4000000E+00  0.2000000E+00  0.3742002E-15  0.1777778E-02
    1       -1.202751   1.000000
    2       -0.994766   1.000000
    3        1.705940   1.000000
    4        3.646890   1.000000
    5        5.967557   1.000000
    6        6.683704   1.000000
    7        9.138642  -0.000058
    8       10.275265  -0.000000
    9       13.717384   0.000000
   10       16.217426   0.000000

  0.2666667E+00  0.2666667E+00  0.3742002E-15  0.1777778E-02
    1       -2.073376   1.000000
    2        0.310776   1.000000
    3        1.290726   1.000000
    4        3.765584   1.000000
    5        5.827258   1.000000
    6        7.432211   1.000000
    7        7.857131   1.000000
    8       10.627210  -0.000000
    9       14.857668   0.000000
   10       14.955553   0.000000

  0.3333333E+00  0.2666667E+00  0.3742002E-15  0.3555556E-02
    1       -1.207940   1.000000
    2       -0.337529   1.000000
    3        0.819833   1.000000
    4        4.003040   1.000000
    5        5.281719   1.000000
    6        7.554274   1.000000
    7        8.434969   1.000000
    8        9.963044  -0.000000
    9       14.888879   0.000000
   10       15.785993   0.000000

  0.3333333E+00  0.3333333E+00  0.3742002E-15  0.5925926E-03
    1       -0.480267   1.000000
    2       -0.480265   1.000000
    3        0.110638   1.000000
    4        4.560902   1.000000
    5        4.560904   1.000000
    6        8.224012   1.000000
    7        8.224013   1.000000
    8        9.453369  -0.000000
    9       15.593970   0.000000
   10       15.593971   0.000000

  0.3742002E-15  0.3742002E-15  0.6666667E-01  0.5925926E-03
    1       -5.733165   1.000000
    2        3.602025   1.000000
    3        4.662201   1.000000
    4        4.662203   1.000000
    5        5.297784   1.000000
    6        8.950680  -0.035398
    7        8.950681  -0.035398
    8       10.883077  -0.000000
    9       10.883080  -0.000000
   10       14.725270   0.000000

  0.6666667E-01  0.3766815E-15  0.6666667E-01  0.3555556E-02
    1       -5.646659   1.000000
    2        3.655995   1.000000
    3        4.432525   1.000000
    4        4.690256   1.000000
    5        5.166310   1.000000
    6        8.883582   0.111659
    7        9.142153  -0.000047
    8       10.614215  -0.000000
    9       10.695303  -0.000000
   10       14.209762   0.000000

  0.1333333E+00  0.3754153E-15  0.6666667E-01  0.3555556E-02
    1       -5.390731   1.000000
    2        3.758282   1.000000
    3        3.820770   1.000000
    4        4.752721   1.000000
    5        4.904952   1.000000
    6        8.725651   1.029191
    7        9.369969  -0.000000
    8       10.312954  -0.000000
    9       10.357361  -0.000000
   10       14.414712   0.000000

  0.2000000E+00  0.3870416E-15  0.6666667E-01  0.3555556E-02
    1       -4.975450   1.000000
    2        2.951107   1.000000
    3        3.791876   1.000000
    4        4.708557   1.000000
    5        4.795909   1.000000
    6        8.582639   1.001293
    7        9.106381  -0.000332
    8       10.096854  -0.000000
    9       10.676302  -0.000000
   10       14.499050   0.000000

  0.2666667E+00  0.4120044E-15  0.6666667E-01  0.3555556E-02
    1       -4.415725   1.000000
    2        1.980787   1.000000
    3        3.645644   1.000000
    4        4.582589   1.000000
    5        4.773143   1.000000
    6        8.524794   1.000069
    7        9.033415  -0.007185
    8        9.988914  -0.000000
    9       11.030888  -0.000000
   10       14.631550   0.000000

  0.3333333E+00  0.4025434E-15  0.6666667E-01  0.3555556E-02
    1       -3.729462   1.000000
    2        0.965062   1.000000
    3        3.451374   1.000000
    4        4.390132   1.000000
    5        4.689459   1.000000
    6        8.515698   1.000041
    7        9.398256  -0.000000
    8       10.062724  -0.000000
    9       11.076965  -0.000000
   10       14.905773   0.000000

  0.4000000E+00  0.3732510E-15  0.6666667E-01  0.3555556E-02
    1       -2.937386   1.000000
    2       -0.054969   1.000000
    3        3.299870   1.000000
    4        4.169802   1.000000
    5        4.592908   1.000000
    6        8.500164   1.000016
    7        9.914158  -0.000000
    8       10.258929  -0.000000
    9       11.113235  -0.000000
   10       14.766753   0.000000

  0.4666667E+00  0.3915456E-15  0.6666667E-01  0.3555556E-02
    1       -2.078205   1.000000
    2       -1.030624   1.000000
    3        3.220579   1.000000
    4        4.030223   1.000000
    5        4.531694   1.000000
    6        8.482482   1.000005
    7       10.114472  -0.000000
    8       10.421757  -0.000000
    9       11.428204  -0.000000
   10       14.554950   0.000000

  0.6666667E-01  0.6666667E-01  0.6666667E-01  0.3555556E-02
    1       -5.475416   1.000000
    2        3.739314   1.000000
    3        4.034777   1.000000
    4        4.648846   1.000000
    5        5.037386   1.000000
    6        8.706603   1.035440
    7        9.457736  -0.000000
    8       10.239125  -0.000000
    9       10.495203  -0.000000
   10       14.498565   0.000000

  0.1333333E+00  0.6666667E-01  0.6666667E-01  0.7111111E-02
    1       -5.139673   1.000000
    2        3.340010   1.000000
    3        3.803182   1.000000
    4        4.440123   1.000000
    5        5.063541   1.000000
    6        8.401178   1.000000
    7        9.517327  -0.000000
    8        9.960931  -0.000000
    9       10.621483  -0.000000
   10       14.719994   0.000000

  0.2000000E+00  0.6666667E-01  0.6666667E-01  0.7111111E-02
    1       -4.651764   1.000000
    2        2.462402   1.000000
    3        3.714398   1.000000
    4        4.224702   1.000000
    5        5.170747   1.000000
    6        8.133820   1.000000
    7        9.255807  -0.000000
    8        9.948576  -0.000000
    9       11.125723  -0.000000
   10       14.714323   0.000000

  0.2666667E+00  0.6666667E-01  0.6666667E-01  0.7111111E-02
    1       -4.027863   1.000000
    2        1.494122   1.000000
    3        3.535413   1.000000
    4        3.987357   1.000000
    5        5.212075   1.000000
    6        8.051889   1.000000
    7        9.197399  -0.000001
    8       10.118943  -0.000000
    9       11.435351  -0.000000
   10       14.905586   0.000000

  0.3333333E+00  0.6666667E-01  0.6666667E-01  0.7111111E-02
    1       -3.286756   1.000000
    2        0.489349   1.000000
    3        3.381258   1.000000
    4        3.733052   1.000000
    5        5.131428   1.000000
    6        8.063954   1.000000
    7        9.451774  -0.000000
    8       10.397628  -0.000000
    9       11.498735  -0.000000
   10       14.991121   0.000000

  0.4000000E+00  0.6666667E-01  0.6666667E-01  0.7111111E-02
    1       -2.452170   1.000000
    2       -0.510402   1.000000
    3        3.291637   1.000000
    4        3.536073   1.000000
    5        5.023750   1.000000
    6        8.030232   1.000000
    7        9.929335  -0.000000
    8       10.530197  -0.000000
    9       11.593695   0.000000
   10       14.860091   0.000000

  0.4666667E+00  0.6666667E-01  0.6666667E-01  0.3555556E-02
    1       -1.702164   1.000000
    2       -1.316661   1.000000
    3        3.265614   1.000000
    4        3.460400   1.000000
    5        4.978518   1.000000
    6        8.006050   1.000000
    7       10.233203  -0.000000
    8       10.476381  -0.000000
    9       11.682423   0.000000
   10       14.787773   0.000000

  0.1333333E+00  0.1333333E+00  0.6666667E-01  0.3555556E-02
    1       -4.730976   1.000000
    2        2.719841   1.000000
    3        3.707786   1.000000
    4        4.020750   1.000000
    5        5.363432   1.000000
    6        7.878717   1.000000
    7        9.406210  -0.000000
    8        9.895930  -0.000000
    9       11.232790  -0.000000
   10       14.960456   0.000000

  0.2000000E+00  0.1333333E+00  0.6666667E-01  0.7111111E-02
    1       -4.177856   1.000000
    2        1.950854   1.000000
    3        3.399436   1.000000
    4        3.744924   1.000000
    5        5.687114   1.000000
    6        7.448557   1.000000
    7        9.026989  -0.008844
    8       10.258012  -0.000000
    9       11.919538   0.000000
   10       14.693852   0.000000

  0.2666667E+00  0.1333333E+00  0.6666667E-01  0.7111111E-02
    1       -3.496896   1.000000
    2        1.060850   1.000000
    3        3.050200   1.000000
    4        3.573504   1.000000
    5        5.791666   1.000000
    6        7.329026   1.000000
    7        8.851834   0.321227
    8       10.648156  -0.000000
    9       12.333026   0.000000
   10       14.878288   0.000000

  0.3333333E+00  0.1333333E+00  0.6666667E-01  0.7111111E-02
    1       -2.707690   1.000000
    2        0.103653   1.000000
    3        2.783908   1.000000
    4        3.474392   1.000000
    5        5.645418   1.000000
    6        7.358408   1.000000
    7        9.106685  -0.000326
    8       10.809207  -0.000000
    9       12.466364   0.000000
   10       15.193709   0.000000

  0.4000000E+00  0.1333333E+00  0.6666667E-01  0.7111111E-02
    1       -1.840104   1.000000
    2       -0.857248   1.000000
    3        2.642575   1.000000
    4        3.434028   1.000000
    5        5.509046   1.000000
    6        7.328138   1.000000
    7        9.624895  -0.000000
    8       10.641284  -0.000000
    9       12.494312   0.000000
   10       15.367146   0.000000

  0.2000000E+00  0.2000000E+00  0.6666667E-01  0.3555556E-02
    1       -3.566963   1.000000
    2        1.390600   1.000000
    3        2.709385   1.000000
    4        3.624910   1.000000
    5        6.293484   1.000000
    6        6.784421   1.000000
    7        8.612206   1.004291
    8       10.732028  -0.000000
    9       12.839169   0.000000
   10       14.563602   0.000000

  0.2666667E+00  0.2000000E+00  0.6666667E-01  0.7111111E-02
    1       -2.836041   1.000000
    2        0.686613   1.000000
    3        2.131845   1.000000
    4        3.616106   1.000000
    5        6.128917   1.000000
    6        6.946311   1.000000
    7        8.422361   1.000000
    8       10.909448  -0.000000
    9       13.482461   0.000000
   10       14.834169   0.000000

  0.3333333E+00  0.2000000E+00  0.6666667E-01  0.7111111E-02
    1       -2.006609   1.000000
    2       -0.178412   1.000000
    3        1.809889   1.000000
    4        3.665335   1.000000
    5        5.703878   1.000000
    6        7.183698   1.000000
    7        8.774803   0.898064
    8       10.622227  -0.000000
    9       13.653952   0.000000
   10       15.464411   0.000000

  0.4000000E+00  0.2000000E+00  0.6666667E-01  0.3555556E-02
    1       -1.157888   1.000000
    2       -1.051378   1.000000
    3        1.710827   1.000000
    4        3.699074   1.000000
    5        5.540109   1.000000
    6        7.196314   1.000000
    7        9.203096  -0.000001
    8       10.262863  -0.000000
    9       13.669268   0.000000
   10       15.793201   0.000000

  0.2666667E+00  0.2666667E+00  0.6666667E-01  0.3555556E-02
    1       -2.064498   1.000000
    2        0.295167   1.000000
    3        1.283674   1.000000
    4        3.791667   1.000000
    5        5.621312   1.000000
    6        7.537916   1.000000
    7        8.155201   1.000000
    8       10.609529  -0.000000
    9       14.626071   0.000000
   10       14.880497   0.000000

  0.3333333E+00  0.2666667E+00  0.6666667E-01  0.7111111E-02
    1       -1.214580   1.000000
    2       -0.354058   1.000000
    3        0.837820   1.000000
    4        4.018945   1.000000
    5        5.140170   1.000000
    6        7.778770   1.000000
    7        8.550861   1.000284
    8        9.972525  -0.000000
    9       14.796473   0.000000
   10       15.595417   0.000000

  0.3333333E+00  0.3333333E+00  0.6666667E-01  0.1185185E-02
    1       -0.517131   1.000000
    2       -0.517128   1.000000
    3        0.181533   1.000000
    4        4.523404   1.000000
    5        4.523406   1.000000
    6        8.372759   1.000000
    7        8.372759   1.000000
    8        9.467468  -0.000000
    9       15.479281   0.000000
   10       15.479282   0.000000

  0.3742002E-15  0.3742002E-15  0.1333333E+00  0.5925926E-03
    1       -5.564283   1.000000
    2        2.962436   1.000000
    3        4.801116   1.000000
    4        4.801119   1.000000
    5        5.778971   1.000000
    6        8.576299   1.000973
    7        8.576301   1.000973
    8       10.543799  -0.000000
    9       10.543802  -0.000000
   10       14.669650   0.000000

  0.6666667E-01  0.3766815E-15  0.1333333E+00  0.3555556E-02
    1       -5.480631   1.000000
    2        3.013205   1.000000
    3        4.556201   1.000000
    4        4.813880   1.000000
    5        5.636313   1.000000
    6        8.471234   1.000002
    7        8.716319   1.034168
    8       10.464103  -0.000000
    9       10.551329  -0.000000
   10       14.716992   0.000000

  0.1333333E+00  0.3754153E-15  0.1333333E+00  0.3555556E-02
    1       -5.233356   1.000000
    2        3.124819   1.000000
    3        3.911737   1.000000
    4        4.823693   1.000000
    5        5.354864   1.000000
    6        8.287116   1.000000
    7        8.823966   0.552257
    8       10.515411  -0.000000
    9       10.532306  -0.000000
   10       14.605699   0.000000

  0.2000000E+00  0.3870416E-15  0.1333333E+00  0.3555556E-02
    1       -4.832859   1.000000
    2        2.860458   1.000000
    3        3.422364   1.000000
    4        4.769273   1.000000
    5        5.056379   1.000000
    6        8.233138   1.000000
    7        8.715821   1.034320
    8       10.462483  -0.000000
    9       10.898095  -0.000000
   10       14.372231   0.000000

  0.2666667E+00  0.4120044E-15  0.1333333E+00  0.3555556E-02
    1       -4.294030   1.000000
    2        1.913902   1.000000
    3        3.466393   1.000000
    4        4.625682   1.000000
    5        4.747365   1.000000
    6        8.387606   1.000000
    7        8.751443   0.986678
    8       10.379284  -0.000000
    9       11.218001  -0.000000
   10       14.324875   0.000000

  0.3333333E+00  0.4025434E-15  0.1333333E+00  0.3555556E-02
    1       -3.633898   1.000000
    2        0.895919   1.000000
    3        3.488951   1.000000
    4        4.432782   1.000000
    5        4.438696   1.000000
    6        8.665840   1.021085
    7        9.058234  -0.002913
    8       10.340274  -0.000000
    9       11.304774  -0.000000
   10       14.617431   0.000000

  0.4000000E+00  0.3732510E-15  0.1333333E+00  0.3555556E-02
    1       -2.869595   1.000000
    2       -0.115806   1.000000
    3        3.482225   1.000000
    4        4.167928   1.000000
    5        4.275663   1.000000
    6        8.912588   0.003986
    7        9.388845  -0.000000
    8       10.382253  -0.000000
    9       11.509658  -0.000000
   10       14.573555   0.000000

  0.4666667E+00  0.3915456E-15  0.1333333E+00  0.3555556E-02
    1       -2.018095   1.000000
    2       -1.092864   1.000000
    3        3.472931   1.000000
    4        4.017769   1.000000
    5        4.183474   1.000000
    6        9.034936  -0.006829
    7        9.509199  -0.000000
    8       10.455605  -0.000000
    9       11.960100   0.000000
   10       14.149772   0.000000

  0.6666667E-01  0.6666667E-01  0.1333333E+00  0.3555556E-02
    1       -5.315157   1.000000
    2        3.098937   1.000000
    3        4.139663   1.000000
    4        4.733606   1.000000
    5        5.508461   1.000000
    6        8.199647   1.000000
    7        8.977912  -0.028639
    8       10.318723  -0.000000
    9       10.642889  -0.000000
   10       15.373490   0.000000

  0.1333333E+00  0.6666667E-01  0.1333333E+00  0.7111111E-02
    1       -4.991189   1.000000
    2        3.164082   1.000000
    3        3.465415   1.000000
    4        4.495620   1.000000
    5        5.482093   1.000000
    6        7.838178   1.000000
    7        9.173504  -0.000007
    8       10.251046  -0.000000
    9       10.871290  -0.000000
   10       14.763085   0.000000

  0.2000000E+00  0.6666667E-01  0.1333333E+00  0.7111111E-02
    1       -4.521261   1.000000
    2        2.425666   1.000000
    3        3.385089   1.000000
    4        4.222970   1.000000
    5        5.407059   1.000000
    6        7.681810   1.000000
    7        9.246139  -0.000000
    8       10.244914  -0.000000
    9       11.252377  -0.000000
   10       14.469909   0.000000

  0.2666667E+00  0.6666667E-01  0.1333333E+00  0.7111111E-02
    1       -3.921303   1.000000
    2        1.437416   1.000000
    3        3.423812   1.000000
    4        3.955438   1.000000
    5        5.179440   1.000000
    6        7.862241   1.000000
    7        9.420471  -0.000000
    8       10.228839  -0.000000
    9       11.515634  -0.000000
   10       14.497770   0.000000

  0.3333333E+00  0.6666667E-01  0.1333333E+00  0.7111111E-02
    1       -3.208418   1.000000
    2        0.428838   1.000000
    3        3.430718   1.000000
    4        3.718850   1.000000
    5        4.892657   1.000000
    6        8.227058   1.000000
    7        9.650313  -0.000000
    8       10.257859  -0.000000
    9       11.672970   0.000000
   10       14.677145   0.000000

  0.4000000E+00  0.6666667E-01  0.1333333E+00  0.7111111E-02
    1       -2.399671   1.000000
    2       -0.562259   1.000000
    3        3.425426   1.000000
    4        3.560262   1.000000
    5        4.672491   1.000000
    6        8.490924   1.000009
    7        9.886501  -0.000000
    8       10.280016  -0.000000
    9       11.960348   0.000000
   10       14.480727   0.000000

  0.4666667E+00  0.6666667E-01  0.1333333E+00  0.3555556E-02
    1       -1.525514   1.000000
    2       -1.497908   1.000000
    3        3.414828   1.000000
    4        3.513268   1.000000
    5        4.591014   1.000000
    6        8.564773   1.000567
    7       10.007672  -0.000000
    8       10.280186  -0.000000
    9       12.166820   0.000000
   10       14.277401   0.000000

  0.1333333E+00  0.1333333E+00  0.1333333E+00  0.3555556E-02
    1       -4.597590   1.000000
    2        2.774927   1.000000
    3        3.217723   1.000000
    4        4.027732   1.000000
    5        5.815055   1.000000
    6        7.216531   1.000000
    7        9.664563  -0.000000
    8        9.976459  -0.000000
    9       11.306254  -0.000000
   10       14.805667   0.000000

  0.2000000E+00  0.1333333E+00  0.1333333E+00  0.7111111E-02
    1       -4.065959   1.000000
    2        1.955424   1.000000
    3        3.091752   1.000000
    4        3.758720   1.000000
    5        5.935373   1.000000
    6        6.942105   1.000000
    7        9.688286  -0.000000
    8       10.137426  -0.000000
    9       11.814314   0.000000
   10       14.493406   0.000000

  0.2666667E+00  0.1333333E+00  0.1333333E+00  0.7111111E-02
    1       -3.412339   1.000000
    2        1.023726   1.000000
    3        2.896584   1.000000
    4        3.650204   1.000000
    5        5.573949   1.000000
    6        7.327631   1.000000
    7        9.506539  -0.000000
    8       10.471375  -0.000000
    9       12.202215   0.000000
   10       14.541504   0.000000

  0.3333333E+00  0.1333333E+00  0.1333333E+00  0.7111111E-02
    1       -2.654058   1.000000
    2        0.057851   1.000000
    3        2.722999   1.000000
    4        3.623731   1.000000
    5        5.178996   1.000000
    6        7.822580   1.000000
    7        9.503356  -0.000000
    8       10.575727  -0.000000
    9       12.468099   0.000000
   10       14.713719   0.000000

  0.4000000E+00  0.1333333E+00  0.1333333E+00  0.7111111E-02
    1       -1.809578   1.000000
    2       -0.896165   1.000000
    3        2.624480   1.000000
    4        3.633879   1.000000
    5        4.944028   1.000000
    6        8.069493   1.000000
    7        9.767548  -0.000000
    8       10.419931  -0.000000
    9       12.625867   0.000000
   10       14.757961   0.000000

  0.2000000E+00  0.2000000E+00  0.1333333E+00  0.3555556E-02
    1       -3.480352   1.000000
    2        1.398459   1.000000
    3        2.500870   1.000000
    4        3.667291   1.000000
    5        6.146009   1.000000
    6        6.660609   1.000000
    7        9.395988  -0.000000
    8       10.589867  -0.000000
    9       12.527846   0.000000
   10       14.397053   0.000000

  0.2666667E+00  0.2000000E+00  0.1333333E+00  0.7111111E-02
    1       -2.780974   1.000000
    2        0.659618   1.000000
    3        2.045371   1.000000
    4        3.697571   1.000000
    5        5.589335   1.000000
    6        7.308880   1.000000
    7        9.124263  -0.000129
    8       10.772772  -0.000000
    9       13.162443   0.000000
   10       14.553985   0.000000
