   72   72   85    1
  0.2168974E+02  0.1053953E-08  0.6141200E-09  0.2412750E-08  0.5000000E-15
   1.0000000000000000E-004
  CAR 
 Name                                    
    267     23    176

  0.3742002E-15  0.3742002E-15  0.1262379E-14  0.2222222E-01
    1      -13.960385   1.000000
    2      -12.971918   1.000000
    3      -12.823513   1.000000
    4      -12.429917   1.000000
    5      -11.843499   1.000000
    6      -11.691972   1.000000
    7      -11.631654   1.000000
    8      -11.615395   1.000000
    9      -11.448309   1.000000
   10      -11.216568   1.000000
   11      -11.085502   1.000000
   12      -11.045694   1.000000
   13      -10.824704   1.000000
   14      -10.447740   1.000000
   15      -10.321327   1.000000
   16      -10.225679   1.000000
   17      -10.147146   1.000000
   18      -10.100724   1.000000
   19       -9.879853   1.000000
   20       -9.648641   1.000000
   21       -9.613537   1.000000
   22       -9.523514   1.000000
   23       -9.401044   1.000000
   24       -8.993501   1.000000
   25       -8.927939   1.000000
   26       -8.799593   1.000000
   27       -8.658778   1.000000
   28       -8.444768   1.000000
   29       -8.331407   1.000000
   30       -8.141799   1.000000
   31       -8.080707   1.000000
   32       -7.851739   1.000000
   33       -7.523449   1.000000
   34       -7.491269   1.000000
   35       -7.335500   1.000000
   36       -7.206657   1.000000
   37       -7.102907   1.000000
   38       -6.969072   1.000000
   39       -6.966115   1.000000
   40       -6.794102   1.000000
   41       -6.768467   1.000000
   42       -6.689627   1.000000
   43       -6.550342   1.000000
   44       -6.496647   1.000000
   45       -6.418867   1.000000
   46       -6.323071   1.000000
   47       -6.166644   1.000000
   48       -6.069551   1.000000
   49       -6.034567   1.000000
   50       -6.018405   1.000000
   51       -5.847032   1.000000
   52       -5.779741   1.000000
   53       -5.756202   1.000000
   54       -5.692245   1.000000
   55       -5.626938   1.000000
   56       -5.587306   1.000000
   57       -5.476170   1.000000
   58       -5.392463   1.000000
   59       -5.285868   1.000000
   60       -5.218000   1.000000
   61       -5.188106   1.000000
   62       -5.104544   1.000000
   63       -5.018534   1.000000
   64       -4.865278   1.000000
   65       -4.756133   1.000000
   66       -4.713077   1.000000
   67       -4.639820   1.000000
   68       -4.597083   1.000000
   69       -4.554576   1.000000
   70       -4.517990   1.000000
   71       -4.482724   1.000000
   72       -4.389169   1.000000
   73       -4.290848   1.000000
   74       -4.243933   1.000000
   75       -4.206063   1.000000
   76       -4.156325   1.000000
   77       -4.069918   1.000000
   78       -3.957036   1.000000
   79       -3.916064   1.000000
   80       -3.819932   1.000000
   81       -3.757238   1.000000
   82       -3.745097   1.000000
   83       -3.630295   1.000000
   84       -3.620867   1.000000
   85       -3.467484   1.000000
   86       -3.389274   1.000000
   87       -3.375201   1.000000
   88       -3.338433   1.000000
   89       -3.317245   1.000000
   90       -3.249792   1.000000
   91       -3.224321   1.000000
   92       -3.166056   1.000000
   93       -3.060328   1.000000
   94       -2.980562   1.000000
   95       -2.899010   1.000000
   96       -2.862345   1.000000
   97       -2.740320   1.000000
   98       -2.689120   1.000000
   99       -2.673275   1.000000
  100       -2.564004   1.000000
  101       -2.473385   1.000000
  102       -2.435156   1.000000
  103       -2.359789   1.000000
  104       -2.327731   1.000000
  105       -2.189084   1.000000
  106       -2.185147   1.000000
  107       -2.162418   1.000000
  108       -2.144970   1.000000
  109       -2.016776   1.000000
  110       -2.012437   1.000000
  111       -2.000748   1.000000
  112       -1.823880   1.000000
  113       -1.782025   1.000000
  114       -1.734032   1.000000
  115       -1.466243   1.000000
  116       -1.359022   1.000000
  117       -1.326317   1.000000
  118       -1.272981   1.000000
  119       -1.152210   1.000000
  120       -1.053204   1.000000
  121       -0.951781   1.000000
  122       -0.918960   1.000000
  123       -0.746816   1.000000
  124       -0.657390   1.000001
  125       -0.533815   1.000046
  126       -0.492510   1.000147
  127       -0.366997   1.002811
  128       -0.334640   1.005173
  129       -0.199884   1.029635
  130       -0.190076   1.031580
  131       -0.069102   0.990134
  132       -0.029006   0.919949
  133        0.030591   0.743017
  134        0.095253   0.481861
  135        0.168632   0.197225
  136        0.174741   0.177650
  137        0.225745   0.049572
  138        0.266021  -0.006880
  139        0.333128  -0.035427
  140        0.397188  -0.026245
  141        0.468446  -0.011305
  142        0.616034  -0.000650
  143        0.627017  -0.000499
  144        0.657554  -0.000230
  145        0.755210  -0.000014
  146        0.845502  -0.000001
  147        0.931912  -0.000000
  148        1.014345  -0.000000
  149        1.041669  -0.000000
  150        1.095287  -0.000000
  151        1.143794  -0.000000
  152        1.157218  -0.000000
  153        1.174972  -0.000000
  154        1.215528  -0.000000
  155        1.250414  -0.000000
  156        1.294423  -0.000000
  157        1.316764  -0.000000
  158        1.339608  -0.000000
  159        1.385251  -0.000000
  160        1.409269  -0.000000
  161        1.428904  -0.000000
  162        1.467427  -0.000000
  163        1.496914  -0.000000
  164        1.569223  -0.000000
  165        1.589114  -0.000000
  166        1.619687  -0.000000
  167        1.695505  -0.000000
  168        1.704100  -0.000000
  169        1.757495  -0.000000
  170        1.809707  -0.000000
  171        1.822296  -0.000000
  172        1.948060  -0.000000
  173        1.959651  -0.000000
  174        2.002260  -0.000000
  175        2.050166  -0.000000
  176        2.090389  -0.000000

  0.2000000E+00  0.3742002E-15  0.1262379E-14  0.4444444E-01
    1      -13.920379   1.000000
    2      -13.208751   1.000000
    3      -12.712338   1.000000
    4      -12.190284   1.000000
    5      -12.004789   1.000000
    6      -11.835225   1.000000
    7      -11.657225   1.000000
    8      -11.417274   1.000000
    9      -11.300281   1.000000
   10      -11.227786   1.000000
   11      -11.051830   1.000000
   12      -10.956425   1.000000
   13      -10.816651   1.000000
   14      -10.637429   1.000000
   15      -10.492803   1.000000
   16      -10.339435   1.000000
   17      -10.219548   1.000000
   18      -10.138910   1.000000
   19       -9.815716   1.000000
   20       -9.710241   1.000000
   21       -9.482640   1.000000
   22       -9.439235   1.000000
   23       -9.356431   1.000000
   24       -9.085218   1.000000
   25       -8.949702   1.000000
   26       -8.839194   1.000000
   27       -8.427542   1.000000
   28       -8.322335   1.000000
   29       -8.178736   1.000000
   30       -8.094000   1.000000
   31       -8.058403   1.000000
   32       -8.015906   1.000000
   33       -7.529003   1.000000
   34       -7.473650   1.000000
   35       -7.444075   1.000000
   36       -7.287386   1.000000
   37       -7.164833   1.000000
   38       -7.125477   1.000000
   39       -6.897974   1.000000
   40       -6.842930   1.000000
   41       -6.747216   1.000000
   42       -6.674400   1.000000
   43       -6.632345   1.000000
   44       -6.574086   1.000000
   45       -6.435225   1.000000
   46       -6.254281   1.000000
   47       -6.123097   1.000000
   48       -6.051760   1.000000
   49       -6.020332   1.000000
   50       -5.950034   1.000000
   51       -5.896632   1.000000
   52       -5.794949   1.000000
   53       -5.721675   1.000000
   54       -5.711656   1.000000
   55       -5.553840   1.000000
   56       -5.483898   1.000000
   57       -5.444496   1.000000
   58       -5.387471   1.000000
   59       -5.270748   1.000000
   60       -5.244501   1.000000
   61       -5.187321   1.000000
   62       -5.106986   1.000000
   63       -5.038202   1.000000
   64       -4.844761   1.000000
   65       -4.795980   1.000000
   66       -4.704967   1.000000
   67       -4.647439   1.000000
   68       -4.567356   1.000000
   69       -4.546429   1.000000
   70       -4.493215   1.000000
   71       -4.443123   1.000000
   72       -4.388353   1.000000
   73       -4.327462   1.000000
   74       -4.280684   1.000000
   75       -4.194988   1.000000
   76       -4.142235   1.000000
   77       -4.051197   1.000000
   78       -3.939456   1.000000
   79       -3.892366   1.000000
   80       -3.859829   1.000000
   81       -3.812796   1.000000
   82       -3.762665   1.000000
   83       -3.644846   1.000000
   84       -3.552362   1.000000
   85       -3.464281   1.000000
   86       -3.446633   1.000000
   87       -3.424522   1.000000
   88       -3.360789   1.000000
   89       -3.316216   1.000000
   90       -3.286277   1.000000
   91       -3.176630   1.000000
   92       -3.149610   1.000000
   93       -3.042218   1.000000
   94       -3.020229   1.000000
   95       -2.989757   1.000000
   96       -2.850044   1.000000
   97       -2.761492   1.000000
   98       -2.720797   1.000000
   99       -2.586426   1.000000
  100       -2.554715   1.000000
  101       -2.523434   1.000000
  102       -2.446423   1.000000
  103       -2.321275   1.000000
  104       -2.289647   1.000000
  105       -2.202271   1.000000
  106       -2.167648   1.000000
  107       -2.116221   1.000000
  108       -2.088917   1.000000
  109       -2.016526   1.000000
  110       -1.980317   1.000000
  111       -1.909931   1.000000
  112       -1.843404   1.000000
  113       -1.777759   1.000000
  114       -1.658491   1.000000
  115       -1.493313   1.000000
  116       -1.382215   1.000000
  117       -1.349321   1.000000
  118       -1.281317   1.000000
  119       -1.199140   1.000000
  120       -1.100352   1.000000
  121       -1.002597   1.000000
  122       -0.948756   1.000000
  123       -0.786914   1.000000
  124       -0.704633   1.000000
  125       -0.520608   1.000067
  126       -0.467021   1.000288
  127       -0.382607   1.002047
  128       -0.364232   1.002969
  129       -0.272212   1.013828
  130       -0.248774   1.018604
  131       -0.136417   1.034122
  132       -0.048146   0.958312
  133        0.010626   0.811441
  134        0.084326   0.528076
  135        0.178659   0.165542
  136        0.231787   0.038700
  137        0.236223   0.031283
  138        0.335806  -0.035458
  139        0.369409  -0.032053
  140        0.418535  -0.021326
  141        0.463475  -0.012146
  142        0.580798  -0.001449
  143        0.671571  -0.000159
  144        0.712031  -0.000051
  145        0.793483  -0.000004
  146        0.910882  -0.000000
  147        0.936648  -0.000000
  148        0.990523  -0.000000
  149        1.038198  -0.000000
  150        1.072962  -0.000000
  151        1.113434  -0.000000
  152        1.166002  -0.000000
  153        1.200759  -0.000000
  154        1.238139  -0.000000
  155        1.283228  -0.000000
  156        1.313726  -0.000000
  157        1.342559  -0.000000
  158        1.375218  -0.000000
  159        1.390918  -0.000000
  160        1.424103  -0.000000
  161        1.470789  -0.000000
  162        1.483895  -0.000000
  163        1.537789  -0.000000
  164        1.566405  -0.000000
  165        1.603888  -0.000000
  166        1.649081  -0.000000
  167        1.694654  -0.000000
  168        1.707404  -0.000000
  169        1.774613  -0.000000
  170        1.816069  -0.000000
  171        1.881305  -0.000000
  172        1.917295  -0.000000
  173        1.993585  -0.000000
  174        2.021125  -0.000000
  175        2.083402  -0.000000
  176        2.111778  -0.000000

  0.4000000E+00  0.3742002E-15  0.1262379E-14  0.4444444E-01
    1      -13.821038   1.000000
    2      -13.459841   1.000000
    3      -12.595240   1.000000
    4      -12.265017   1.000000
    5      -11.818766   1.000000
    6      -11.715779   1.000000
    7      -11.700470   1.000000
    8      -11.380221   1.000000
    9      -11.242400   1.000000
   10      -11.171608   1.000000
   11      -11.080771   1.000000
   12      -10.982303   1.000000
   13      -10.806070   1.000000
   14      -10.711876   1.000000
   15      -10.610786   1.000000
   16      -10.518350   1.000000
   17      -10.205460   1.000000
   18      -10.123684   1.000000
   19      -10.030125   1.000000
   20       -9.850800   1.000000
   21       -9.476990   1.000000
   22       -9.394132   1.000000
   23       -9.210298   1.000000
   24       -8.993393   1.000000
   25       -8.871698   1.000000
   26       -8.739729   1.000000
   27       -8.409779   1.000000
   28       -8.228288   1.000000
   29       -8.082079   1.000000
   30       -7.959223   1.000000
   31       -7.891106   1.000000
   32       -7.797103   1.000000
   33       -7.726705   1.000000
   34       -7.657881   1.000000
   35       -7.533168   1.000000
   36       -7.436446   1.000000
   37       -7.315720   1.000000
   38       -7.217742   1.000000
   39       -7.137611   1.000000
   40       -6.911100   1.000000
   41       -6.757310   1.000000
   42       -6.660578   1.000000
   43       -6.561749   1.000000
   44       -6.500985   1.000000
   45       -6.385975   1.000000
   46       -6.222669   1.000000
   47       -6.132388   1.000000
   48       -6.057484   1.000000
   49       -6.040930   1.000000
   50       -5.919881   1.000000
   51       -5.848736   1.000000
   52       -5.817506   1.000000
   53       -5.691996   1.000000
   54       -5.616260   1.000000
   55       -5.577149   1.000000
   56       -5.500100   1.000000
   57       -5.437963   1.000000
   58       -5.332985   1.000000
   59       -5.288456   1.000000
   60       -5.202296   1.000000
   61       -5.134599   1.000000
   62       -5.052485   1.000000
   63       -5.002819   1.000000
   64       -4.874778   1.000000
   65       -4.761003   1.000000
   66       -4.723649   1.000000
   67       -4.659910   1.000000
   68       -4.596516   1.000000
   69       -4.543212   1.000000
   70       -4.494696   1.000000
   71       -4.436077   1.000000
   72       -4.357163   1.000000
   73       -4.323837   1.000000
   74       -4.249669   1.000000
   75       -4.165659   1.000000
   76       -4.084865   1.000000
   77       -3.992933   1.000000
   78       -3.974643   1.000000
   79       -3.942188   1.000000
   80       -3.916869   1.000000
   81       -3.846194   1.000000
   82       -3.731686   1.000000
   83       -3.669532   1.000000
   84       -3.589400   1.000000
   85       -3.538587   1.000000
   86       -3.506055   1.000000
   87       -3.447768   1.000000
   88       -3.389840   1.000000
   89       -3.270358   1.000000
   90       -3.248655   1.000000
   91       -3.167462   1.000000
   92       -3.156792   1.000000
   93       -3.131701   1.000000
   94       -2.987021   1.000000
   95       -2.972080   1.000000
   96       -2.915542   1.000000
   97       -2.886494   1.000000
   98       -2.709736   1.000000
   99       -2.651592   1.000000
  100       -2.583539   1.000000
  101       -2.536984   1.000000
  102       -2.310606   1.000000
  103       -2.287218   1.000000
  104       -2.217946   1.000000
  105       -2.179446   1.000000
  106       -2.075016   1.000000
  107       -2.041967   1.000000
  108       -2.013518   1.000000
  109       -1.986195   1.000000
  110       -1.893924   1.000000
  111       -1.865108   1.000000
  112       -1.773332   1.000000
  113       -1.740421   1.000000
  114       -1.628026   1.000000
  115       -1.595419   1.000000
  116       -1.485077   1.000000
  117       -1.402817   1.000000
  118       -1.345820   1.000000
  119       -1.165201   1.000000
  120       -1.138690   1.000000
  121       -1.052547   1.000000
  122       -1.002652   1.000000
  123       -0.869384   1.000000
  124       -0.801724   1.000000
  125       -0.545630   1.000032
  126       -0.519384   1.000070
  127       -0.420192   1.000899
  128       -0.382671   1.002045
  129       -0.356354   1.003460
  130       -0.321431   1.006510
  131       -0.178864   1.033456
  132       -0.052562   0.965880
  133        0.064648   0.610295
  134        0.119606   0.380179
  135        0.146999   0.272905
  136        0.219713   0.061323
  137        0.293998  -0.026630
  138        0.311718  -0.032815
  139        0.376911  -0.030636
  140        0.439641  -0.016699
  141        0.560578  -0.002222
  142        0.629072  -0.000474
  143        0.713007  -0.000050
  144        0.777798  -0.000007
  145        0.810682  -0.000002
  146        0.845695  -0.000001
  147        0.940570  -0.000000
  148        1.040203  -0.000000
  149        1.089204  -0.000000
  150        1.123806  -0.000000
  151        1.157384  -0.000000
  152        1.174190  -0.000000
  153        1.229856  -0.000000
  154        1.259960  -0.000000
  155        1.293725  -0.000000
  156        1.318659  -0.000000
  157        1.350290  -0.000000
  158        1.377984  -0.000000
  159        1.412583  -0.000000
  160        1.452621  -0.000000
  161        1.497097  -0.000000
  162        1.554930  -0.000000
  163        1.578116  -0.000000
  164        1.629145  -0.000000
  165        1.639148  -0.000000
  166        1.683747  -0.000000
  167        1.704329  -0.000000
  168        1.790512  -0.000000
  169        1.838123  -0.000000
  170        1.853566  -0.000000
  171        1.891688  -0.000000
  172        1.937625  -0.000000
  173        1.967719  -0.000000
  174        2.010553  -0.000000
  175        2.056937  -0.000000
  176        2.119184  -0.000000

  0.3742002E-15  0.1111111E+00  0.1262379E-14  0.4444444E-01
    1      -13.914628   1.000000
    2      -12.932699   1.000000
    3      -12.788850   1.000000
    4      -12.398810   1.000000
    5      -11.939479   1.000000
    6      -11.670133   1.000000
    7      -11.647236   1.000000
    8      -11.599568   1.000000
    9      -11.494409   1.000000
   10      -11.240109   1.000000
   11      -11.095586   1.000000
   12      -11.018191   1.000000
   13      -10.854002   1.000000
   14      -10.446499   1.000000
   15      -10.298126   1.000000
   16      -10.243219   1.000000
   17      -10.142793   1.000000
   18      -10.095572   1.000000
   19       -9.848496   1.000000
   20       -9.675634   1.000000
   21       -9.601250   1.000000
   22       -9.531456   1.000000
   23       -9.393346   1.000000
   24       -9.028401   1.000000
   25       -8.942405   1.000000
   26       -8.783588   1.000000
   27       -8.640601   1.000000
   28       -8.464616   1.000000
   29       -8.331499   1.000000
   30       -8.164798   1.000000
   31       -7.938911   1.000000
   32       -7.863114   1.000000
   33       -7.613389   1.000000
   34       -7.463624   1.000000
   35       -7.421677   1.000000
   36       -7.260698   1.000000
   37       -7.163036   1.000000
   38       -6.955598   1.000000
   39       -6.927916   1.000000
   40       -6.777244   1.000000
   41       -6.735334   1.000000
   42       -6.668919   1.000000
   43       -6.520670   1.000000
   44       -6.485712   1.000000
   45       -6.387547   1.000000
   46       -6.318700   1.000000
   47       -6.174738   1.000000
   48       -6.078461   1.000000
   49       -6.040899   1.000000
   50       -5.975801   1.000000
   51       -5.864838   1.000000
   52       -5.776483   1.000000
   53       -5.740277   1.000000
   54       -5.696954   1.000000
   55       -5.636582   1.000000
   56       -5.551420   1.000000
   57       -5.389366   1.000000
   58       -5.347922   1.000000
   59       -5.291489   1.000000
   60       -5.210853   1.000000
   61       -5.189238   1.000000
   62       -5.062423   1.000000
   63       -4.993813   1.000000
   64       -4.857526   1.000000
   65       -4.763455   1.000000
   66       -4.706191   1.000000
   67       -4.673144   1.000000
   68       -4.618295   1.000000
   69       -4.571703   1.000000
   70       -4.514328   1.000000
   71       -4.484391   1.000000
   72       -4.368001   1.000000
   73       -4.286535   1.000000
   74       -4.215136   1.000000
   75       -4.196587   1.000000
   76       -4.151470   1.000000
   77       -4.079566   1.000000
   78       -3.958423   1.000000
   79       -3.921533   1.000000
   80       -3.852833   1.000000
   81       -3.829038   1.000000
   82       -3.742883   1.000000
   83       -3.685920   1.000000
   84       -3.623650   1.000000
   85       -3.518347   1.000000
   86       -3.500375   1.000000
   87       -3.416438   1.000000
   88       -3.318571   1.000000
   89       -3.284556   1.000000
   90       -3.246311   1.000000
   91       -3.193134   1.000000
   92       -3.150356   1.000000
   93       -3.084438   1.000000
   94       -3.044241   1.000000
   95       -2.949561   1.000000
   96       -2.874572   1.000000
   97       -2.748743   1.000000
   98       -2.706350   1.000000
   99       -2.656670   1.000000
  100       -2.569314   1.000000
  101       -2.532177   1.000000
  102       -2.425262   1.000000
  103       -2.379110   1.000000
  104       -2.316279   1.000000
  105       -2.283310   1.000000
  106       -2.176111   1.000000
  107       -2.165035   1.000000
  108       -2.113054   1.000000
  109       -2.006119   1.000000
  110       -1.978728   1.000000
  111       -1.940982   1.000000
  112       -1.855046   1.000000
  113       -1.712859   1.000000
  114       -1.679719   1.000000
  115       -1.473880   1.000000
  116       -1.386405   1.000000
  117       -1.373264   1.000000
  118       -1.245458   1.000000
  119       -1.207723   1.000000
  120       -1.043970   1.000000
  121       -0.945990   1.000000
  122       -0.871467   1.000000
  123       -0.767787   1.000000
  124       -0.690454   1.000000
  125       -0.588108   1.000009
  126       -0.474395   1.000238
  127       -0.344106   1.004357
  128       -0.314584   1.007302
  129       -0.281972   1.012072
  130       -0.220646   1.025007
  131       -0.128899   1.032601
  132       -0.056386   0.972054
  133        0.059587   0.630977
  134        0.120392   0.376966
  135        0.150815   0.258890
  136        0.221173   0.058396
  137        0.253352   0.006961
  138        0.303684  -0.030530
  139        0.400856  -0.025404
  140        0.434302  -0.017826
  141        0.529343  -0.004098
  142        0.581164  -0.001437
  143        0.684449  -0.000112
  144        0.725287  -0.000035
  145        0.768192  -0.000009
  146        0.841137  -0.000001
  147        0.892324  -0.000000
  148        0.941764  -0.000000
  149        1.030416  -0.000000
  150        1.087432  -0.000000
  151        1.121773  -0.000000
  152        1.155195  -0.000000
  153        1.164870  -0.000000
  154        1.216246  -0.000000
  155        1.258303  -0.000000
  156        1.277995  -0.000000
  157        1.298306  -0.000000
  158        1.355707  -0.000000
  159        1.372684  -0.000000
  160        1.388552  -0.000000
  161        1.457483  -0.000000
  162        1.466556  -0.000000
  163        1.477013  -0.000000
  164        1.521354  -0.000000
  165        1.569159  -0.000000
  166        1.646787  -0.000000
  167        1.669378  -0.000000
  168        1.715738  -0.000000
  169        1.767931  -0.000000
  170        1.792443  -0.000000
  171        1.865690  -0.000000
  172        1.944681  -0.000000
  173        1.953441  -0.000000
  174        1.977645  -0.000000
  175        2.066646  -0.000000
  176        2.154508  -0.000000

  0.2000000E+00  0.1111111E+00  0.1262379E-14  0.4444444E-01
    1      -13.874925   1.000000
    2      -13.169436   1.000000
    3      -12.674943   1.000000
    4      -12.166287   1.000000
    5      -11.978289   1.000000
    6      -11.920377   1.000000
    7      -11.703257   1.000000
    8      -11.455346   1.000000
    9      -11.282824   1.000000
   10      -11.238101   1.000000
   11      -11.066548   1.000000
   12      -10.932855   1.000000
   13      -10.839334   1.000000
   14      -10.625617   1.000000
   15      -10.483671   1.000000
   16      -10.323698   1.000000
   17      -10.237404   1.000000
   18      -10.139873   1.000000
   19       -9.815998   1.000000
   20       -9.695653   1.000000
   21       -9.498884   1.000000
   22       -9.429722   1.000000
   23       -9.350724   1.000000
   24       -9.089889   1.000000
   25       -8.980092   1.000000
   26       -8.826004   1.000000
   27       -8.445691   1.000000
   28       -8.314890   1.000000
   29       -8.194838   1.000000
   30       -8.109639   1.000000
   31       -8.054190   1.000000
   32       -7.884192   1.000000
   33       -7.579541   1.000000
   34       -7.527989   1.000000
   35       -7.460088   1.000000
   36       -7.336204   1.000000
   37       -7.173348   1.000000
   38       -7.065217   1.000000
   39       -6.894374   1.000000
   40       -6.837632   1.000000
   41       -6.754269   1.000000
   42       -6.690715   1.000000
   43       -6.614696   1.000000
   44       -6.568401   1.000000
   45       -6.422666   1.000000
   46       -6.368395   1.000000
   47       -6.153806   1.000000
   48       -6.048772   1.000000
   49       -5.958452   1.000000
   50       -5.901993   1.000000
   51       -5.826894   1.000000
   52       -5.782527   1.000000
   53       -5.738131   1.000000
   54       -5.655088   1.000000
   55       -5.539894   1.000000
   56       -5.473303   1.000000
   57       -5.426953   1.000000
   58       -5.324343   1.000000
   59       -5.289753   1.000000
   60       -5.230299   1.000000
   61       -5.162647   1.000000
   62       -5.077505   1.000000
   63       -5.010439   1.000000
   64       -4.832369   1.000000
   65       -4.782547   1.000000
   66       -4.712186   1.000000
   67       -4.636821   1.000000
   68       -4.600384   1.000000
   69       -4.563626   1.000000
   70       -4.517998   1.000000
   71       -4.411573   1.000000
   72       -4.352846   1.000000
   73       -4.333172   1.000000
   74       -4.277564   1.000000
   75       -4.205573   1.000000
   76       -4.125532   1.000000
   77       -4.044704   1.000000
   78       -3.972743   1.000000
   79       -3.914845   1.000000
   80       -3.897112   1.000000
   81       -3.823078   1.000000
   82       -3.750446   1.000000
   83       -3.679960   1.000000
   84       -3.624848   1.000000
   85       -3.533142   1.000000
   86       -3.495380   1.000000
   87       -3.440475   1.000000
   88       -3.374315   1.000000
   89       -3.292541   1.000000
   90       -3.238323   1.000000
   91       -3.208232   1.000000
   92       -3.165800   1.000000
   93       -3.106337   1.000000
   94       -3.067071   1.000000
   95       -2.994219   1.000000
   96       -2.818367   1.000000
   97       -2.792361   1.000000
   98       -2.705059   1.000000
   99       -2.612230   1.000000
  100       -2.581656   1.000000
  101       -2.489186   1.000000
  102       -2.468370   1.000000
  103       -2.353687   1.000000
  104       -2.289615   1.000000
  105       -2.255484   1.000000
  106       -2.241011   1.000000
  107       -2.107773   1.000000
  108       -2.074871   1.000000
  109       -1.982544   1.000000
  110       -1.951231   1.000000
  111       -1.881086   1.000000
  112       -1.845800   1.000000
  113       -1.747720   1.000000
  114       -1.664493   1.000000
  115       -1.490544   1.000000
  116       -1.425329   1.000000
  117       -1.352996   1.000000
  118       -1.275040   1.000000
  119       -1.226257   1.000000
  120       -1.126857   1.000000
  121       -0.955841   1.000000
  122       -0.892302   1.000000
  123       -0.754961   1.000000
  124       -0.715383   1.000000
  125       -0.646426   1.000001
  126       -0.457173   1.000370
  127       -0.393280   1.001635
  128       -0.321539   1.006498
  129       -0.274975   1.013316
  130       -0.249470   1.018453
  131       -0.166659   1.034891
  132       -0.054067   0.968351
  133        0.062616   0.618628
  134        0.100364   0.460280
  135        0.174492   0.178430
  136        0.208977   0.084496
  137        0.290131  -0.024689
  138        0.356562  -0.034036
  139        0.374745  -0.031061
  140        0.496121  -0.007349
  141        0.513158  -0.005495
  142        0.588943  -0.001211
  143        0.681163  -0.000123
  144        0.735038  -0.000026
  145        0.813078  -0.000002
  146        0.875649  -0.000000
  147        0.941184  -0.000000
  148        0.964928  -0.000000
  149        1.002036  -0.000000
  150        1.091645  -0.000000
  151        1.124313  -0.000000
  152        1.170789  -0.000000
  153        1.197439  -0.000000
  154        1.218041  -0.000000
  155        1.267816  -0.000000
  156        1.292755  -0.000000
  157        1.324277  -0.000000
  158        1.351030  -0.000000
  159        1.378180  -0.000000
  160        1.403487  -0.000000
  161        1.441007  -0.000000
  162        1.492972  -0.000000
  163        1.536942  -0.000000
  164        1.558903  -0.000000
  165        1.610062  -0.000000
  166        1.632507  -0.000000
  167        1.669864  -0.000000
  168        1.719615  -0.000000
  169        1.765952  -0.000000
  170        1.828165  -0.000000
  171        1.867746  -0.000000
  172        1.910496  -0.000000
  173        1.949682  -0.000000
  174        2.014797  -0.000000
  175        2.058976  -0.000000
  176        2.173345  -0.000000

  0.4000000E+00  0.1111111E+00  0.1262379E-14  0.4444444E-01
    1      -13.776338   1.000000
    2      -13.418537   1.000000
    3      -12.558434   1.000000
    4      -12.233360   1.000000
    5      -11.909044   1.000000
    6      -11.768460   1.000000
    7      -11.680377   1.000000
    8      -11.410115   1.000000
    9      -11.264518   1.000000
   10      -11.145990   1.000000
   11      -11.062276   1.000000