 running on   72 total cores
 distrk:  each k-point on   72 cores,    1 groups
 distr:  one band on    9 cores,    8 groups
 using from now: INCAR     
 vasp.5.4.4.18Apr17-6-g9f103f2a35 (build Dec  7 2020 12:43:57) complex           
 POSCAR found type information on POSCAR  Mo V  B  H 
 POSCAR found :  4 types and      72 ions
 scaLAPACK will be used
 LDA part: xc-table for Pade appr. of Perdew
 POSCAR, INCAR and KPOINTS ok, starting setup
 resort distribution
 resort distribution
 resort distribution
 resort distribution
 resort distribution
 resort distribution
 resort distribution
 resort distribution
 resort distribution
 resort distribution
 resort distribution
 resort distribution
 resort distribution
 resort distribution
 resort distribution
 resort distribution
 resort distribution
 resort distribution
 resort distribution
 resort distribution
 resort distribution
 resort distribution
 resort distribution
 resort distribution
 resort distribution
 resort distribution
 resort distribution
 resort distribution
 resort distribution
 resort distribution
 resort distribution
 resort distribution
 resort distribution
 resort distribution
 resort distribution
 resort distribution
 resort distribution
 resort distribution
 resort distribution
 resort distribution
 resort distribution
 resort distribution
 resort distribution
 resort distribution
 resort distribution
 resort distribution
 resort distribution
 resort distribution
 resort distribution
 resort distribution
 resort distribution
 resort distribution
 resort distribution
 resort distribution
 resort distribution
 resort distribution
 resort distribution
 resort distribution
 resort distribution
 resort distribution
 resort distribution
 resort distribution
 resort distribution
 resort distribution
 resort distribution
 resort distribution
 resort distribution
 resort distribution
 resort distribution
 resort distribution
 resort distribution
 resort distribution
 FFT: planning ...
 WAVECAR not read
 augmentation electrons   267.05816605264670     
 soft         electrons   0.0000000000000000     
 augmentation electrons   267.05816605264670     
 soft         electrons   0.0000000000000000     
 augmentation electrons   267.05816605264670     
 soft         electrons   0.0000000000000000     
 augmentation electrons   267.05816605264670     
 soft         electrons   0.0000000000000000     
 augmentation electrons   267.05816605264670     
 soft         electrons   0.0000000000000000     
 augmentation electrons   267.05816605264670     
 soft         electrons   0.0000000000000000     
 augmentation electrons   267.05816605264670     
 soft         electrons   0.0000000000000000     
 augmentation electrons   267.05816605264670     
 soft         electrons   0.0000000000000000     
 augmentation electrons   267.05816605264670     
 soft         electrons   0.0000000000000000     
 augmentation electrons   267.05816605264670     
 soft         electrons   0.0000000000000000     
 augmentation electrons   267.05816605264670     
 soft         electrons   0.0000000000000000     
 augmentation electrons   267.05816605264670     
 soft         electrons   0.0000000000000000     
 augmentation electrons   267.05816605264670     
 augmentation electrons   267.05816605264670     
 soft         electrons   0.0000000000000000     
 augmentation electrons   267.05816605264670     
 soft         electrons   0.0000000000000000     
 augmentation electrons   267.05816605264670     
 soft         electrons   0.0000000000000000     
 augmentation electrons   267.05816605264670     
 soft         electrons   0.0000000000000000     
 augmentation electrons   267.05816605264670     
 soft         electrons   0.0000000000000000     
 augmentation electrons   267.05816605264670     
 soft         electrons   0.0000000000000000     
 augmentation electrons   267.05816605264670     
 soft         electrons   0.0000000000000000     
 augmentation electrons   267.05816605264670     
 soft         electrons   0.0000000000000000     
 augmentation electrons   267.05816605264670     
 soft         electrons   0.0000000000000000     
 augmentation electrons   267.05816605264670     
 soft         electrons   0.0000000000000000     
 augmentation electrons   267.05816605264670     
 soft         electrons   0.0000000000000000     
 augmentation electrons   267.05816605264670     
 soft         electrons   0.0000000000000000     
 augmentation electrons   267.05816605264670     
 soft         electrons   0.0000000000000000     
 augmentation electrons   267.05816605264670     
 soft         electrons   0.0000000000000000     
 augmentation electrons   267.05816605264670     
 soft         electrons   0.0000000000000000     
 augmentation electrons   267.05816605264670     
 soft         electrons   0.0000000000000000     
 augmentation electrons   267.05816605264670     
 soft         electrons   0.0000000000000000     
 augmentation electrons   267.05816605264670     
 soft         electrons   0.0000000000000000     
 augmentation electrons   267.05816605264670     
 soft         electrons   0.0000000000000000     
 augmentation electrons   267.05816605264670     
 soft         electrons   0.0000000000000000     
 augmentation electrons   267.05816605264670     
 soft         electrons   0.0000000000000000     
 augmentation electrons   267.05816605264670     
 soft         electrons   0.0000000000000000     
 augmentation electrons   267.05816605264670     
 soft         electrons   0.0000000000000000     
 augmentation electrons   267.05816605264670     
 soft         electrons   0.0000000000000000     
 total        electrons   267.05816605264670     
 augmentation electrons   267.05816605264670     
 soft         electrons   0.0000000000000000     
 total        electrons   267.05816605264670     
 augmentation electrons   267.05816605264670     
 soft         electrons   0.0000000000000000     
 total        electrons   267.05816605264670     
 augmentation electrons   267.05816605264670     
 soft         electrons   0.0000000000000000     
 total        electrons   267.05816605264670     
 augmentation electrons   267.05816605264670     
 soft         electrons   0.0000000000000000     
 total        electrons   267.05816605264670     
 augmentation electrons   267.05816605264670     
 soft         electrons   0.0000000000000000     
 total        electrons   267.05816605264670     
 augmentation electrons   267.05816605264670     
 soft         electrons   0.0000000000000000     
 total        electrons   267.05816605264670     
 augmentation electrons   267.05816605264670     
 soft         electrons   0.0000000000000000     
 total        electrons   267.05816605264670     
 augmentation electrons   267.05816605264670     
 soft         electrons   0.0000000000000000     
 total        electrons   267.05816605264670     
 total        electrons   267.05816605264670     
 total        electrons   267.05816605264670     
 augmentation electrons   267.05816605264670     
 soft         electrons   0.0000000000000000     
 total        electrons   267.05816605264670     
 total        electrons   267.05816605264670     
 augmentation electrons   267.05816605264670     
 soft         electrons   0.0000000000000000     
 total        electrons   267.05816605264670     
 total        electrons   267.05816605264670     
 augmentation electrons   267.05816605264670     
 soft         electrons   0.0000000000000000     
 total        electrons   267.05816605264670     
 total        electrons   267.05816605264670     
 augmentation electrons   267.05816605264670     
 soft         electrons   0.0000000000000000     
 total        electrons   267.05816605264670     
 augmentation electrons   267.05816605264670     
 soft         electrons   0.0000000000000000     
 total        electrons   267.05816605264670     
 total        electrons   267.05816605264670     
 augmentation electrons   267.05816605264670     
 soft         electrons   0.0000000000000000     
 total        electrons   267.05816605264670     
 augmentation electrons   267.05816605264670     
 soft         electrons   0.0000000000000000     
 total        electrons   267.05816605264670     
 augmentation electrons   267.05816605264670     
 soft         electrons   0.0000000000000000     
 total        electrons   267.05816605264670     
 augmentation electrons   267.05816605264670     
 soft         electrons   0.0000000000000000     
 total        electrons   267.05816605264670     
 total        electrons   267.05816605264670     
 augmentation electrons   267.05816605264670     
 soft         electrons   0.0000000000000000     
 total        electrons   267.05816605264670     
 augmentation electrons   267.05816605264670     
 soft         electrons   0.0000000000000000     
 total        electrons   267.05816605264670     
 augmentation electrons   267.05816605264670     
 soft         electrons   0.0000000000000000     
 total        electrons   267.05816605264670     
 augmentation electrons   267.05816605264670     
 soft         electrons   0.0000000000000000     
 total        electrons   267.05816605264670     
 total        electrons   267.05816605264670     
 augmentation electrons   267.05816605264670     
 soft         electrons   0.0000000000000000     
 total        electrons   267.05816605264670     
 augmentation electrons   267.05816605264670     
 soft         electrons   0.0000000000000000     
 total        electrons   267.05816605264670     
 total        electrons   267.05816605264670     
 total        electrons   267.05816605264670     
 total        electrons   267.05816605264670     
 total        electrons   267.05816605264670     
 augmentation electrons   267.05816605264670     
 soft         electrons   0.0000000000000000     
 total        electrons   267.05816605264670     
 total        electrons   267.05816605264670     
 augmentation electrons   267.05816605264670     
 soft         electrons   0.0000000000000000     
 total        electrons   267.05816605264670     
 total        electrons   267.05816605264670     
 augmentation electrons   267.05816605264670     
 soft         electrons   0.0000000000000000     
 total        electrons   267.05816605264670     
 augmentation electrons   267.05816605264670     
 soft         electrons   0.0000000000000000     
 total        electrons   267.05816605264670     
 augmentation electrons   267.05816605264670     
 soft         electrons   0.0000000000000000     
 total        electrons   267.05816605264670     
 augmentation electrons   267.05816605264670     
 soft         electrons   0.0000000000000000     
 total        electrons   267.05816605264670     
 total        electrons   267.05816605264670     
 total        electrons   267.05816605264670     
 total        electrons   267.05816605264670     
 total        electrons   267.05816605264670     
 total        electrons   267.05816605264670     
 augmentation electrons   267.05816605264670     
 soft         electrons   0.0000000000000000     
 total        electrons   267.05816605264670     
 total        electrons   267.05816605264670     
 total        electrons   267.05816605264670     
 total        electrons   267.05816605264670     
 augmentation electrons   267.05816605264670     
 soft         electrons   0.0000000000000000     
 total        electrons   267.05816605264670     
 augmentation electrons   267.05816605264670     
 soft         electrons   0.0000000000000000     
 total        electrons   267.05816605264670     
 total        electrons   267.05816605264670     
 total        electrons   267.05816605264670     
 total        electrons   267.05816605264670     
 total        electrons   267.05816605264670     
 total        electrons   267.05816605264670     
 augmentation electrons   267.05816605264670     
 soft         electrons   0.0000000000000000     
 total        electrons   267.05816605264670     
 soft         electrons   0.0000000000000000     
 total        electrons   267.05816605264670     
 augmentation electrons   267.05816605264670     
 soft         electrons   0.0000000000000000     
 total        electrons   267.05816605264670     
 total        electrons   267.05816605264670     
 total        electrons   267.05816605264670     
 total        electrons   267.05816605264670     
 total        electrons   267.05816605264670     
 augmentation electrons   267.05816605264670     
 soft         electrons   0.0000000000000000     
 total        electrons   267.05816605264670     
 total        electrons   267.05816605264670     
 total        electrons   267.05816605264670     
 total        electrons   267.05816605264670     
 total        electrons   267.05816605264670     
 augmentation electrons   1134.5113766423656     
 soft         electrons   0.0000000000000000     
 augmentation electrons   1134.5113766423656     
 soft         electrons   0.0000000000000000     
 augmentation electrons   1134.5113766423656     
 soft         electrons   0.0000000000000000     
 augmentation electrons   1134.5113766423656     
 soft         electrons   0.0000000000000000     
 augmentation electrons   1134.5113766423656     
 soft         electrons   0.0000000000000000     
 augmentation electrons   1134.5113766423656     
 soft         electrons   0.0000000000000000     
 augmentation electrons   1134.5113766423656     
 soft         electrons   0.0000000000000000     
 augmentation electrons   1134.5113766423656     
 soft         electrons   0.0000000000000000     
 augmentation electrons   1134.5113766423656     
 soft         electrons   0.0000000000000000     
 augmentation electrons   1134.5113766423656     
 soft         electrons   0.0000000000000000     
 augmentation electrons   1134.5113766423656     
 soft         electrons   0.0000000000000000     
 augmentation electrons   1134.5113766423656     
 soft         electrons   0.0000000000000000     
 augmentation electrons   1134.5113766423656     
 soft         electrons   0.0000000000000000     
 augmentation electrons   1134.5113766423656     
 soft         electrons   0.0000000000000000     
 augmentation electrons   1134.5113766423656     
 soft         electrons   0.0000000000000000     
 augmentation electrons   1134.5113766423656     
 soft         electrons   0.0000000000000000     
 augmentation electrons   1134.5113766423656     
 soft         electrons   0.0000000000000000     
 augmentation electrons   1134.5113766423656     
 soft         electrons   0.0000000000000000     
 augmentation electrons   1134.5113766423656     
 soft         electrons   0.0000000000000000     
 augmentation electrons   1134.5113766423656     
 soft         electrons   0.0000000000000000     
 augmentation electrons   1134.5113766423656     
 soft         electrons   0.0000000000000000     
 augmentation electrons   1134.5113766423656     
 soft         electrons   0.0000000000000000     
 augmentation electrons   1134.5113766423656     
 soft         electrons   0.0000000000000000     
 augmentation electrons   1134.5113766423656     
 soft         electrons   0.0000000000000000     
 augmentation electrons   1134.5113766423656     
 soft         electrons   0.0000000000000000     
 augmentation electrons   1134.5113766423656     
 soft         electrons   0.0000000000000000     
 augmentation electrons   1134.5113766423656     
 soft         electrons   0.0000000000000000     
 augmentation electrons   1134.5113766423656     
 soft         electrons   0.0000000000000000     
 augmentation electrons   1134.5113766423656     
 soft         electrons   0.0000000000000000     
 augmentation electrons   1134.5113766423656     
 soft         electrons   0.0000000000000000     
 augmentation electrons   1134.5113766423656     
 soft         electrons   0.0000000000000000     
 augmentation electrons   1134.5113766423656     
 soft         electrons   0.0000000000000000     
 augmentation electrons   1134.5113766423656     
 soft         electrons   0.0000000000000000     
 augmentation electrons   1134.5113766423656     
 soft         electrons   0.0000000000000000     
 augmentation electrons   1134.5113766423656     
 soft         electrons   0.0000000000000000     
 augmentation electrons   1134.5113766423656     
 soft         electrons   0.0000000000000000     
 augmentation electrons   1134.5113766423656     
 soft         electrons   0.0000000000000000     
 augmentation electrons   1134.5113766423656     
 soft         electrons   0.0000000000000000     
 augmentation electrons   1134.5113766423656     
 soft         electrons   0.0000000000000000     
 augmentation electrons   1134.5113766423656     
 soft         electrons   0.0000000000000000     
 augmentation electrons   1134.5113766423656     
 soft         electrons   0.0000000000000000     
 augmentation electrons   1134.5113766423656     
 soft         electrons   0.0000000000000000     
 augmentation electrons   1134.5113766423656     
 soft         electrons   0.0000000000000000     
 augmentation electrons   1134.5113766423656     
 soft         electrons   0.0000000000000000     
 augmentation electrons   1134.5113766423656     
 soft         electrons   0.0000000000000000     
 augmentation electrons   1134.5113766423656     
 soft         electrons   0.0000000000000000     
 augmentation electrons   1134.5113766423656     
 soft         electrons   0.0000000000000000     
 augmentation electrons   1134.5113766423656     
 soft         electrons   0.0000000000000000     
 augmentation electrons   1134.5113766423656     
 soft         electrons   0.0000000000000000     
 augmentation electrons   1134.5113766423656     
 soft         electrons   0.0000000000000000     
 augmentation electrons   1134.5113766423656     
 soft         electrons   0.0000000000000000     
 augmentation electrons   1134.5113766423656     
 augmentation electrons   1134.5113766423656     
 soft         electrons   0.0000000000000000     
 augmentation electrons   1134.5113766423656     
 soft         electrons   0.0000000000000000     
 augmentation electrons   1134.5113766423656     
 soft         electrons   0.0000000000000000     
 augmentation electrons   1134.5113766423656     
 soft         electrons   0.0000000000000000     
 augmentation electrons   1134.5113766423656     
 soft         electrons   0.0000000000000000     
 augmentation electrons   1134.5113766423656     
 soft         electrons   0.0000000000000000     
 augmentation electrons   1134.5113766423656     
 soft         electrons   0.0000000000000000     
 augmentation electrons   1134.5113766423656     
 soft         electrons   0.0000000000000000     
 augmentation electrons   1134.5113766423656     
 soft         electrons   0.0000000000000000     
 augmentation electrons   1134.5113766423656     
 soft         electrons   0.0000000000000000     
 augmentation electrons   1134.5113766423656     
 soft         electrons   0.0000000000000000     
 augmentation electrons   1134.5113766423656     
 soft         electrons   0.0000000000000000     
 augmentation electrons   1134.5113766423656     
 soft         electrons   0.0000000000000000     
 augmentation electrons   1134.5113766423656     
 soft         electrons   0.0000000000000000     
 augmentation electrons   1134.5113766423656     
 soft         electrons   0.0000000000000000     
 augmentation electrons   1134.5113766423656     
 soft         electrons   0.0000000000000000     
 augmentation electrons   1134.5113766423656     
 soft         electrons   0.0000000000000000     
 augmentation electrons   1134.5113766423656     
 soft         electrons   0.0000000000000000     
 augmentation electrons   1134.5113766423656     
 soft         electrons   0.0000000000000000     
 augmentation electrons   1134.5113766423656     
 soft         electrons   0.0000000000000000     
 soft         electrons   0.0000000000000000     
 total        electrons   1134.5113766423656     
 total        electrons   1134.5113766423656     
 total        electrons   1134.5113766423656     
 total        electrons   1134.5113766423656     
 total        electrons   1134.5113766423656     
 total        electrons   1134.5113766423656     
 total        electrons   1134.5113766423656     
 total        electrons   1134.5113766423656     
 total        electrons   1134.5113766423656     
 total        electrons   1134.5113766423656     
 total        electrons   1134.5113766423656     
 total        electrons   1134.5113766423656     
 total        electrons   1134.5113766423656     
 total        electrons   1134.5113766423656     
 total        electrons   1134.5113766423656     
 total        electrons   1134.5113766423656     
 total        electrons   1134.5113766423656     
 total        electrons   1134.5113766423656     
 total        electrons   1134.5113766423656     
 total        electrons   1134.5113766423656     
 total        electrons   1134.5113766423656     
 total        electrons   1134.5113766423656     
 total        electrons   1134.5113766423656     
 total        electrons   1134.5113766423656     
 total        electrons   1134.5113766423656     
 total        electrons   1134.5113766423656     
 total        electrons   1134.5113766423656     
 total        electrons   1134.5113766423656     
 total        electrons   1134.5113766423656     
 total        electrons   1134.5113766423656     
 total        electrons   1134.5113766423656     
 total        electrons   1134.5113766423656     
 total        electrons   1134.5113766423656     
 total        electrons   1134.5113766423656     
 total        electrons   1134.5113766423656     
 total        electrons   1134.5113766423656     
 total        electrons   1134.5113766423656     
 total        electrons   1134.5113766423656     
 total        electrons   1134.5113766423656     
 total        electrons   1134.5113766423656     
 total        electrons   1134.5113766423656     
 total        electrons   1134.5113766423656     
 total        electrons   1134.5113766423656     
 total        electrons   1134.5113766423656     
 total        electrons   1134.5113766423656     
 total        electrons   1134.5113766423656     
 total        electrons   1134.5113766423656     
 total        electrons   1134.5113766423656     
 total        electrons   1134.5113766423656     
 total        electrons   1134.5113766423656     
 total        electrons   1134.5113766423656     
 total        electrons   1134.5113766423656     
 total        electrons   1134.5113766423656     
 total        electrons   1134.5113766423656     
 total        electrons   1134.5113766423656     
 total        electrons   1134.5113766423656     
 total        electrons   1134.5113766423656     
 total        electrons   1134.5113766423656     
 total        electrons   1134.5113766423656     
 total        electrons   1134.5113766423656     
 total        electrons   1134.5113766423656     
 total        electrons   1134.5113766423656     
 total        electrons   1134.5113766423656     
 total        electrons   1134.5113766423656     
 total        electrons   1134.5113766423656     
 total        electrons   1134.5113766423656     
 total        electrons   1134.5113766423656     
 total        electrons   1134.5113766423656     
 total        electrons   1134.5113766423656     
 total        electrons   1134.5113766423656     
 total        electrons   1134.5113766423656     
 total        electrons   1134.5113766423656     
 entering main loop
       N       E                     dE             d eps       ncg     rms          rms(c)
DAV:   1     0.228746241342E+04    0.22875E+04   -0.95316E+04  8096   0.123E+03
DAV:   2    -0.219285810638E+03   -0.25067E+04   -0.23282E+04  9400   0.302E+02
DAV:   3    -0.625757222334E+03   -0.40647E+03   -0.38672E+03 11392   0.142E+02
DAV:   4    -0.659632826766E+03   -0.33876E+02   -0.32433E+02 13088   0.456E+01
DAV:   5    -0.661626321067E+03   -0.19935E+01   -0.19278E+01 13736   0.107E+01    0.137E+02
RMM:   6    -0.611953336466E+03    0.49673E+02   -0.11450E+03 11384   0.899E+01    0.734E+01
RMM:   7    -0.668625657752E+03   -0.56672E+02   -0.38318E+02 10588   0.542E+01    0.507E+01
RMM:   8    -0.576163580592E+03    0.92462E+02   -0.96216E+01 10550   0.240E+01    0.323E+01
RMM:   9    -0.573685662275E+03    0.24779E+01   -0.43854E+01 10213   0.159E+01    0.276E+01
RMM:  10    -0.560120555609E+03    0.13565E+02   -0.15377E+01 11008   0.837E+00    0.216E+01
RMM:  11    -0.557105342780E+03    0.30152E+01   -0.70986E+00  8322   0.909E+00    0.174E+01
RMM:  12    -0.556972571319E+03    0.13277E+00   -0.45259E+00 10946   0.316E+00    0.162E+01
RMM:  13    -0.556578346292E+03    0.39423E+00   -0.81066E-01  8644   0.253E+00    0.146E+01
RMM:  14    -0.556015241226E+03    0.56311E+00   -0.70972E-01  8512   0.268E+00    0.120E+01
RMM:  15    -0.555519899876E+03    0.49534E+00   -0.22781E+00  8385   0.498E+00    0.748E+00
RMM:  16    -0.555020170296E+03    0.49973E+00   -0.17838E+00  8201   0.433E+00    0.322E+00
RMM:  17    -0.555054776817E+03   -0.34607E-01   -0.97944E-01 11022   0.147E+00    0.232E+00
RMM:  18    -0.555026580595E+03    0.28196E-01   -0.18876E-01 10085   0.100E+00    0.174E+00
RMM:  19    -0.555029807963E+03   -0.32274E-02   -0.13483E-01  9017   0.109E+00    0.167E+00
RMM:  20    -0.554994288019E+03    0.35520E-01   -0.49541E-02  9432   0.632E-01    0.562E-01
RMM:  21    -0.554994660714E+03   -0.37269E-03   -0.26407E-02 10914   0.277E-01    0.383E-01
RMM:  22    -0.554995666874E+03   -0.10062E-02   -0.10946E-02  8911   0.289E-01    0.403E-01
RMM:  23    -0.554994529789E+03    0.11371E-02   -0.47487E-03  9497   0.185E-01    0.148E-01
RMM:  24    -0.554995570592E+03   -0.10408E-02   -0.33782E-03 10960   0.729E-02    0.983E-02
RMM:  25    -0.554996830932E+03   -0.12603E-02   -0.10777E-03 10600   0.590E-02    0.683E-02
RMM:  26    -0.554997724498E+03   -0.89357E-03   -0.46431E-04 10338   0.439E-02    0.668E-02
RMM:  27    -0.554998298936E+03   -0.57444E-03   -0.24319E-04  9592   0.394E-02    0.475E-02
RMM:  28    -0.554999249224E+03   -0.95029E-03   -0.28319E-04 10001   0.281E-02    0.395E-02
RMM:  29    -0.554999877079E+03   -0.62786E-03   -0.24769E-04 10265   0.275E-02    0.405E-02
RMM:  30    -0.555000006820E+03   -0.12974E-03   -0.99245E-05  9779   0.169E-02    0.232E-02
RMM:  31    -0.555000129153E+03   -0.12233E-03   -0.28292E-05  8861   0.105E-02    0.163E-02
RMM:  32    -0.555000233520E+03   -0.10437E-03   -0.33200E-05  8770   0.148E-02    0.150E-02
RMM:  33    -0.555000290280E+03   -0.56760E-04   -0.15677E-05  7157   0.746E-03    0.660E-03
RMM:  34    -0.555000406146E+03   -0.11587E-03   -0.80530E-06  6520   0.707E-03    0.126E-02
RMM:  35    -0.555000541619E+03   -0.13547E-03   -0.89713E-06  6571   0.744E-03    0.482E-03
RMM:  36    -0.555000636926E+03   -0.95307E-04   -0.69934E-06  6207   0.406E-03    0.360E-03
RMM:  37    -0.555000678149E+03   -0.41222E-04   -0.34530E-06  5844   0.490E-03    0.491E-03
RMM:  38    -0.555000719831E+03   -0.41682E-04   -0.47865E-06  6097   0.507E-03    0.341E-03
RMM:  39    -0.555000726958E+03   -0.71270E-05   -0.10442E-06  5045   0.362E-03    0.267E-03
RMM:  40    -0.555000733925E+03   -0.69666E-05   -0.92123E-07  5038   0.287E-03    0.132E-03
RMM:  41    -0.555000737910E+03   -0.39854E-05   -0.62724E-07  4261   0.151E-03    0.362E-04
RMM:  42    -0.555000739572E+03   -0.16618E-05   -0.28650E-07  3773   0.137E-03    0.573E-04
RMM:  43    -0.555000740997E+03   -0.14249E-05   -0.24340E-07  3771   0.111E-03    0.236E-04
RMM:  44    -0.555000741397E+03   -0.39986E-06   -0.13860E-07  2941   0.931E-04
   1 F= -.55500074E+03 E0= -.55499621E+03  d E =-.555001E+03
 curvature:   0.00 expect dE= 0.000E+00 dE for cont linesearch  0.000E+00
 trial: gam= 0.00000 g(F)=  0.350E-01 g(S)=  0.000E+00 ort = 0.000E+00 (trialstep = 0.100E+01)
 search vector abs. value=  0.350E-01
 bond charge predicted
       N       E                     dE             d eps       ncg     rms          rms(c)
DAV:   1    -0.555026778564E+03   -0.26038E-01   -0.59449E-01  9000   0.158E+00    0.256E-01
RMM:   2    -0.555026639938E+03    0.13863E-03   -0.11693E-02  9627   0.272E-01    0.156E-01
RMM:   3    -0.555030367511E+03   -0.37276E-02   -0.47269E-03  9807   0.201E-01    0.523E-01
RMM:   4    -0.555026515237E+03    0.38523E-02   -0.18786E-03  9708   0.133E-01    0.108E-01
RMM:   5    -0.555026577366E+03   -0.62129E-04   -0.87610E-04  9167   0.866E-02    0.127E-01
RMM:   6    -0.555026423501E+03    0.15387E-03   -0.34624E-04  9364   0.534E-02    0.563E-02
RMM:   7    -0.555026414993E+03    0.85078E-05   -0.16348E-04  9553   0.340E-02    0.581E-02
RMM:   8    -0.555026391441E+03    0.23552E-04   -0.71577E-05  9297   0.229E-02    0.310E-02
RMM:   9    -0.555026388344E+03    0.30966E-05   -0.37166E-05  8480   0.173E-02    0.221E-02
RMM:  10    -0.555026383064E+03    0.52804E-05   -0.13831E-05  6971   0.107E-02    0.736E-03
RMM:  11    -0.555026383401E+03   -0.33738E-06   -0.65682E-06  6430   0.525E-03
   2 F= -.55502638E+03 E0= -.55502191E+03  d E =-.256420E-01
 trial-energy change:   -0.025642  1 .order   -0.025307   -0.034966   -0.015648
 step:   1.6890(harm=  1.8101)  dis= 0.00639  next Energy=  -555.031884 (dE=-0.311E-01)
 bond charge predicted
       N       E                     dE             d eps       ncg     rms          rms(c)
DAV:   1    -0.555032197245E+03   -0.58142E-02   -0.28801E-01  8624   0.110E+00    0.187E-01
RMM:   2    -0.555032075052E+03    0.12219E-03   -0.57847E-03  9595   0.192E-01    0.117E-01
RMM:   3    -0.555034303991E+03   -0.22289E-02   -0.25192E-03  9702   0.150E-01    0.403E-01
RMM:   4    -0.555032000751E+03    0.23032E-02   -0.10936E-03  9672   0.101E-01    0.826E-02
RMM:   5    -0.555032018099E+03   -0.17348E-04   -0.44292E-04  9229   0.626E-02    0.891E-02
RMM:   6    -0.555031951272E+03    0.66827E-04   -0.18970E-04  9479   0.383E-02    0.490E-02
RMM:   7    -0.555031942986E+03    0.82864E-05   -0.87979E-05  9120   0.260E-02    0.464E-02
RMM:   8    -0.555031925229E+03    0.17757E-04   -0.40203E-05  8904   0.170E-02    0.181E-02
RMM:   9    -0.555031926175E+03   -0.94614E-06   -0.19817E-05  7708   0.126E-02    0.175E-02
RMM:  10    -0.555031922646E+03    0.35290E-05   -0.68162E-06  6224   0.870E-03    0.577E-03
RMM:  11    -0.555031923173E+03   -0.52654E-06   -0.40652E-06  5988   0.441E-03
   3 F= -.55503192E+03 E0= -.55502750E+03  d E =-.311818E-01
 curvature:  -0.88 expect dE=-0.733E-03 dE for cont linesearch -0.429E-07
 trial: gam= 0.02251 g(F)=  0.828E-03 g(S)=  0.000E+00 ort = 0.412E-04 (trialstep = 0.114E+01)
 search vector abs. value=  0.848E-03
 bond charge predicted
       N       E                     dE             d eps       ncg     rms          rms(c)
DAV:   1    -0.555032789270E+03   -0.86662E-03   -0.17722E-02  8496   0.286E-01    0.432E-02
RMM:   2    -0.555032789745E+03   -0.47534E-06   -0.27204E-04 10252   0.469E-02    0.296E-02
RMM:   3    -0.555032807048E+03   -0.17303E-04   -0.10444E-04 10715   0.248E-02    0.383E-02
RMM:   4    -0.555032808841E+03   -0.17925E-05   -0.60618E-05  8889   0.246E-02    0.432E-02
RMM:   5    -0.555032788915E+03    0.19926E-04   -0.24212E-05  8590   0.125E-02    0.198E-02
RMM:   6    -0.555032784617E+03    0.42974E-05   -0.98354E-06  6756   0.977E-03    0.115E-02
RMM:   7    -0.555032784681E+03   -0.63385E-07   -0.50940E-06  6049   0.677E-03
   4 F= -.55503278E+03 E0= -.55502835E+03  d E =-.861508E-03
 ZBRENT: can't locate minimum, use default step
 trial-energy change:   -0.000862  1 .order   -0.000858   -0.000943   -0.000772
 step:   4.5512(harm=  6.2540)  dis= 0.01663  next Energy=  -555.034516 (dE=-0.259E-02)
 bond charge predicted
       N       E                     dE             d eps       ncg     rms          rms(c)
DAV:   1    -0.555034420003E+03   -0.16354E-02   -0.15944E-01  8464   0.858E-01    0.130E-01
RMM:   2    -0.555034417346E+03    0.26577E-05   -0.23740E-03 10287   0.139E-01    0.878E-02
RMM:   3    -0.555034723855E+03   -0.30651E-03   -0.10213E-03 10747   0.790E-02    0.153E-01
RMM:   4    -0.555034598319E+03    0.12554E-03   -0.53594E-04  9204   0.705E-02    0.129E-01
RMM:   5    -0.555034404183E+03    0.19414E-03   -0.27219E-04  9963   0.419E-02    0.644E-02
RMM:   6    -0.555034381323E+03    0.22859E-04   -0.99988E-05  9315   0.277E-02    0.458E-02
RMM:   7    -0.555034369710E+03    0.11613E-04   -0.54180E-05  9395   0.195E-02    0.322E-02
RMM:   8    -0.555034357781E+03    0.11929E-04   -0.22084E-05  8266   0.144E-02    0.110E-02
RMM:   9    -0.555034357469E+03    0.31238E-06   -0.11850E-05  7554   0.693E-03    0.828E-03
RMM:  10    -0.555034357406E+03    0.62415E-07   -0.32619E-06  5621   0.635E-03
   5 F= -.55503436E+03 E0= -.55502985E+03  d E =-.243423E-02
 curvature:  -2.84 expect dE=-0.304E-02 dE for cont linesearch -0.194E-03
 ZBRENT: increasing intervall
 opt :  11.3781  next Energy=  -555.033010 (dE=-0.109E-02)
 bond charge predicted
       N       E                     dE             d eps       ncg     rms          rms(c)
DAV:   1    -0.555033290683E+03    0.10668E-02   -0.63573E-01  8320   0.171E+00    0.258E-01
RMM:   2    -0.555033282919E+03    0.77642E-05   -0.95215E-03 10311   0.274E-01    0.180E-01
RMM:   3    -0.555034833411E+03   -0.15505E-02   -0.38955E-03 10776   0.153E-01    0.326E-01
RMM:   4    -0.555034223381E+03    0.61003E-03   -0.20839E-03  9480   0.133E-01    0.294E-01
RMM:   5    -0.555033149089E+03    0.10743E-02   -0.11932E-03  9539   0.990E-02    0.106E-01
RMM:   6    -0.555033063861E+03    0.85228E-04   -0.43369E-04  9392   0.588E-02    0.658E-02
RMM:   7    -0.555033065782E+03   -0.19210E-05   -0.22365E-04  9981   0.366E-02    0.724E-02
RMM:   8    -0.555033018438E+03    0.47344E-04   -0.87415E-05  9175   0.283E-02    0.308E-02
RMM:   9    -0.555033012143E+03    0.62952E-05   -0.45376E-05  9539   0.142E-02    0.167E-02
RMM:  10    -0.555033012137E+03    0.57007E-08   -0.14791E-05  7344   0.107E-02    0.128E-02
RMM:  11    -0.555033012069E+03    0.68181E-07   -0.60679E-06  6211   0.641E-03
   6 F= -.55503301E+03 E0= -.55502842E+03  d E =-.108890E-02
 curvature:  19.75 expect dE= 0.122E+00 dE for cont linesearch  0.928E-02
 ZBRENT: bracketing found
 ZBRENT: interpolating
 opt :   6.4345  next Energy=  -555.034584 (dE=-0.266E-02)
 bond charge predicted
       N       E                     dE             d eps       ncg     rms          rms(c)
DAV:   1    -0.555034719836E+03   -0.17077E-02   -0.33354E-01  8304   0.124E+00    0.188E-01
RMM:   2    -0.555034714518E+03    0.53180E-05   -0.49166E-03 10294   0.197E-01    0.130E-01
RMM:   3    -0.555035960122E+03   -0.12456E-02   -0.21201E-03 10752   0.114E-01    0.284E-01
RMM:   4    -0.555035048945E+03    0.91118E-03   -0.11330E-03  9506   0.967E-02    0.188E-01
RMM:   5    -0.555034663811E+03    0.38513E-03   -0.62755E-04  9321   0.755E-02    0.785E-02
RMM:   6    -0.555034615058E+03    0.48753E-04   -0.24757E-04  9738   0.418E-02    0.462E-02
RMM:   7    -0.555034612811E+03    0.22464E-05   -0.11145E-04  9724   0.271E-02    0.476E-02
RMM:   8    -0.555034593422E+03    0.19389E-04   -0.45783E-05  8865   0.197E-02    0.245E-02
RMM:   9    -0.555034589055E+03    0.43666E-05   -0.21809E-05  8115   0.113E-02    0.128E-02
RMM:  10    -0.555034588536E+03    0.51933E-06   -0.83723E-06  6598   0.774E-03
   7 F= -.55503459E+03 E0= -.55503006E+03  d E =-.266536E-02
 curvature:  -0.48 expect dE=-0.944E-03 dE for cont linesearch -0.376E-08
 trial: gam= 2.35747 g(F)=  0.196E-02 g(S)=  0.000E+00 ort = 0.257E-05 (trialstep = 0.279E+00)
 search vector abs. value=  0.668E-02
 bond charge predicted
       N       E                     dE             d eps       ncg     rms          rms(c)
DAV:   1    -0.555035110741E+03   -0.52169E-03   -0.81681E-03  8464   0.197E-01    0.286E-02
RMM:   2    -0.555035119636E+03   -0.88955E-05   -0.12133E-04 10441   0.306E-02    0.221E-02
RMM:   3    -0.555035130213E+03   -0.10577E-04   -0.48053E-05  8618   0.236E-02    0.336E-02
RMM:   4    -0.555035121385E+03    0.88281E-05   -0.18305E-05  7916   0.157E-02    0.181E-02
RMM:   5    -0.555035119685E+03    0.17000E-05   -0.62525E-06  6076   0.798E-03    0.176E-02
RMM:   6    -0.555035117008E+03    0.26775E-05   -0.38521E-06  5788   0.721E-03    0.769E-03
RMM:   7    -0.555035116941E+03    0.67002E-07   -0.18076E-06  5352   0.494E-03
   8 F= -.55503512E+03 E0= -.55503057E+03  d E =-.528405E-03
 ZBRENT: can't locate minimum, use default step
 trial-energy change:   -0.000528  1 .order   -0.000528   -0.000548   -0.000508
 step:   1.1149(harm=  3.8276)  dis= 0.01130  next Energy=  -555.038349 (dE=-0.376E-02)
 bond charge predicted
       N       E                     dE             d eps       ncg     rms          rms(c)
DAV:   1    -0.555036426341E+03   -0.13093E-02   -0.73706E-02  8304   0.589E-01    0.829E-02
RMM:   2    -0.555036483752E+03   -0.57411E-04   -0.98847E-04 10217   0.904E-02    0.565E-02
RMM:   3    -0.555036663497E+03   -0.17975E-03   -0.41591E-04  9234   0.637E-02    0.124E-01
RMM:   4    -0.555036554007E+03    0.10949E-03   -0.20314E-04  8730   0.496E-02    0.775E-02
RMM:   5    -0.555036494450E+03    0.59557E-04   -0.87375E-05  9247   0.273E-02    0.414E-02
RMM:   6    -0.555036479594E+03    0.14855E-04   -0.34892E-05  8653   0.159E-02    0.199E-02
RMM:   7    -0.555036478685E+03    0.90889E-06   -0.17817E-05  7211   0.105E-02    0.156E-02
RMM:   8    -0.555036476919E+03    0.17669E-05   -0.67238E-06  6245   0.694E-03    0.782E-03
RMM:   9    -0.555036476160E+03    0.75861E-06   -0.21951E-06  5493   0.496E-03
   9 F= -.55503648E+03 E0= -.55503187E+03  d E =-.188762E-02
 curvature:  -2.71 expect dE=-0.304E-02 dE for cont linesearch -0.805E-03
 ZBRENT: increasing intervall
 opt :   2.7873  next Energy=  -555.038147 (dE=-0.356E-02)
 bond charge predicted
       N       E                     dE             d eps       ncg     rms          rms(c)
DAV:   1    -0.555037978583E+03   -0.15017E-02   -0.29519E-01  8192   0.118E+00    0.167E-01
RMM:   2    -0.555038206846E+03   -0.22826E-03   -0.39629E-03 10453   0.175E-01    0.115E-01
RMM:   3    -0.555039312887E+03   -0.11060E-02   -0.16568E-03 10191   0.108E-01    0.267E-01
RMM:   4    -0.555038563250E+03    0.74964E-03   -0.91662E-04  9430   0.899E-02    0.175E-01
RMM:   5    -0.555038205629E+03    0.35762E-03   -0.44811E-04  8923   0.692E-02    0.709E-02
RMM:   6    -0.555038156409E+03    0.49220E-04   -0.17944E-04  9846   0.326E-02    0.239E-02
RMM:   7    -0.555038167689E+03   -0.11279E-04   -0.74368E-05  9276   0.203E-02    0.361E-02
RMM:   8    -0.555038156486E+03    0.11202E-04   -0.23074E-05  7348   0.138E-02    0.175E-02
RMM:   9    -0.555038154585E+03    0.19011E-05   -0.13238E-05  6801   0.830E-03    0.853E-03
RMM:  10    -0.555038154496E+03    0.88623E-07   -0.40976E-06  5934   0.552E-03
  10 F= -.55503815E+03 E0= -.55503342E+03  d E =-.356596E-02
 curvature:  -5.61 expect dE=-0.290E-02 dE for cont linesearch -0.272E-03
 ZBRENT: increasing intervall
 opt :   6.1320  next Energy=  -555.037244 (dE=-0.266E-02)
 bond charge predicted
       N       E                     dE             d eps       ncg     rms          rms(c)
DAV:   1    -0.555036452383E+03    0.17022E-02   -0.11813E+00  8128   0.236E+00    0.342E-01
RMM:   2    -0.555037394216E+03   -0.94183E-03   -0.16166E-02 10378   0.359E-01    0.247E-01
RMM:   3    -0.555042156417E+03   -0.47622E-02   -0.65285E-03 10051   0.222E-01    0.565E-01
RMM:   4    -0.555038896827E+03    0.32596E-02   -0.42309E-03  9536   0.189E-01    0.366E-01
RMM:   5    -0.555037329918E+03    0.15669E-02   -0.20282E-03  8835   0.152E-01    0.148E-01
RMM:   6    -0.555037098703E+03    0.23121E-03   -0.72956E-04  9785   0.683E-02    0.507E-02
RMM:   7    -0.555037144556E+03   -0.45853E-04   -0.30924E-04  9812   0.414E-02    0.758E-02
RMM:   8    -0.555037100714E+03    0.43842E-04   -0.10404E-04  9032   0.286E-02    0.379E-02
RMM:   9    -0.555037089824E+03    0.10890E-04   -0.56708E-05  8925   0.171E-02    0.167E-02
RMM:  10    -0.555037090504E+03   -0.67985E-06   -0.22891E-05  8349   0.928E-03    0.103E-02
RMM:  11    -0.555037091169E+03   -0.66535E-06   -0.71594E-06  6478   0.632E-03
  11 F= -.55503709E+03 E0= -.55503213E+03  d E =-.250263E-02
 curvature:  18.77 expect dE= 0.293E-01 dE for cont linesearch  0.444E-02
 ZBRENT: bracketing found
 ZBRENT: interpolating
 opt :   3.8295  next Energy=  -555.038451 (dE=-0.386E-02)
 bond charge predicted
       N       E                     dE             d eps       ncg     rms          rms(c)
DAV:   1    -0.555038174953E+03   -0.10844E-02   -0.55924E-01  8144   0.162E+00    0.237E-01
RMM:   2    -0.555038630764E+03   -0.45581E-03   -0.76359E-03 10360   0.248E-01    0.172E-01
RMM:   3    -0.555041180607E+03   -0.25498E-02   -0.30557E-03  9991   0.153E-01    0.422E-01
RMM:   4    -0.555039265786E+03    0.19148E-02   -0.20753E-03  9527   0.132E-01    0.242E-01
RMM:   5    -0.555038579435E+03    0.68635E-03   -0.94911E-04  8801   0.105E-01    0.947E-02
RMM:   6    -0.555038485892E+03    0.93543E-04   -0.34493E-04  9868   0.452E-02    0.350E-02
RMM:   7    -0.555038505641E+03   -0.19749E-04   -0.13625E-04  9557   0.285E-02    0.508E-02
RMM:   8    -0.555038485531E+03    0.20110E-04   -0.46215E-05  8375   0.192E-02    0.255E-02
RMM:   9    -0.555038479972E+03    0.55590E-05   -0.24776E-05  7682   0.114E-02    0.107E-02
RMM:  10    -0.555038480013E+03   -0.40740E-07   -0.96798E-06  6895   0.685E-03
  12 F= -.55503848E+03 E0= -.55503369E+03  d E =-.389148E-02
 curvature:  -1.25 expect dE=-0.647E-03 dE for cont linesearch -0.374E-06
 trial: gam= 0.13039 g(F)=  0.516E-03 g(S)=  0.000E+00 ort = 0.447E-04 (trialstep = 0.989E+00)
 search vector abs. value=  0.641E-03
 bond charge predicted
       N       E                     dE             d eps       ncg     rms          rms(c)
DAV:   1    -0.555038956540E+03   -0.47657E-03   -0.10082E-02  8480   0.216E-01    0.314E-02
RMM:   2    -0.555038963491E+03   -0.69509E-05   -0.16624E-04 10350   0.356E-02    0.230E-02
RMM:   3    -0.555038976478E+03   -0.12987E-04   -0.60342E-05  9482   0.231E-02    0.339E-02
RMM:   4    -0.555038966560E+03    0.99178E-05   -0.28297E-05  8353   0.179E-02    0.253E-02
RMM:   5    -0.555038962195E+03    0.43645E-05   -0.13267E-05  6909   0.120E-02    0.176E-02
RMM:   6    -0.555038959816E+03    0.23794E-05   -0.57436E-06  6067   0.809E-03    0.753E-03
RMM:   7    -0.555038959689E+03    0.12751E-06   -0.24849E-06  5463   0.575E-03
  13 F= -.55503896E+03 E0= -.55503415E+03  d E =-.479675E-03
 ZBRENT: can't locate minimum, use default step
 trial-energy change:   -0.000480  1 .order   -0.000478   -0.000516   -0.000440
 step:   3.9556(harm=  6.7175)  dis= 0.01719  next Energy=  -555.040233 (dE=-0.175E-02)
 bond charge predicted
       N       E                     dE             d eps       ncg     rms          rms(c)
DAV:   1    -0.555039929537E+03   -0.96972E-03   -0.90858E-02  8216   0.648E-01    0.924E-02
RMM:   2    -0.555040002858E+03   -0.73321E-04   -0.14267E-03 10201   0.108E-01    0.767E-02
RMM:   3    -0.555040325030E+03   -0.32217E-03   -0.50426E-04  9518   0.690E-02    0.171E-01
RMM:   4    -0.555040059003E+03    0.26603E-03   -0.33777E-04  9872   0.474E-02    0.789E-02
RMM:   5    -0.555039973315E+03    0.85688E-04   -0.16020E-04  8588   0.426E-02    0.379E-02
RMM:   6    -0.555039962689E+03    0.10626E-04   -0.72006E-05  9563   0.188E-02    0.204E-02
RMM:   7    -0.555039966554E+03   -0.38648E-05   -0.27570E-05  7661   0.145E-02    0.284E-02
RMM:   8    -0.555039959036E+03    0.75179E-05   -0.10523E-05  6683   0.100E-02    0.101E-02
RMM:   9    -0.555039958400E+03    0.63574E-06   -0.66460E-06  6221   0.627E-03
  14 F= -.55503996E+03 E0= -.55503514E+03  d E =-.147839E-02
 curvature:  -3.17 expect dE=-0.230E-02 dE for cont linesearch -0.245E-03
 ZBRENT: increasing intervall
 opt :   9.8889  next Energy=  -555.039961 (dE=-0.148E-02)
 bond charge predicted
       N       E                     dE             d eps       ncg     rms          rms(c)
DAV:   1    -0.555039912167E+03    0.46869E-04   -0.36441E-01  8144   0.130E+00    0.185E-01
RMM:   2    -0.555040126061E+03   -0.21389E-03   -0.56094E-03 10332   0.208E-01    0.132E-01
RMM:   3    -0.555041436375E+03   -0.13103E-02   -0.22486E-03  9636   0.141E-01    0.318E-01
RMM:   4    -0.555040534214E+03    0.90216E-03   -0.12127E-03  9643   0.100E-01    0.194E-01
RMM:   5    -0.555040070005E+03    0.46421E-03   -0.58914E-04  8578   0.839E-02    0.746E-02
RMM:   6    -0.555040019922E+03    0.50083E-04   -0.27155E-04  9877   0.355E-02    0.292E-02
RMM:   7    -0.555040030064E+03   -0.10142E-04   -0.96437E-05  9470   0.253E-02    0.409E-02
RMM:   8    -0.555040008395E+03    0.21669E-04   -0.33060E-05  8430   0.179E-02    0.923E-03
RMM:   9    -0.555040010647E+03   -0.22523E-05   -0.21684E-05  8050   0.761E-03    0.118E-02
RMM:  10    -0.555040009719E+03    0.92885E-06   -0.53785E-06  6036   0.732E-03
  15 F= -.55504001E+03 E0= -.55503516E+03  d E =-.152971E-02
 curvature:  -0.03 expect dE=-0.142E-03 dE for cont linesearch -0.239E-05
 ZBRENT: bracketing found
 ZBRENT: interpolating
 opt :   6.9996  next Energy=  -555.040315 (dE=-0.184E-02)
 bond charge predicted
       N       E                     dE             d eps       ncg     rms          rms(c)
DAV:   1    -0.555040282445E+03   -0.27180E-03   -0.86293E-02  8160   0.632E-01    0.905E-02
RMM:   2    -0.555040340088E+03   -0.57642E-04   -0.13289E-03 10314   0.103E-01    0.690E-02
RMM:   3    -0.555040671553E+03   -0.33147E-03   -0.54126E-04  9404   0.727E-02    0.177E-01
RMM:   4    -0.555040429449E+03    0.24210E-03   -0.31116E-04  9693   0.495E-02    0.908E-02
RMM:   5    -0.555040321770E+03    0.10768E-03   -0.13846E-04  8426   0.412E-02    0.383E-02
RMM:   6    -0.555040316957E+03    0.48126E-05   -0.71528E-05  9411   0.189E-02    0.330E-02
RMM:   7    -0.555040310165E+03    0.67916E-05   -0.27813E-05  7771   0.146E-02    0.175E-02
RMM:   8    -0.555040306487E+03    0.36783E-05   -0.10055E-05  7092   0.709E-03    0.576E-03
RMM:   9    -0.555040306893E+03   -0.40593E-06   -0.37933E-06  5839   0.584E-03
  16 F= -.55504031E+03 E0= -.55503547E+03  d E =-.182688E-02
 curvature:  -4.38 expect dE=-0.879E-02 dE for cont linesearch -0.139E-06
 trial: gam= 3.88801 g(F)=  0.201E-02 g(S)=  0.000E+00 ort = 0.451E-05 (trialstep = 0.120E+00)
 search vector abs. value=  0.117E-01
 bond charge predicted
       N       E                     dE             d eps       ncg     rms          rms(c)
DAV:   1    -0.555040545566E+03   -0.23908E-03   -0.26576E-03  8504   0.112E-01    0.155E-02
RMM:   2    -0.555040548915E+03   -0.33485E-05   -0.41709E-05  9430   0.196E-02    0.136E-02
RMM:   3    -0.555040552679E+03   -0.37643E-05   -0.14292E-05  7859   0.129E-02    0.206E-02
RMM:   4    -0.555040555129E+03   -0.24497E-05   -0.81559E-06  7023   0.784E-03    0.208E-02
RMM:   5    -0.555040548484E+03    0.66443E-05   -0.41039E-06  5786   0.767E-03    0.802E-03
RMM:   6    -0.555040547940E+03    0.54457E-06   -0.14598E-06  5121   0.482E-03
  17 F= -.55504055E+03 E0= -.55503571E+03  d E =-.241047E-03
 ZBRENT: can't locate minimum, use default step
 trial-energy change:   -0.000241  1 .order   -0.000241   -0.000242   -0.000241
 step:   0.4790(harm= 19.4326)  dis= 0.00955  next Energy=  -555.059961 (dE=-0.197E-01)
 bond charge predicted
       N       E                     dE             d eps       ncg     rms          rms(c)
DAV:   1    -0.555041250676E+03   -0.70219E-03   -0.23971E-02  8208   0.334E-01    0.453E-02
RMM:   2    -0.555041272328E+03   -0.21652E-04   -0.33370E-04 10272   0.527E-02    0.329E-02
RMM:   3    -0.555041318895E+03   -0.46567E-04   -0.14231E-04  9123   0.382E-02    0.626E-02
RMM:   4    -0.555041310236E+03    0.86589E-05   -0.64321E-05  8965   0.260E-02    0.537E-02
RMM:   5    -0.555041271541E+03    0.38695E-04   -0.24864E-05  8286   0.163E-02    0.170E-02
RMM:   6    -0.555041268303E+03    0.32387E-05   -0.11676E-05  7030   0.701E-03    0.532E-03
RMM:   7    -0.555041269101E+03   -0.79816E-06   -0.43366E-06  5930   0.593E-03
  18 F= -.55504127E+03 E0= -.55503642E+03  d E =-.962208E-03
 curvature:  -2.08 expect dE=-0.404E-02 dE for cont linesearch -0.701E-03
 ZBRENT: increasing intervall
 opt :   1.1975  next Energy=  -555.042684 (dE=-0.238E-02)
 bond charge predicted
       N       E                     dE             d eps       ncg     rms          rms(c)
DAV:   1    -0.555042624888E+03   -0.13566E-02   -0.95933E-02  8160   0.668E-01    0.895E-02
RMM:   2    -0.555042709826E+03   -0.84937E-04   -0.13231E-03 10170   0.106E-01    0.653E-02
RMM:   3    -0.555042980654E+03   -0.27083E-03   -0.53939E-04  9420   0.713E-02    0.146E-01
RMM:   4    -0.555042854217E+03    0.12644E-03   -0.28791E-04  9545   0.486E-02    0.103E-01
RMM:   5    -0.555042708316E+03    0.14590E-03   -0.13620E-04  8704   0.395E-02    0.380E-02
RMM:   6    -0.555042696977E+03    0.11338E-04   -0.59761E-05  9218   0.167E-02    0.211E-02
RMM:   7    -0.555042697169E+03   -0.19192E-06   -0.23388E-05  7098   0.112E-02    0.178E-02
RMM:   8    -0.555042695274E+03    0.18955E-05   -0.79384E-06  6324   0.790E-03    0.830E-03
RMM:   9    -0.555042694593E+03    0.68042E-06   -0.30066E-06  5703   0.500E-03
  19 F= -.55504269E+03 E0= -.55503783E+03  d E =-.238770E-02
 curvature:  -4.19 expect dE=-0.770E-02 dE for cont linesearch -0.138E-02
 ZBRENT: increasing intervall
 opt :   2.6344  next Energy=  -555.045475 (dE=-0.517E-02)
 bond charge predicted
       N       E                     dE             d eps       ncg     rms          rms(c)
DAV:   1    -0.555045229664E+03   -0.25344E-02   -0.38349E-01  8128   0.133E+00    0.178E-01
RMM:   2    -0.555045562941E+03   -0.33328E-03   -0.51927E-03 10344   0.204E-01    0.130E-01
RMM:   3    -0.555046650647E+03   -0.10877E-02   -0.20469E-03  9526   0.136E-01    0.293E-01
RMM:   4    -0.555046111891E+03    0.53876E-03   -0.11958E-03  9595   0.976E-02    0.211E-01
RMM:   5    -0.555045543466E+03    0.56842E-03   -0.55691E-04  8466   0.826E-02    0.711E-02
RMM:   6    -0.555045487887E+03    0.55579E-04   -0.23234E-04  9901   0.314E-02    0.215E-02
RMM:   7    -0.555045513178E+03   -0.25291E-04   -0.96106E-05  9144   0.220E-02    0.496E-02
RMM:   8    -0.555045490447E+03    0.22731E-04   -0.28325E-05  7140   0.154E-02    0.139E-02
RMM:   9    -0.555045490531E+03   -0.84518E-07   -0.20728E-05  7174   0.816E-03    0.956E-03
RMM:  10    -0.555045489972E+03    0.55940E-06   -0.37783E-06  5828   0.535E-03
  20 F= -.55504549E+03 E0= -.55504057E+03  d E =-.518308E-02
 curvature:  -8.48 expect dE=-0.134E-01 dE for cont linesearch -0.263E-02
 ZBRENT: increasing intervall
 opt :   5.5083  next Energy=  -555.050815 (dE=-0.105E-01)
 bond charge predicted
       N       E                     dE             d eps       ncg     rms          rms(c)
DAV:   1    -0.555049783808E+03   -0.42933E-02   -0.15287E+00  8120   0.267E+00    0.354E-01
RMM:   2    -0.555051181432E+03   -0.13976E-02   -0.20827E-02 10411   0.404E-01    0.269E-01
RMM:   3    -0.555055683557E+03   -0.45021E-02   -0.75571E-03  9609   0.258E-01    0.595E-01
RMM:   4    -0.555053117721E+03    0.25658E-02   -0.51234E-03  9708   0.195E-01    0.406E-01
RMM:   5    -0.555051038298E+03    0.20794E-02   -0.24311E-03  8421   0.172E-01    0.149E-01
RMM:   6    -0.555050790055E+03    0.24824E-03   -0.95229E-04  9908   0.662E-02    0.397E-02
RMM:   7    -0.555050869779E+03   -0.79723E-04   -0.39431E-04  9786   0.428E-02    0.819E-02
RMM:   8    -0.555050802762E+03    0.67017E-04   -0.11200E-04  8336   0.315E-02    0.302E-02
RMM:   9    -0.555050801443E+03    0.13188E-05   -0.74599E-05  9223   0.150E-02    0.209E-02
RMM:  10    -0.555050799319E+03    0.21234E-05   -0.19722E-05  7787   0.899E-03    0.108E-02
RMM:  11    -0.555050798912E+03    0.40715E-06   -0.69434E-06  6547   0.634E-03
  21 F= -.55505080E+03 E0= -.55504577E+03  d E =-.104920E-01
 curvature: -17.18 expect dE=-0.178E-01 dE for cont linesearch -0.443E-02
 ZBRENT: increasing intervall
 opt :  11.2562  next Energy=  -555.059826 (dE=-0.195E-01)
 bond charge predicted
       N       E                     dE             d eps       ncg     rms          rms(c)
DAV:   1    -0.555054973041E+03   -0.41737E-02   -0.60390E+00  8104   0.531E+00    0.704E-01
RMM:   2    -0.555061202586E+03   -0.62295E-02   -0.84183E-02 10434   0.803E-01    0.578E-01
RMM:   3    -0.555077376613E+03   -0.16174E-01   -0.26315E-02  9923   0.457E-01    0.114E+00
RMM:   4    -0.555066651802E+03    0.10725E-01   -0.21883E-02  9724   0.397E-01    0.736E-01
RMM:   5    -0.555060168743E+03    0.64831E-02   -0.10085E-02  8546   0.345E-01    0.339E-01
RMM:   6    -0.555058823661E+03    0.13451E-02   -0.35970E-03  9709   0.147E-01    0.865E-02
RMM:   7    -0.555059060165E+03   -0.23650E-03   -0.16513E-03  9858   0.862E-02    0.136E-01
RMM:   8    -0.555058858965E+03    0.20120E-03   -0.44872E-04  8547   0.630E-02    0.500E-02
RMM:   9    -0.555058862913E+03   -0.39485E-05   -0.28079E-04 10665   0.265E-02    0.469E-02
RMM:  10    -0.555058853114E+03    0.97994E-05   -0.71875E-05  8912   0.210E-02    0.296E-02
RMM:  11    -0.555058848701E+03    0.44134E-05   -0.36326E-05  8966   0.115E-02    0.144E-02
RMM:  12    -0.555058849427E+03   -0.72591E-06   -0.14089E-05  7063   0.770E-03    0.121E-02
RMM:  13    -0.555058849501E+03   -0.74455E-07   -0.67121E-06  6456   0.705E-03
  22 F= -.55505885E+03 E0= -.55505352E+03  d E =-.185426E-01
 curvature: -35.03 expect dE=-0.428E-01 dE for cont linesearch -0.237E-02
 ZBRENT: increasing intervall
 opt :  22.7518  next Energy=  -555.059352 (dE=-0.190E-01)
 bond charge predicted
       N       E                     dE             d eps       ncg     rms          rms(c)
DAV:   1    -0.555033369716E+03    0.25480E-01   -0.23031E+01  8120   0.104E+01    0.140E+00
RMM:   2    -0.555065792155E+03   -0.32422E-01   -0.34313E-01 10464   0.158E+00    0.137E+00
RMM:   3    -0.555096409763E+03   -0.30618E-01   -0.84550E-02 10227   0.777E-01    0.192E+00
RMM:   4    -0.555071180036E+03    0.25230E-01   -0.90762E-02  9834   0.785E-01    0.128E+00
RMM:   5    -0.555054324373E+03    0.16856E-01   -0.41568E-02  9005   0.649E-01    0.795E-01
RMM:   6    -0.555046101802E+03    0.82226E-02   -0.13349E-02  9319   0.340E-01    0.222E-01
RMM:   7    -0.555046481706E+03   -0.37990E-03   -0.64239E-03  9916   0.181E-01    0.216E-01
RMM:   8    -0.555045931163E+03    0.55054E-03   -0.18508E-03  9215   0.115E-01    0.974E-02
RMM:   9    -0.555045962804E+03   -0.31641E-04   -0.98436E-04 10505   0.619E-02    0.100E-01
RMM:  10    -0.555045967441E+03   -0.46366E-05   -0.37836E-04  9615   0.502E-02    0.931E-02
RMM:  11    -0.555045906789E+03    0.60652E-04   -0.16286E-04  9163   0.363E-02    0.401E-02
RMM:  12    -0.555045902330E+03    0.44586E-05   -0.94351E-05  9944   0.180E-02    0.225E-02
RMM:  13    -0.555045907116E+03   -0.47855E-05   -0.40250E-05  9711   0.116E-02    0.153E-02
RMM:  14    -0.555045913006E+03   -0.58896E-05   -0.19706E-05  7887   0.116E-02    0.148E-02
RMM:  15    -0.555045914244E+03   -0.12382E-05   -0.61732E-06  6244   0.757E-03    0.453E-03
RMM:  16    -0.555045918465E+03   -0.42209E-05   -0.32223E-06  5833   0.446E-03    0.493E-03
RMM:  17    -0.555045920229E+03   -0.17640E-05   -0.10758E-06  5015   0.397E-03    0.216E-03
RMM:  18    -0.555045924111E+03   -0.38822E-05   -0.80200E-07  4973   0.237E-03    0.170E-03
RMM:  19    -0.555045927102E+03   -0.29910E-05   -0.56335E-07  4819   0.222E-03    0.880E-04
RMM:  20    -0.555045930074E+03   -0.29721E-05   -0.43446E-07  4404   0.148E-03    0.601E-04
RMM:  21    -0.555045931804E+03   -0.17302E-05   -0.28199E-07  4128   0.146E-03    0.455E-04
RMM:  22    -0.555045935180E+03   -0.33757E-05   -0.45449E-07  4106   0.118E-03    0.475E-04
RMM:  23    -0.555045936749E+03   -0.15697E-05   -0.27302E-07  3795   0.134E-03    0.336E-04
RMM:  24    -0.555045938065E+03   -0.13150E-05   -0.23315E-07  2855   0.914E-04    0.205E-04
RMM:  25    -0.555045938855E+03   -0.79019E-06   -0.17259E-07  2888   0.104E-03
  23 F= -.55504594E+03 E0= -.55503989E+03  d E =-.563196E-02
 curvature:  -7.43 expect dE=-0.151E+00 dE for cont linesearch -0.916E-02
 ZBRENT: bracketing found
 ZBRENT: interpolating
 opt :  13.4382  next Energy=  -555.059822 (dE=-0.195E-01)
 bond charge predicted
       N       E                     dE             d eps       ncg     rms          rms(c)
DAV:   1    -0.555053051488E+03   -0.71134E-02   -0.15520E+01  8104   0.857E+00    0.112E+00
RMM:   2    -0.555077544254E+03   -0.24493E-01   -0.21681E-01 10387   0.127E+00    0.118E+00
RMM:   3    -0.555088578364E+03   -0.11034E-01   -0.53445E-02 10209   0.633E-01    0.152E+00
RMM:   4    -0.555078329211E+03    0.10249E-01   -0.56462E-02  9755   0.617E-01    0.110E+00
RMM:   5    -0.555068862199E+03    0.94670E-02   -0.30486E-02  9003   0.544E-01    0.802E-01
RMM:   6    -0.555061108837E+03    0.77534E-02   -0.10624E-02  9067   0.323E-01    0.329E-01
RMM:   7    -0.555060714615E+03    0.39422E-03   -0.45140E-03  9832   0.165E-01    0.233E-01
RMM:   8    -0.555060553269E+03    0.16135E-03   -0.20471E-03  9452   0.119E-01    0.167E-01
RMM:   9    -0.555060210340E+03    0.34293E-03   -0.81084E-04  8995   0.755E-02    0.487E-02
RMM:  10    -0.555060230848E+03   -0.20508E-04   -0.41957E-04 10750   0.352E-02    0.458E-02
RMM:  11    -0.555060217711E+03    0.13136E-04   -0.12107E-04  9404   0.282E-02    0.286E-02
RMM:  12    -0.555060212329E+03    0.53818E-05   -0.50766E-05  9535   0.145E-02    0.159E-02
RMM:  13    -0.555060213178E+03   -0.84821E-06   -0.19516E-05  8487   0.854E-03    0.122E-02
RMM:  14    -0.555060214635E+03   -0.14577E-05   -0.10154E-05  6750   0.930E-03    0.119E-02
RMM:  15    -0.555060214674E+03   -0.38601E-07   -0.41515E-06  5855   0.699E-03
  24 F= -.55506021E+03 E0= -.55505475E+03  d E =-.199078E-01
 curvature:  -0.79 expect dE=-0.195E-02 dE for cont linesearch -0.749E-05
 ZBRENT: interpolating
 opt :  14.6401  next Energy=  -555.060432 (dE=-0.201E-01)
 bond charge predicted
       N       E                     dE             d eps       ncg     rms          rms(c)
DAV:   1    -0.555060231439E+03   -0.16804E-04   -0.26733E-01  8320   0.112E+00    0.148E-01
RMM:   2    -0.555060570567E+03   -0.33913E-03   -0.36948E-03 10433   0.167E-01    0.137E-01
RMM:   3    -0.555061012178E+03   -0.44161E-03   -0.99321E-04 10273   0.846E-02    0.217E-01
RMM:   4    -0.555060690810E+03    0.32137E-03   -0.10015E-03  9742   0.837E-02    0.145E-01
RMM:   5    -0.555060477243E+03    0.21357E-03   -0.46220E-04  8956   0.692E-02    0.845E-02
RMM:   6    -0.555060388235E+03    0.89008E-04   -0.15706E-04  9382   0.362E-02    0.291E-02
RMM:   7    -0.555060395345E+03   -0.71100E-05   -0.72826E-05  9233   0.203E-02    0.349E-02
RMM:   8    -0.555060389734E+03    0.56112E-05   -0.28205E-05  7724   0.147E-02    0.230E-02
RMM:   9    -0.555060384054E+03    0.56801E-05   -0.12782E-05  6735   0.977E-03    0.683E-03
RMM:  10    -0.555060384603E+03   -0.54961E-06   -0.61400E-06  6300   0.560E-03
  25 F= -.55506038E+03 E0= -.55505484E+03  d E =-.200777E-01
 curvature: -22.82 expect dE=-0.817E-01 dE for cont linesearch -0.130E-04
 trial: gam= 2.43651 g(F)=  0.358E-02 g(S)=  0.000E+00 ort =-0.819E-04 (trialstep = 0.487E+00)
 search vector abs. value=  0.729E-01
 bond charge predicted
       N       E                     dE             d eps       ncg     rms          rms(c)
DAV:   1    -0.555061775852E+03   -0.13918E-02   -0.27135E-01  8256   0.113E+00    0.141E-01
RMM:   2    -0.555062158525E+03   -0.38267E-03   -0.34536E-03 10361   0.169E-01    0.136E-01
RMM:   3    -0.555062496986E+03   -0.33846E-03   -0.90861E-04 10222   0.820E-02    0.201E-01
RMM:   4    -0.555062282533E+03    0.21445E-03   -0.92193E-04  9542   0.828E-02    0.146E-01
RMM:   5    -0.555062050949E+03    0.23158E-03   -0.41408E-04  8825   0.677E-02    0.779E-02
RMM:   6    -0.555061983095E+03    0.67854E-04   -0.13866E-04  9390   0.330E-02    0.322E-02
RMM:   7    -0.555061984864E+03   -0.17691E-05   -0.62101E-05  8971   0.188E-02    0.301E-02
RMM:   8    -0.555061982742E+03    0.21217E-05   -0.27347E-05  7504   0.139E-02    0.211E-02
RMM:   9    -0.555061977474E+03    0.52685E-05   -0.11111E-05  6484   0.933E-03    0.521E-03
RMM:  10    -0.555061977985E+03   -0.51074E-06   -0.50816E-06  6111   0.478E-03
  26 F= -.55506198E+03 E0= -.55505638E+03  d E =-.159338E-02
 ZBRENT: can't locate minimum, use default step
 trial-energy change:   -0.001593  1 .order   -0.001571   -0.001646   -0.001496
 step:   1.9485(harm=  5.3637)  dis= 0.09050  next Energy=  -555.069445 (dE=-0.906E-02)
 bond charge predicted
       N       E                     dE             d eps       ncg     rms          rms(c)
DAV:   1    -0.555063984995E+03   -0.20075E-02   -0.24313E+00  8096   0.339E+00    0.420E-01
RMM:   2    -0.555067381757E+03   -0.33968E-02   -0.30611E-02 10422   0.494E-01    0.408E-01
RMM:   3    -0.555070300717E+03   -0.29190E-02   -0.78736E-03 10137   0.244E-01    0.596E-01
RMM:   4    -0.555068424318E+03    0.18764E-02   -0.82439E-03  9611   0.246E-01    0.428E-01
RMM:   5    -0.555066346731E+03    0.20776E-02   -0.36070E-03  8839   0.200E-01    0.226E-01
RMM:   6    -0.555065746466E+03    0.60026E-03   -0.11852E-03  9447   0.956E-02    0.813E-02
RMM:   7    -0.555065786880E+03   -0.40414E-04   -0.53530E-04  9772   0.539E-02    0.909E-02
RMM:   8    -0.555065758592E+03    0.28289E-04   -0.22031E-04  9159   0.392E-02    0.615E-02
RMM:   9    -0.555065714914E+03    0.43677E-04   -0.99226E-05  8693   0.254E-02    0.153E-02
RMM:  10    -0.555065719269E+03   -0.43547E-05   -0.52007E-05  9217   0.118E-02    0.156E-02
RMM:  11    -0.555065717885E+03    0.13838E-05   -0.13692E-05  7300   0.887E-03    0.824E-03
RMM:  12    -0.555065717799E+03    0.86480E-07   -0.42770E-06  6047   0.492E-03
  27 F= -.55506572E+03 E0= -.55505998E+03  d E =-.533320E-02
 curvature: -29.47 expect dE=-0.146E+00 dE for cont linesearch -0.147E-02
 ZBRENT: increasing intervall
 opt :   4.8713  next Energy=  -555.067897 (dE=-0.751E-02)
 bond charge predicted
       N       E                     dE             d eps       ncg     rms          rms(c)
DAV:   1    -0.555059623295E+03    0.60946E-02   -0.95696E+00  8104   0.675E+00    0.832E-01
RMM:   2    -0.555074057574E+03   -0.14434E-01   -0.12197E-01 10481   0.970E-01    0.845E-01
RMM:   3    -0.555082395934E+03   -0.83384E-02   -0.29146E-02 10173   0.464E-01    0.112E+00
RMM:   4    -0.555076612269E+03    0.57837E-02   -0.32232E-02  9655   0.484E-01    0.823E-01
RMM:   5    -0.555069024883E+03    0.75874E-02   -0.14341E-02  8991   0.389E-01    0.466E-01
RMM:   6    -0.555066399802E+03    0.26251E-02   -0.46857E-03  9327   0.199E-01    0.156E-01
RMM:   7    -0.555066558320E+03   -0.15852E-03   -0.20837E-03  9805   0.109E-01    0.180E-01
RMM:   8    -0.555066438794E+03    0.11953E-03   -0.82415E-04  9161   0.772E-02    0.127E-01
RMM:   9    -0.555066255496E+03    0.18330E-03   -0.39864E-04  9175   0.497E-02    0.286E-02
RMM:  10    -0.555066281345E+03   -0.25849E-04   -0.22214E-04 10850   0.247E-02    0.365E-02
RMM:  11    -0.555066270373E+03    0.10972E-04   -0.56416E-05  8728   0.204E-02    0.178E-02
RMM:  12    -0.555066270861E+03   -0.48795E-06   -0.26279E-05  8325   0.846E-03    0.104E-02
RMM:  13    -0.555066272237E+03   -0.13763E-05   -0.86108E-06  6830   0.579E-03    0.634E-03
RMM:  14    -0.555066273886E+03   -0.16484E-05   -0.34153E-06  5805   0.588E-03    0.604E-03
RMM:  15    -0.555066274661E+03   -0.77538E-06   -0.16065E-06  5132   0.529E-03
  28 F= -.55506627E+03 E0= -.55506033E+03  d E =-.589006E-02
 curvature: -43.58 expect dE=-0.498E+00 dE for cont linesearch -0.238E-02
 ZBRENT: bracketing found
 ZBRENT: interpolating
 opt :   3.3776  next Energy=  -555.067081 (dE=-0.670E-02)
 bond charge predicted
       N       E                     dE             d eps       ncg     rms          rms(c)
DAV:   1    -0.555065792081E+03    0.48180E-03   -0.25415E+00  8096   0.350E+00    0.423E-01
RMM:   2    -0.555069755355E+03   -0.39633E-02   -0.30892E-02 10431   0.494E-01    0.445E-01
RMM:   3    -0.555071220079E+03   -0.14647E-02   -0.74607E-03 10175   0.237E-01    0.562E-01
RMM:   4    -0.555070333340E+03    0.88674E-03   -0.82490E-03  9624   0.244E-01    0.440E-01
RMM:   5    -0.555068320936E+03    0.20124E-02   -0.39843E-03  8973   0.202E-01    0.266E-01
RMM:   6    -0.555067514537E+03    0.80640E-03   -0.13640E-03  9221   0.112E-01    0.111E-01
RMM:   7    -0.555067484780E+03    0.29757E-04   -0.57357E-04  9882   0.577E-02    0.870E-02
RMM:   8    -0.555067457807E+03    0.26974E-04   -0.24390E-04  9173   0.426E-02    0.568E-02
RMM:   9    -0.555067414884E+03    0.42922E-04   -0.10068E-04  9128   0.243E-02    0.132E-02
RMM:  10    -0.555067419227E+03   -0.43424E-05   -0.48420E-05  9520   0.112E-02    0.155E-02
RMM:  11    -0.555067417105E+03    0.21218E-05   -0.12290E-05  6989   0.941E-03    0.898E-03
RMM:  12    -0.555067416689E+03    0.41622E-06   -0.47439E-06  6026   0.573E-03
  29 F= -.55506742E+03 E0= -.55506157E+03  d E =-.703209E-02
 curvature: -24.97 expect dE=-0.184E+00 dE for cont linesearch -0.474E-04
 trial: gam= 0.71200 g(F)=  0.737E-02 g(S)=  0.000E+00 ort = 0.372E-03 (trialstep = 0.107E+01)
 search vector abs. value=  0.448E-01
 bond charge predicted
       N       E                     dE             d eps       ncg     rms          rms(c)
DAV:   1    -0.555074211776E+03   -0.67947E-02   -0.79846E-01  8224   0.196E+00    0.224E-01
RMM:   2    -0.555075031322E+03   -0.81955E-03   -0.87033E-03 10348   0.270E-01    0.183E-01
RMM:   3    -0.555076883043E+03   -0.18517E-02   -0.26557E-03  9870   0.148E-01    0.389E-01
RMM:   4    -0.555075449705E+03    0.14333E-02   -0.18730E-03  9208   0.127E-01    0.221E-01
RMM:   5    -0.555074838866E+03    0.61084E-03   -0.69313E-04  8646   0.938E-02    0.663E-02
RMM:   6    -0.555074829175E+03    0.96914E-05   -0.27968E-04 10062   0.394E-02    0.523E-02
RMM:   7    -0.555074833751E+03   -0.45754E-05   -0.11348E-04  9117   0.298E-02    0.552E-02
RMM:   8    -0.555074806597E+03    0.27154E-04   -0.47849E-05  8589   0.194E-02    0.201E-02
RMM:   9    -0.555074804261E+03    0.23361E-05   -0.28908E-05  7824   0.102E-02    0.981E-03
RMM:  10    -0.555074804012E+03    0.24895E-06   -0.65772E-06  6312   0.602E-03
  30 F= -.55507480E+03 E0= -.55506896E+03  d E =-.738732E-02
 ZBRENT: can't locate minimum, use default step
 trial-energy change:   -0.007387  1 .order   -0.007391   -0.008133   -0.006649
 step:   4.2609(harm=  5.8394)  dis= 0.11280  next Energy=  -555.089709 (dE=-0.223E-01)
 bond charge predicted
       N       E                     dE             d eps       ncg     rms          rms(c)
DAV:   1    -0.555083795527E+03   -0.89913E-02   -0.71297E+00  8096   0.587E+00    0.669E-01
RMM:   2    -0.555091358617E+03   -0.75631E-02   -0.78696E-02 10375   0.806E-01    0.544E-01
RMM:   3    -0.555107702476E+03   -0.16344E-01   -0.23037E-02  9806   0.437E-01    0.114E+00
RMM:   4    -0.555095432263E+03    0.12270E-01   -0.17261E-02  9273   0.383E-01    0.675E-01
RMM:   5    -0.555089845006E+03    0.55873E-02   -0.68732E-03  8642   0.294E-01    0.220E-01
RMM:   6    -0.555089518855E+03    0.32615E-03   -0.24852E-03 10029   0.118E-01    0.119E-01
RMM:   7    -0.555089617801E+03   -0.98946E-04   -0.94379E-04  9146   0.848E-02    0.151E-01
RMM:   8    -0.555089433010E+03    0.18479E-03   -0.40003E-04  9322   0.534E-02    0.690E-02
RMM:   9    -0.555089402095E+03    0.30915E-04   -0.24052E-04  9629   0.306E-02    0.296E-02
RMM:  10    -0.555089401591E+03    0.50462E-06   -0.72595E-05 10017   0.155E-02    0.168E-02
RMM:  11    -0.555089403703E+03   -0.21127E-05   -0.29242E-05  8865   0.117E-02    0.157E-02
RMM:  12    -0.555089402559E+03    0.11441E-05   -0.91101E-06  6609   0.860E-03    0.742E-03
RMM:  13    -0.555089404443E+03   -0.18837E-05   -0.53570E-06  6183   0.649E-03    0.771E-03
RMM:  14    -0.555089404923E+03   -0.47986E-06   -0.20328E-06  5389   0.552E-03
  31 F= -.55508940E+03 E0= -.55508367E+03  d E =-.219882E-01
 curvature: -15.27 expect dE=-0.507E-01 dE for cont linesearch -0.298E-02
 ZBRENT: increasing intervall
 opt :  10.6522  next Energy=  -555.087339 (dE=-0.199E-01)
 bond charge predicted
       N       E                     dE             d eps       ncg     rms          rms(c)
DAV:   1    -0.555063841691E+03    0.25563E-01   -0.27422E+01  8096   0.116E+01    0.131E+00
RMM:   2    -0.555093897678E+03   -0.30056E-01   -0.32131E-01 10494   0.159E+00    0.104E+00
RMM:   3    -0.555159756925E+03   -0.65859E-01   -0.88288E-02  9661   0.876E-01    0.223E+00
RMM:   4    -0.555110012015E+03    0.49745E-01   -0.65747E-02  9550   0.722E-01    0.128E+00
RMM:   5    -0.555091399415E+03    0.18613E-01   -0.30430E-02  8679   0.605E-01    0.577E-01
RMM:   6    -0.555087976849E+03    0.34226E-02   -0.10180E-02  9722   0.264E-01    0.180E-01
RMM:   7    -0.555088340290E+03   -0.36344E-03   -0.42764E-03  9761   0.150E-01    0.212E-01
RMM:   8    -0.555087816902E+03    0.52339E-03   -0.11662E-03  8378   0.101E-01    0.721E-02
RMM:   9    -0.555087879804E+03   -0.62902E-04   -0.77337E-04 10769   0.426E-02    0.825E-02
RMM:  10    -0.555087850267E+03    0.29537E-04   -0.19494E-04  9261   0.361E-02    0.495E-02
RMM:  11    -0.555087862144E+03   -0.11877E-04   -0.14239E-04 10486   0.250E-02    0.365E-02
RMM:  12    -0.555087857431E+03    0.47133E-05   -0.47148E-05  8519   0.195E-02    0.176E-02
RMM:  13    -0.555087865336E+03   -0.79051E-05   -0.25408E-05  8408   0.902E-03    0.132E-02
RMM:  14    -0.555087870264E+03   -0.49278E-05   -0.94317E-06  6584   0.841E-03    0.973E-03
RMM:  15    -0.555087876172E+03   -0.59083E-05   -0.52847E-06  6305   0.648E-03    0.524E-03
RMM:  16    -0.555087882291E+03   -0.61195E-05   -0.22188E-06  5483   0.497E-03    0.452E-03
RMM:  17    -0.555087885899E+03   -0.36071E-05   -0.12195E-06  5060   0.413E-03    0.266E-03
RMM:  18    -0.555087891223E+03   -0.53248E-05   -0.88996E-07  5068   0.268E-03    0.141E-03
RMM:  19    -0.555087894752E+03   -0.35282E-05   -0.56670E-07  4795   0.192E-03    0.879E-04
RMM:  20    -0.555087901095E+03   -0.63432E-05   -0.89576E-07  4989   0.184E-03    0.982E-04
RMM:  21    -0.555087904651E+03   -0.35567E-05   -0.56677E-07  4527   0.167E-03    0.568E-04
RMM:  22    -0.555087907794E+03   -0.31426E-05   -0.52648E-07  4062   0.133E-03    0.574E-04
RMM:  23    -0.555087910327E+03   -0.25331E-05   -0.49013E-07  4145   0.150E-03    0.451E-04
RMM:  24    -0.555087912142E+03   -0.18152E-05   -0.48939E-07  3896   0.123E-03    0.289E-04
RMM:  25    -0.555087912847E+03   -0.70468E-06   -0.27308E-07  3637   0.129E-03
  32 F= -.55508791E+03 E0= -.55508246E+03  d E =-.204962E-01
 curvature:  10.58 expect dE= 0.874E-01 dE for cont linesearch  0.388E-02
 ZBRENT: bracketing found
 ZBRENT: interpolating
 opt :   6.9563  next Energy=  -555.093393 (dE=-0.260E-01)
 bond charge predicted
       N       E                     dE             d eps       ncg     rms          rms(c)
DAV:   1    -0.555086315807E+03    0.15963E-02   -0.94964E+00  8096   0.688E+00    0.770E-01
RMM:   2    -0.555096172861E+03   -0.98571E-02   -0.10551E-01 10547   0.920E-01    0.604E-01
RMM:   3    -0.555119356719E+03   -0.23184E-01   -0.29454E-02  9734   0.500E-01    0.136E+00
RMM:   4    -0.555103104286E+03    0.16252E-01   -0.23755E-02  9637   0.423E-01    0.820E-01
RMM:   5    -0.555095560248E+03    0.75440E-02   -0.11398E-02  8642   0.369E-01    0.369E-01
RMM:   6    -0.555094244571E+03    0.13157E-02   -0.39410E-03  9714   0.164E-01    0.172E-01
RMM:   7    -0.555094414685E+03   -0.17011E-03   -0.16413E-03  9615   0.104E-01    0.198E-01
RMM:   8    -0.555094066297E+03    0.34839E-03   -0.57936E-04  8987   0.692E-02    0.685E-02
RMM:   9    -0.555094042857E+03    0.23440E-04   -0.37447E-04  9344   0.376E-02    0.377E-02
RMM:  10    -0.555094035947E+03    0.69101E-05   -0.10012E-04 10241   0.187E-02    0.189E-02
RMM:  11    -0.555094040017E+03   -0.40701E-05   -0.41777E-05  9464   0.144E-02    0.208E-02
RMM:  12    -0.555094036883E+03    0.31343E-05   -0.13330E-05  7165   0.117E-02    0.105E-02
RMM:  13    -0.555094038213E+03   -0.13307E-05   -0.81097E-06  6659   0.626E-03    0.801E-03
RMM:  14    -0.555094038859E+03   -0.64557E-06   -0.33976E-06  5736   0.629E-03
  33 F= -.55509404E+03 E0= -.55508841E+03  d E =-.266222E-01
 curvature: -10.86 expect dE=-0.531E-01 dE for cont linesearch -0.470E-04
 trial: gam= 0.73202 g(F)=  0.489E-02 g(S)=  0.000E+00 ort = 0.441E-03 (trialstep = 0.224E+01)
 search vector abs. value=  0.296E-01
 bond charge predicted
       N       E                     dE             d eps       ncg     rms          rms(c)
DAV:   1    -0.555099418935E+03   -0.53807E-02   -0.23712E+00  8128   0.340E+00    0.434E-01
RMM:   2    -0.555101618577E+03   -0.21996E-02   -0.32908E-02 10511   0.503E-01    0.362E-01
RMM:   3    -0.555107177469E+03   -0.55589E-02   -0.88914E-03 10014   0.263E-01    0.687E-01
RMM:   4    -0.555102815226E+03    0.43622E-02   -0.74241E-03  9790   0.234E-01    0.418E-01
RMM:   5    -0.555101077284E+03    0.17379E-02   -0.40977E-03  9110   0.203E-01    0.263E-01
RMM:   6    -0.555100305709E+03    0.77158E-03   -0.14221E-03  9383   0.115E-01    0.876E-02
RMM:   7    -0.555100403476E+03   -0.97767E-04   -0.61485E-04  9792   0.612E-02    0.133E-01
RMM:   8    -0.555100235492E+03    0.16798E-03   -0.20881E-04  9111   0.433E-02    0.390E-02
RMM:   9    -0.555100234169E+03    0.13231E-05   -0.14745E-04 10293   0.250E-02    0.298E-02
RMM:  10    -0.555100231216E+03    0.29531E-05   -0.51509E-05  9427   0.185E-02    0.189E-02
RMM:  11    -0.555100230808E+03    0.40758E-06   -0.21826E-05  8113   0.107E-02    0.135E-02
RMM:  12    -0.555100230544E+03    0.26451E-06   -0.72718E-06  6416   0.693E-03
  34 F= -.55510023E+03 E0= -.55509456E+03  d E =-.619168E-02
 trial-energy change:   -0.006192  1 .order   -0.006079   -0.011693   -0.000465
 step:   2.3310(harm=  2.3364)  dis= 0.05144  next Energy=  -555.100240 (dE=-0.620E-02)
 bond charge predicted
       N       E                     dE             d eps       ncg     rms          rms(c)
DAV:   1    -0.555100240799E+03   -0.99908E-05   -0.36252E-03  9640   0.134E-01    0.181E-02
RMM:   2    -0.555100252680E+03   -0.11881E-04   -0.79790E-05 10365   0.246E-02    0.263E-02
RMM:   3    -0.555100247507E+03    0.51733E-05   -0.18788E-05  7990   0.155E-02    0.176E-02
RMM:   4    -0.555100254521E+03   -0.70143E-05   -0.14718E-05  7932   0.855E-03    0.249E-02
RMM:   5    -0.555100249621E+03    0.49003E-05   -0.83921E-06  6636   0.951E-03    0.123E-02
RMM:   6    -0.555100248752E+03    0.86900E-06   -0.31599E-06  5609   0.673E-03
  35 F= -.55510025E+03 E0= -.55509459E+03  d E =-.620989E-02
 curvature:  -6.60 expect dE=-0.164E-01 dE for cont linesearch -0.582E-07
 trial: gam= 0.35669 g(F)=  0.249E-02 g(S)=  0.000E+00 ort = 0.161E-04 (trialstep = 0.226E+01)
 search vector abs. value=  0.626E-02
 bond charge predicted
       N       E                     dE             d eps       ncg     rms          rms(c)
DAV:   1    -0.555105376684E+03   -0.51271E-02   -0.50640E-01  8128   0.152E+00    0.193E-01
RMM:   2    -0.555106035282E+03   -0.65860E-03   -0.59922E-03 10444   0.215E-01    0.184E-01
RMM:   3    -0.555106640556E+03   -0.60527E-03   -0.16435E-03 10220   0.108E-01    0.275E-01
RMM:   4    -0.555106275739E+03    0.36482E-03   -0.16281E-03  9540   0.111E-01    0.205E-01
RMM:   5    -0.555105811828E+03    0.46391E-03   -0.77451E-04  8937   0.904E-02    0.122E-01
RMM:   6    -0.555105662302E+03    0.14953E-03   -0.24281E-04  9491   0.466E-02    0.492E-02
RMM:   7    -0.555105654347E+03    0.79552E-05   -0.97287E-05  9620   0.246E-02    0.345E-02
RMM:   8    -0.555105649352E+03    0.49948E-05   -0.40195E-05  8548   0.164E-02    0.181E-02
RMM:   9    -0.555105646656E+03    0.26958E-05   -0.15571E-05  7226   0.923E-03    0.636E-03
RMM:  10    -0.555105649102E+03   -0.24457E-05   -0.59508E-06  6379   0.518E-03    0.521E-03
RMM:  11    -0.555105651077E+03   -0.19756E-05   -0.20273E-06  5285   0.533E-03    0.467E-03
RMM:  12    -0.555105651962E+03   -0.88405E-06   -0.10314E-06  4893   0.424E-03
  36 F= -.55510565E+03 E0= -.55509993E+03  d E =-.540321E-02
 ZBRENT: can't locate minimum, use default step
 trial-energy change:   -0.005403  1 .order   -0.005386   -0.005643   -0.005130
 step:   9.0438(harm= 24.8736)  dis= 0.11820  next Energy=  -555.119441 (dE=-0.192E-01)
 bond charge predicted
       N       E                     dE             d eps       ncg     rms          rms(c)
DAV:   1    -0.555115790972E+03   -0.10140E-01   -0.45227E+00  8096   0.455E+00    0.584E-01
RMM:   2    -0.555121596790E+03   -0.58058E-02   -0.54660E-02 10420   0.654E-01    0.564E-01
RMM:   3    -0.555126989582E+03   -0.53928E-02   -0.14725E-02 10182   0.327E-01    0.823E-01
RMM:   4    -0.555123628543E+03    0.33610E-02   -0.15132E-02  9599   0.335E-01    0.609E-01
RMM:   5    -0.555119291335E+03    0.43372E-02   -0.72681E-03  8943   0.280E-01    0.335E-01
RMM:   6    -0.555117985928E+03    0.13054E-02   -0.21172E-03  9435   0.138E-01    0.115E-01
RMM:   7    -0.555118039615E+03   -0.53687E-04   -0.86029E-04  9950   0.699E-02    0.123E-01
RMM:   8    -0.555117948804E+03    0.90811E-04   -0.31351E-04  9410   0.485E-02    0.586E-02
RMM:   9    -0.555117916455E+03    0.32348E-04   -0.17129E-04  9851   0.290E-02    0.213E-02
RMM:  10    -0.555117930830E+03   -0.14375E-04   -0.68913E-05 10345   0.145E-02    0.177E-02
RMM:  11    -0.555117937615E+03   -0.67846E-05   -0.21992E-05  7958   0.124E-02    0.157E-02
RMM:  12    -0.555117939838E+03   -0.22238E-05   -0.71462E-06  6388   0.792E-03    0.828E-03
RMM:  13    -0.555117947552E+03   -0.77131E-05   -0.53069E-06  6218   0.564E-03    0.743E-03
RMM:  14    -0.555117952815E+03   -0.52631E-05   -0.27494E-06  5652   0.562E-03    0.426E-03
RMM:  15    -0.555117957999E+03   -0.51848E-05   -0.14671E-06  5157   0.382E-03    0.229E-03
RMM:  16    -0.555117962568E+03   -0.45688E-05   -0.80013E-07  4989   0.281E-03    0.200E-03
RMM:  17    -0.555117965857E+03   -0.32888E-05   -0.54816E-07  4851   0.246E-03    0.172E-03
RMM:  18    -0.555117969747E+03   -0.38902E-05   -0.51503E-07  4773   0.192E-03    0.102E-03
RMM:  19    -0.555117977326E+03   -0.75789E-05   -0.12295E-06  5142   0.183E-03    0.105E-03
RMM:  20    -0.555117979505E+03   -0.21790E-05   -0.40446E-07  4416   0.162E-03    0.607E-04
RMM:  21    -0.555117982466E+03   -0.29609E-05   -0.46738E-07  3641   0.115E-03    0.455E-04
RMM:  22    -0.555117985395E+03   -0.29293E-05   -0.51894E-07  4114   0.139E-03    0.346E-04
RMM:  23    -0.555117987275E+03   -0.18796E-05   -0.42453E-07  3918   0.119E-03    0.246E-04
RMM:  24    -0.555117988048E+03   -0.77339E-06   -0.24691E-07  3331   0.115E-03
  37 F= -.55511799E+03 E0= -.55511209E+03  d E =-.177393E-01
 curvature: -15.91 expect dE=-0.453E-01 dE for cont linesearch -0.406E-02
 ZBRENT: increasing intervall
 opt :  22.6094  next Energy=  -555.121514 (dE=-0.213E-01)
 bond charge predicted
       N       E                     dE             d eps       ncg     rms          rms(c)
DAV:   1    -0.555105562715E+03    0.12425E-01   -0.17517E+01  8096   0.900E+00    0.118E+00
RMM:   2    -0.555126733734E+03   -0.21171E-01   -0.22257E-01 10339   0.134E+00    0.112E+00
RMM:   3    -0.555151357363E+03   -0.24624E-01   -0.59908E-02 10191   0.664E-01    0.167E+00
RMM:   4    -0.555133528930E+03    0.17828E-01   -0.59210E-02  9629   0.662E-01    0.116E+00
RMM:   5    -0.555118252917E+03    0.15276E-01   -0.29430E-02  9033   0.560E-01    0.673E-01
RMM:   6    -0.555112935261E+03    0.53177E-02   -0.85529E-03  9434   0.281E-01    0.207E-01
RMM:   7    -0.555113270230E+03   -0.33497E-03   -0.33796E-03  9930   0.140E-01    0.263E-01
RMM:   8    -0.555112772674E+03    0.49756E-03   -0.11790E-03  9451   0.957E-02    0.117E-01
[...]
RMM:   3    -0.555153937929E+03   -0.27394E-03   -0.89322E-04 10007   0.852E-02    0.200E-01
RMM:   4    -0.555153816559E+03    0.12137E-03   -0.93668E-04  9535   0.846E-02    0.168E-01
RMM:   5    -0.555153499694E+03    0.31687E-03   -0.44936E-04  8723   0.723E-02    0.740E-02
RMM:   6    -0.555153449587E+03    0.50107E-04   -0.14401E-04  9461   0.341E-02    0.408E-02
RMM:   7    -0.555153443306E+03    0.62814E-05   -0.60116E-05  8980   0.198E-02    0.295E-02
RMM:   8    -0.555153438784E+03    0.45213E-05   -0.27605E-05  7890   0.138E-02    0.167E-02
RMM:   9    -0.555153435083E+03    0.37015E-05   -0.10867E-05  6669   0.809E-03    0.525E-03
RMM:  10    -0.555153435569E+03   -0.48628E-06   -0.44051E-06  6012   0.550E-03
  53 F= -.55515344E+03 E0= -.55514700E+03  d E =-.116924E-02
 curvature: -10.56 expect dE=-0.264E-02 dE for cont linesearch -0.374E-07
 trial: gam= 1.19038 g(F)=  0.250E-03 g(S)=  0.000E+00 ort = 0.126E-05 (trialstep = 0.273E+01)
 search vector abs. value=  0.890E-03
 bond charge predicted
       N       E                     dE             d eps       ncg     rms          rms(c)
DAV:   1    -0.555153720574E+03   -0.28549E-03   -0.10684E-01  8384   0.725E-01    0.945E-02
RMM:   2    -0.555153835662E+03   -0.11509E-03   -0.15873E-03 10383   0.112E-01    0.868E-02
RMM:   3    -0.555154031114E+03   -0.19545E-03   -0.41077E-04 10201   0.552E-02    0.143E-01
RMM:   4    -0.555153863478E+03    0.16764E-03   -0.38549E-04  9702   0.535E-02    0.920E-02
RMM:   5    -0.555153797073E+03    0.66405E-04   -0.20687E-04  9140   0.452E-02    0.621E-02
RMM:   6    -0.555153753749E+03    0.43323E-04   -0.76902E-05  9252   0.264E-02    0.267E-02
RMM:   7    -0.555153754687E+03   -0.93748E-06   -0.34778E-05  8234   0.157E-02    0.277E-02
RMM:   8    -0.555153748892E+03    0.57949E-05   -0.14299E-05  7255   0.113E-02    0.140E-02
RMM:   9    -0.555153746675E+03    0.22171E-05   -0.61819E-06  6250   0.752E-03    0.474E-03
RMM:  10    -0.555153747006E+03   -0.33128E-06   -0.31100E-06  5700   0.483E-03
  54 F= -.55515375E+03 E0= -.55514739E+03  d E =-.311437E-03
 trial-energy change:   -0.000311  1 .order   -0.000302   -0.000686    0.000083
 step:   2.4542(harm=  2.4351)  dis= 0.00360  next Energy=  -555.153751 (dE=-0.316E-03)
 bond charge predicted
       N       E                     dE             d eps       ncg     rms          rms(c)
DAV:   1    -0.555153749962E+03   -0.32870E-05   -0.10851E-03  9248   0.741E-02    0.992E-03
RMM:   2    -0.555153751801E+03   -0.18390E-05   -0.19122E-05  8916   0.128E-02    0.102E-02
RMM:   3    -0.555153752473E+03   -0.67192E-06   -0.49355E-06  6109   0.842E-03    0.128E-02
RMM:   4    -0.555153753393E+03   -0.92016E-06   -0.31197E-06  5634   0.595E-03    0.133E-02
RMM:   5    -0.555153751275E+03    0.21175E-05   -0.17412E-06  5222   0.581E-03    0.450E-03
RMM:   6    -0.555153751275E+03    0.61664E-09   -0.71107E-07  4549   0.343E-03
  55 F= -.55515375E+03 E0= -.55514739E+03  d E =-.315706E-03
 curvature:  -4.29 expect dE=-0.124E-03 dE for cont linesearch -0.145E-07
 trial: gam= 0.15257 g(F)=  0.289E-04 g(S)=  0.000E+00 ort = 0.173E-05 (trialstep = 0.268E+01)
 search vector abs. value=  0.502E-04
 reached required accuracy - stopping structural energy minimisation
 augmentation electrons   27.788572605413361     
 soft         electrons   239.33200407393903     
 augmentation electrons   27.788572605413361     
 soft         electrons   239.33200407393903     
 augmentation electrons   27.788572605413361     
 soft         electrons   239.33200407393903     
 augmentation electrons   27.788572605413361     
 soft         electrons   239.33200407393903     
 augmentation electrons   27.788572605413361     
 soft         electrons   239.33200407393903     
 augmentation electrons   27.788572605413361     
 soft         electrons   239.33200407393903     
 augmentation electrons   27.788572605413361     
 soft         electrons   239.33200407393903     
 augmentation electrons   27.788572605413361     
 soft         electrons   239.33200407393903     
 augmentation electrons   27.788572605413361     
 soft         electrons   239.33200407393903     
 augmentation electrons   27.788572605413361     
 soft         electrons   239.33200407393903     
 augmentation electrons   27.788572605413361     
 soft         electrons   239.33200407393903     
 augmentation electrons   27.788572605413361     
 soft         electrons   239.33200407393903     
 augmentation electrons   27.788572605413361     
 soft         electrons   239.33200407393903     
 augmentation electrons   27.788572605413361     
 soft         electrons   239.33200407393903     
 augmentation electrons   27.788572605413361     
 soft         electrons   239.33200407393903     
 augmentation electrons   27.788572605413361     
 augmentation electrons   27.788572605413361     
 soft         electrons   239.33200407393903     
 augmentation electrons   27.788572605413361     
 soft         electrons   239.33200407393903     
 augmentation electrons   27.788572605413361     
 soft         electrons   239.33200407393903     
 augmentation electrons   27.788572605413361     
 soft         electrons   239.33200407393903     
 augmentation electrons   27.788572605413361     
 soft         electrons   239.33200407393903     
 augmentation electrons   27.788572605413361     
 soft         electrons   239.33200407393903     
 augmentation electrons   27.788572605413361     
 soft         electrons   239.33200407393903     
 augmentation electrons   27.788572605413361     
 soft         electrons   239.33200407393903     
 augmentation electrons   27.788572605413361     
 soft         electrons   239.33200407393903     
 augmentation electrons   27.788572605413361     
 soft         electrons   239.33200407393903     
 augmentation electrons   27.788572605413361     
 soft         electrons   239.33200407393903     
 augmentation electrons   27.788572605413361     
 soft         electrons   239.33200407393903     
 augmentation electrons   27.788572605413361     
 soft         electrons   239.33200407393903     
 augmentation electrons   27.788572605413361     
 soft         electrons   239.33200407393903     
 augmentation electrons   27.788572605413361     
 soft         electrons   239.33200407393903     
 augmentation electrons   27.788572605413361     
 soft         electrons   239.33200407393903     
 augmentation electrons   27.788572605413361     
 soft         electrons   239.33200407393903     
 augmentation electrons   27.788572605413361     
 soft         electrons   239.33200407393903     
 augmentation electrons   27.788572605413361     
 soft         electrons   239.33200407393903     
 augmentation electrons   27.788572605413361     
 soft         electrons   239.33200407393903     
 augmentation electrons   27.788572605413361     
 soft         electrons   239.33200407393903     
 augmentation electrons   27.788572605413361     
 soft         electrons   239.33200407393903     
 augmentation electrons   27.788572605413361     
 soft         electrons   239.33200407393903     
 augmentation electrons   27.788572605413361     
 soft         electrons   239.33200407393903     
 augmentation electrons   27.788572605413361     
 soft         electrons   239.33200407393903     
 augmentation electrons   27.788572605413361     
 soft         electrons   239.33200407393903     
 augmentation electrons   27.788572605413361     
 soft         electrons   239.33200407393903     
 augmentation electrons   27.788572605413361     
 soft         electrons   239.33200407393903     
 augmentation electrons   27.788572605413361     
 soft         electrons   239.33200407393903     
 augmentation electrons   27.788572605413361     
 soft         electrons   239.33200407393903     
 augmentation electrons   27.788572605413361     
 soft         electrons   239.33200407393903     
 augmentation electrons   27.788572605413361     
 soft         electrons   239.33200407393903     
 augmentation electrons   27.788572605413361     
 soft         electrons   239.33200407393903     
 augmentation electrons   27.788572605413361     
 soft         electrons   239.33200407393903     
 augmentation electrons   27.788572605413361     
 soft         electrons   239.33200407393903     
 augmentation electrons   27.788572605413361     
 soft         electrons   239.33200407393903     
 augmentation electrons   27.788572605413361     
 soft         electrons   239.33200407393903     
 augmentation electrons   27.788572605413361     
 soft         electrons   239.33200407393903     
 augmentation electrons   27.788572605413361     
 soft         electrons   239.33200407393903     
 augmentation electrons   27.788572605413361     
 soft         electrons   239.33200407393903     
 augmentation electrons   27.788572605413361     
 soft         electrons   239.33200407393903     
 augmentation electrons   27.788572605413361     
 soft         electrons   239.33200407393903     
 augmentation electrons   27.788572605413361     
 soft         electrons   239.33200407393903     
 augmentation electrons   27.788572605413361     
 soft         electrons   239.33200407393903     
 augmentation electrons   27.788572605413361     
 soft         electrons   239.33200407393903     
 augmentation electrons   27.788572605413361     
 soft         electrons   239.33200407393903     
 augmentation electrons   27.788572605413361     
 soft         electrons   239.33200407393903     
 augmentation electrons   27.788572605413361     
 soft         electrons   239.33200407393903     
 augmentation electrons   27.788572605413361     
 soft         electrons   239.33200407393903     
 augmentation electrons   27.788572605413361     
 soft         electrons   239.33200407393903     
 augmentation electrons   27.788572605413361     
 soft         electrons   239.33200407393903     
 augmentation electrons   27.788572605413361     
 soft         electrons   239.33200407393903     
 augmentation electrons   27.788572605413361     
 soft         electrons   239.33200407393903     
 augmentation electrons   27.788572605413361     
 soft         electrons   239.33200407393903     
 augmentation electrons   27.788572605413361     
 soft         electrons   239.33200407393903     
 augmentation electrons   27.788572605413361     
 soft         electrons   239.33200407393903     
 soft         electrons   239.33200407393903     
 total        electrons   267.12057667935238     
 total        electrons   267.12057667935238     
 total        electrons   267.12057667935238     
 total        electrons   267.12057667935238     
 total        electrons   267.12057667935238     
 total        electrons   267.12057667935238     
 total        electrons   267.12057667935238     
 total        electrons   267.12057667935238     
 total        electrons   267.12057667935238     
 total        electrons   267.12057667935238     
 total        electrons   267.12057667935238     
 total        electrons   267.12057667935238     
 total        electrons   267.12057667935238     
 total        electrons   267.12057667935238     
 total        electrons   267.12057667935238     
 total        electrons   267.12057667935238     
 total        electrons   267.12057667935238     
 total        electrons   267.12057667935238     
 total        electrons   267.12057667935238     
 total        electrons   267.12057667935238     
 total        electrons   267.12057667935238     
 total        electrons   267.12057667935238     
 total        electrons   267.12057667935238     
 total        electrons   267.12057667935238     
 total        electrons   267.12057667935238     
 total        electrons   267.12057667935238     
 total        electrons   267.12057667935238     
 total        electrons   267.12057667935238     
 total        electrons   267.12057667935238     
 total        electrons   267.12057667935238     
 total        electrons   267.12057667935238     
 total        electrons   267.12057667935238     
 total        electrons   267.12057667935238     
 total        electrons   267.12057667935238     
 total        electrons   267.12057667935238     
 total        electrons   267.12057667935238     
 total        electrons   267.12057667935238     
 total        electrons   267.12057667935238     
 total        electrons   267.12057667935238     
 total        electrons   267.12057667935238     
 total        electrons   267.12057667935238     
 total        electrons   267.12057667935238     
 total        electrons   267.12057667935238     
 total        electrons   267.12057667935238     
 total        electrons   267.12057667935238     
 total        electrons   267.12057667935238     
 total        electrons   267.12057667935238     
 total        electrons   267.12057667935238     
 total        electrons   267.12057667935238     
 total        electrons   267.12057667935238     
 total        electrons   267.12057667935238     
 total        electrons   267.12057667935238     
 total        electrons   267.12057667935238     
 total        electrons   267.12057667935238     
 total        electrons   267.12057667935238     
 total        electrons   267.12057667935238     
 total        electrons   267.12057667935238     
 total        electrons   267.12057667935238     
 total        electrons   267.12057667935238     
 total        electrons   267.12057667935238     
 total        electrons   267.12057667935238     
 total        electrons   267.12057667935238     
 total        electrons   267.12057667935238     
 total        electrons   267.12057667935238     
 total        electrons   267.12057667935238     
 total        electrons   267.12057667935238     
 total        electrons   267.12057667935238     
 total        electrons   267.12057667935238     
 total        electrons   267.12057667935238     
 total        electrons   267.12057667935238     
 total        electrons   267.12057667935238     
 total        electrons   267.12057667935238     
Note: The following floating-point exceptions are signalling: IEEE_OVERFLOW_FLAG
Note: The following floating-point exceptions are signalling: IEEE_OVERFLOW_FLAG
Note: The following floating-point exceptions are signalling: IEEE_OVERFLOW_FLAG
Note: The following floating-point exceptions are signalling: IEEE_OVERFLOW_FLAG
Note: The following floating-point exceptions are signalling: IEEE_OVERFLOW_FLAG
Note: The following floating-point exceptions are signalling: IEEE_OVERFLOW_FLAG
Note: The following floating-point exceptions are signalling: IEEE_OVERFLOW_FLAG
Note: The following floating-point exceptions are signalling: IEEE_OVERFLOW_FLAG
Note: The following floating-point exceptions are signalling: IEEE_OVERFLOW_FLAG
Note: The following floating-point exceptions are signalling: IEEE_OVERFLOW_FLAG
Note: The following floating-point exceptions are signalling: IEEE_OVERFLOW_FLAG
Note: The following floating-point exceptions are signalling: IEEE_OVERFLOW_FLAG
Note: The following floating-point exceptions are signalling: IEEE_OVERFLOW_FLAG
Note: The following floating-point exceptions are signalling: IEEE_OVERFLOW_FLAG
Note: The following floating-point exceptions are signalling: IEEE_OVERFLOW_FLAG
Note: The following floating-point exceptions are signalling: IEEE_OVERFLOW_FLAG
Note: The following floating-point exceptions are signalling: IEEE_OVERFLOW_FLAG
Note: The following floating-point exceptions are signalling: IEEE_OVERFLOW_FLAG
Note: The following floating-point exceptions are signalling: IEEE_OVERFLOW_FLAG
Note: The following floating-point exceptions are signalling: IEEE_OVERFLOW_FLAG
Note: The following floating-point exceptions are signalling: IEEE_OVERFLOW_FLAG
Note: The following floating-point exceptions are signalling: IEEE_OVERFLOW_FLAG
Note: The following floating-point exceptions are signalling: IEEE_OVERFLOW_FLAG
Note: The following floating-point exceptions are signalling: IEEE_OVERFLOW_FLAG
Note: The following floating-point exceptions are signalling: IEEE_OVERFLOW_FLAG
Note: The following floating-point exceptions are signalling: IEEE_OVERFLOW_FLAG
Note: The following floating-point exceptions are signalling: IEEE_OVERFLOW_FLAG
Note: The following floating-point exceptions are signalling: IEEE_OVERFLOW_FLAG
Note: The following floating-point exceptions are signalling: IEEE_OVERFLOW_FLAG
Note: The following floating-point exceptions are signalling: IEEE_INVALID_FLAG IEEE_OVERFLOW_FLAG
Note: The following floating-point exceptions are signalling: IEEE_OVERFLOW_FLAG
Note: The following floating-point exceptions are signalling: IEEE_OVERFLOW_FLAG
Note: The following floating-point exceptions are signalling: IEEE_OVERFLOW_FLAG
Note: The following floating-point exceptions are signalling: IEEE_OVERFLOW_FLAG
Note: The following floating-point exceptions are signalling: IEEE_INVALID_FLAG IEEE_OVERFLOW_FLAG
Note: The following floating-point exceptions are signalling: IEEE_OVERFLOW_FLAG
Note: The following floating-point exceptions are signalling: IEEE_INVALID_FLAG IEEE_OVERFLOW_FLAG
Note: The following floating-point exceptions are signalling: IEEE_OVERFLOW_FLAG
Note: The following floating-point exceptions are signalling: IEEE_OVERFLOW_FLAG
Note: The following floating-point exceptions are signalling: IEEE_OVERFLOW_FLAG
Note: The following floating-point exceptions are signalling: IEEE_OVERFLOW_FLAG
Note: The following floating-point exceptions are signalling: IEEE_OVERFLOW_FLAG
Note: The following floating-point exceptions are signalling: IEEE_OVERFLOW_FLAG
Note: The following floating-point exceptions are signalling: IEEE_OVERFLOW_FLAG
Note: The following floating-point exceptions are signalling: IEEE_OVERFLOW_FLAG
Note: The following floating-point exceptions are signalling: IEEE_OVERFLOW_FLAG
Note: The following floating-point exceptions are signalling: IEEE_OVERFLOW_FLAG
Note: The following floating-point exceptions are signalling: IEEE_OVERFLOW_FLAG
Note: The following floating-point exceptions are signalling: IEEE_OVERFLOW_FLAG
Note: The following floating-point exceptions are signalling: IEEE_OVERFLOW_FLAG
Note: The following floating-point exceptions are signalling: IEEE_OVERFLOW_FLAG
Note: The following floating-point exceptions are signalling: IEEE_OVERFLOW_FLAG
Note: The following floating-point exceptions are signalling: IEEE_OVERFLOW_FLAG
Note: The following floating-point exceptions are signalling: IEEE_OVERFLOW_FLAG
Note: The following floating-point exceptions are signalling: IEEE_OVERFLOW_FLAG
Note: The following floating-point exceptions are signalling: IEEE_OVERFLOW_FLAG
Note: The following floating-point exceptions are signalling: IEEE_OVERFLOW_FLAG
Note: The following floating-point exceptions are signalling: IEEE_OVERFLOW_FLAG
Note: The following floating-point exceptions are signalling: IEEE_OVERFLOW_FLAG
Note: The following floating-point exceptions are signalling: IEEE_OVERFLOW_FLAG
Note: The following floating-point exceptions are signalling: IEEE_OVERFLOW_FLAG
Note: The following floating-point exceptions are signalling: IEEE_OVERFLOW_FLAG
Note: The following floating-point exceptions are signalling: IEEE_OVERFLOW_FLAG
Note: The following floating-point exceptions are signalling: IEEE_OVERFLOW_FLAG
Note: The following floating-point exceptions are signalling: IEEE_OVERFLOW_FLAG
Note: The following floating-point exceptions are signalling: IEEE_OVERFLOW_FLAG
Note: The following floating-point exceptions are signalling: IEEE_OVERFLOW_FLAG
Note: The following floating-point exceptions are signalling: IEEE_OVERFLOW_FLAG
Note: The following floating-point exceptions are signalling: IEEE_OVERFLOW_FLAG
Note: The following floating-point exceptions are signalling: IEEE_OVERFLOW_FLAG
Note: The following floating-point exceptions are signalling: IEEE_OVERFLOW_FLAG
Note: The following floating-point exceptions are signalling: IEEE_OVERFLOW_FLAG
