   55   55    1    1
  0.1383486E+02  0.6088057E-09  0.6088057E-09  0.2372246E-08  0.5000000E-15
   1.0000000000000000E-004
  CAR 
 Name                                    
    201     41    132

  0.3742002E-15  0.3742002E-15  0.1262379E-14  0.1234568E-01
    1      -11.798968   1.000000
    2      -11.219485   1.000000
    3      -10.388481   1.000000
    4       -9.059149   1.000000
    5       -8.926062   1.000000
    6       -8.918466   1.000000
    7       -8.536551   1.000000
    8       -8.344448   1.000000
    9       -8.212210   1.000000
   10       -8.093442   1.000000
   11       -8.036692   1.000000
   12       -7.983526   1.000000
   13       -7.958526   1.000000
   14       -7.947045   1.000000
   15       -7.658675   1.000000
   16       -7.632091   1.000000
   17       -7.596255   1.000000
   18       -7.368878   1.000000
   19       -7.297740   1.000000
   20       -7.172163   1.000000
   21       -6.723117   1.000000
   22       -6.440737   1.000000
   23       -6.370714   1.000000
   24       -6.286850   1.000000
   25       -6.234442   1.000000
   26       -6.158441   1.000000
   27       -6.147293   1.000000
   28       -6.095083   1.000000
   29       -5.571393   1.000000
   30       -5.558132   1.000000
   31       -4.996549   1.000000
   32       -4.952414   1.000000
   33       -4.860818   1.000000
   34       -4.825064   1.000000
   35       -4.571491   1.000000
   36       -4.502530   1.000000
   37       -4.311214   1.000000
   38       -3.920836   1.000000
   39       -3.423384   1.000000
   40       -3.406312   1.000000
   41       -3.237897   1.000000
   42       -3.217642   1.000000
   43       -2.970561   1.000000
   44       -2.921272   1.000000
   45       -2.839389   1.000000
   46       -2.738994   1.000000
   47       -2.626344   1.000000
   48       -2.543497   1.000000
   49       -2.524306   1.000000
   50       -2.482997   1.000000
   51       -2.295949   1.000000
   52       -2.222110   1.000000
   53       -2.172708   1.000000
   54       -2.140235   1.000000
   55       -2.100768   1.000000
   56       -2.094110   1.000000
   57       -2.017679   1.000000
   58       -1.952545   1.000000
   59       -1.945127   1.000000
   60       -1.774042   1.000000
   61       -1.594583   1.000000
   62       -1.593767   1.000000
   63       -1.432019   1.000000
   64       -1.420758   1.000000
   65       -1.398119   1.000000
   66       -1.325060   1.000000
   67       -1.087187   1.000000
   68       -1.073732   1.000000
   69       -1.021765   1.000000
   70       -1.014881   1.000000
   71       -0.934313   1.000000
   72       -0.920020   1.000000
   73       -0.895254   1.000000
   74       -0.675618   1.000000
   75       -0.473186   1.000000
   76       -0.381711   1.000000
   77       -0.380539   1.000000
   78       -0.289042   1.000000
   79        0.018312   1.000000
   80        0.060590   1.000000
   81        0.124040   1.000000
   82        0.403248   1.000000
   83        0.523519   1.000000
   84        0.784006   1.000000
   85        0.809253   1.000000
   86        0.893306   1.000000
   87        1.013927   1.000000
   88        1.033340   1.000000
   89        1.165397   1.000000
   90        1.201654   1.000000
   91        1.258642   1.000000
   92        1.310612   1.000000
   93        1.314047   1.000000
   94        1.363893   1.000000
   95        1.376260   1.000000
   96        1.669378   1.000002
   97        1.846251   1.000439
   98        1.912896   1.002005
   99        2.353261   0.642420
  100        2.442793   0.275534
  101        2.451635   0.243357
  102        2.682190  -0.028811
  103        2.884370  -0.001241
  104        2.939366  -0.000336
  105        2.941584  -0.000318
  106        3.036605  -0.000022
  107        3.096767  -0.000003
  108        3.234041  -0.000000
  109        3.282806  -0.000000
  110        3.304013  -0.000000
  111        3.366858  -0.000000
  112        3.396972  -0.000000
  113        3.522965  -0.000000
  114        3.555263  -0.000000
  115        3.618589  -0.000000
  116        3.634310  -0.000000
  117        3.674487  -0.000000
  118        3.710434  -0.000000
  119        3.768237  -0.000000
  120        3.840493  -0.000000
  121        3.900641  -0.000000
  122        3.959779  -0.000000
  123        3.989996  -0.000000
  124        4.047091  -0.000000
  125        4.130216  -0.000000
  126        4.674990  -0.000000
  127        4.752979  -0.000000
  128        5.137146  -0.000000
  129        5.501248  -0.000000
  130        5.667496  -0.000000
  131        5.969257  -0.000000
  132        6.103723  -0.000000

  0.1111111E+00  0.3857958E-15  0.1262379E-14  0.2469136E-01
    1      -11.741656   1.000000
    2      -11.167003   1.000000
    3      -10.348422   1.000000
    4       -9.019605   1.000000
    5       -8.939510   1.000000
    6       -8.895369   1.000000
    7       -8.685007   1.000000
    8       -8.561610   1.000000
    9       -8.372980   1.000000
   10       -8.283070   1.000000
   11       -8.256747   1.000000
   12       -8.212055   1.000000
   13       -8.090733   1.000000
   14       -8.042189   1.000000
   15       -7.488945   1.000000
   16       -7.400114   1.000000
   17       -7.233598   1.000000
   18       -7.204907   1.000000
   19       -7.116737   1.000000
   20       -6.941688   1.000000
   21       -6.764466   1.000000
   22       -6.483708   1.000000
   23       -6.432438   1.000000
   24       -6.284759   1.000000
   25       -6.230169   1.000000
   26       -6.123370   1.000000
   27       -6.057320   1.000000
   28       -5.966120   1.000000
   29       -5.604280   1.000000
   30       -5.499868   1.000000
   31       -4.930250   1.000000
   32       -4.877441   1.000000
   33       -4.828331   1.000000
   34       -4.663917   1.000000
   35       -4.469465   1.000000
   36       -4.352407   1.000000
   37       -4.188332   1.000000
   38       -3.884305   1.000000
   39       -3.472295   1.000000
   40       -3.430248   1.000000
   41       -3.233369   1.000000
   42       -3.199375   1.000000
   43       -3.069682   1.000000
   44       -2.941768   1.000000
   45       -2.901421   1.000000
   46       -2.873539   1.000000
   47       -2.747404   1.000000
   48       -2.646164   1.000000
   49       -2.506411   1.000000
   50       -2.459825   1.000000
   51       -2.323364   1.000000
   52       -2.220134   1.000000
   53       -2.179773   1.000000
   54       -2.099701   1.000000
   55       -2.091187   1.000000
   56       -2.073970   1.000000
   57       -1.988613   1.000000
   58       -1.956516   1.000000
   59       -1.928591   1.000000
   60       -1.774294   1.000000
   61       -1.654928   1.000000
   62       -1.625153   1.000000
   63       -1.538336   1.000000
   64       -1.478870   1.000000
   65       -1.418356   1.000000
   66       -1.357262   1.000000
   67       -1.282861   1.000000
   68       -1.112883   1.000000
   69       -1.078319   1.000000
   70       -0.999089   1.000000
   71       -0.979983   1.000000
   72       -0.914064   1.000000
   73       -0.819044   1.000000
   74       -0.658434   1.000000
   75       -0.510202   1.000000
   76       -0.479445   1.000000
   77       -0.414048   1.000000
   78       -0.248401   1.000000
   79       -0.209735   1.000000
   80       -0.040129   1.000000
   81        0.115107   1.000000
   82        0.203654   1.000000
   83        0.482271   1.000000
   84        0.617044   1.000000
   85        0.647434   1.000000
   86        0.813360   1.000000
   87        0.906173   1.000000
   88        1.093233   1.000000
   89        1.148133   1.000000
   90        1.170166   1.000000
   91        1.203218   1.000000
   92        1.247070   1.000000
   93        1.344009   1.000000
   94        1.402689   1.000000
   95        1.493974   1.000000
   96        1.634606   1.000001
   97        2.080424   1.026058
   98        2.152568   1.035042
   99        2.326024   0.746886
  100        2.427730   0.333403
  101        2.501583   0.093627
  102        2.558668  -0.003020
  103        2.720038  -0.020193
  104        2.812859  -0.005193
  105        2.980820  -0.000112
  106        3.157896  -0.000000
  107        3.175381  -0.000000
  108        3.268769  -0.000000
  109        3.297162  -0.000000
  110        3.342976  -0.000000
  111        3.362922  -0.000000
  112        3.380610  -0.000000
  113        3.451069  -0.000000
  114        3.488708  -0.000000
  115        3.574689  -0.000000
  116        3.600290  -0.000000
  117        3.627807  -0.000000
  118        3.676602  -0.000000
  119        3.692866  -0.000000
  120        3.714056  -0.000000
  121        3.809817  -0.000000
  122        3.839071  -0.000000
  123        3.915368  -0.000000
  124        3.978789  -0.000000
  125        4.130095  -0.000000
  126        4.193262  -0.000000
  127        4.819314  -0.000000
  128        5.287200  -0.000000
  129        5.378894  -0.000000
  130        5.691220  -0.000000
  131        5.993152  -0.000000
  132        6.128056  -0.000000

  0.2222222E+00  0.3935346E-15  0.1262379E-14  0.2469136E-01
    1      -11.571903   1.000000
    2      -11.012039   1.000000
    3      -10.231337   1.000000
    4       -9.257571   1.000000
    5       -9.044742   1.000000
    6       -9.019347   1.000000
    7       -8.899587   1.000000
    8       -8.807301   1.000000
    9       -8.525834   1.000000
   10       -8.473479   1.000000
   11       -8.439323   1.000000
   12       -8.295281   1.000000
   13       -8.288706   1.000000
   14       -8.249897   1.000000
   15       -7.349506   1.000000
   16       -7.210319   1.000000
   17       -7.063673   1.000000
   18       -7.040597   1.000000
   19       -6.918867   1.000000
   20       -6.807902   1.000000
   21       -6.529479   1.000000
   22       -6.412341   1.000000
   23       -6.230894   1.000000
   24       -6.163202   1.000000
   25       -6.091596   1.000000
   26       -5.975356   1.000000
   27       -5.888614   1.000000
   28       -5.746666   1.000000
   29       -5.464385   1.000000
   30       -5.301604   1.000000
   31       -4.787432   1.000000
   32       -4.717415   1.000000
   33       -4.684794   1.000000
   34       -4.304675   1.000000
   35       -4.193419   1.000000
   36       -4.149078   1.000000
   37       -3.824993   1.000000
   38       -3.769337   1.000000
   39       -3.639320   1.000000
   40       -3.552276   1.000000
   41       -3.432310   1.000000
   42       -3.399405   1.000000
   43       -3.296400   1.000000
   44       -3.150328   1.000000
   45       -3.041572   1.000000
   46       -2.856939   1.000000
   47       -2.766162   1.000000
   48       -2.684214   1.000000
   49       -2.508691   1.000000
   50       -2.416558   1.000000
   51       -2.367878   1.000000
   52       -2.323419   1.000000
   53       -2.236056   1.000000
   54       -2.188929   1.000000
   55       -2.155634   1.000000
   56       -2.071144   1.000000
   57       -2.018128   1.000000
   58       -1.987489   1.000000
   59       -1.884611   1.000000
   60       -1.798942   1.000000
   61       -1.736928   1.000000
   62       -1.725352   1.000000
   63       -1.684703   1.000000
   64       -1.601090   1.000000
   65       -1.540781   1.000000
   66       -1.488857   1.000000
   67       -1.406796   1.000000
   68       -1.252134   1.000000
   69       -1.235261   1.000000
   70       -1.185951   1.000000
   71       -1.025422   1.000000
   72       -0.988724   1.000000
   73       -0.857905   1.000000
   74       -0.739189   1.000000
   75       -0.726516   1.000000
   76       -0.559584   1.000000
   77       -0.480694   1.000000
   78       -0.424115   1.000000
   79       -0.243104   1.000000
   80       -0.099065   1.000000
   81        0.020735   1.000000
   82        0.178721   1.000000
   83        0.238942   1.000000
   84        0.353410   1.000000
   85        0.577386   1.000000
   86        0.671012   1.000000
   87        0.717503   1.000000
   88        0.938525   1.000000
   89        1.051365   1.000000
   90        1.090628   1.000000
   91        1.127514   1.000000
   92        1.239258   1.000000
   93        1.335400   1.000000
   94        1.421814   1.000000
   95        1.519188   1.000000
   96        1.661791   1.000002
   97        2.035745   1.016072
   98        2.093875   1.029054
   99        2.315093   0.785144
  100        2.488915   0.125953
  101        2.561370  -0.005756
  102        2.704501  -0.023752
  103        2.838370  -0.003229
  104        2.877296  -0.001449
  105        3.021980  -0.000034
  106        3.044955  -0.000017
  107        3.086186  -0.000005
  108        3.120469  -0.000001
  109        3.167301  -0.000000
  110        3.186128  -0.000000
  111        3.316686  -0.000000
  112        3.365205  -0.000000
  113        3.400674  -0.000000
  114        3.435135  -0.000000
  115        3.457849  -0.000000
  116        3.547403  -0.000000
  117        3.565330  -0.000000
  118        3.605137  -0.000000
  119        3.632944  -0.000000
  120        3.688224  -0.000000
  121        3.704251  -0.000000
  122        3.776843  -0.000000
  123        3.806044  -0.000000
  124        3.965895  -0.000000
  125        4.024206  -0.000000
  126        4.099604  -0.000000
  127        4.129007  -0.000000
  128        4.290863  -0.000000
  129        4.499182  -0.000000
  130        4.613273  -0.000000
  131        5.599725  -0.000000
  132        5.988350  -0.000000

  0.3333333E+00  0.3939838E-15  0.1262379E-14  0.2469136E-01
    1      -11.297162   1.000000
    2      -10.762462   1.000000
    3      -10.046460   1.000000
    4       -9.860119   1.000000
    5       -9.522539   1.000000
    6       -9.238778   1.000000
    7       -8.732433   1.000000
    8       -8.672672   1.000000
    9       -8.618720   1.000000
   10       -8.602145   1.000000
   11       -8.584027   1.000000
   12       -8.448067   1.000000
   13       -8.370713   1.000000
   14       -8.273324   1.000000
   15       -7.708234   1.000000
   16       -7.497772   1.000000
   17       -6.877704   1.000000
   18       -6.824813   1.000000
   19       -6.760738   1.000000
   20       -6.434863   1.000000
   21       -6.297982   1.000000
   22       -6.279260   1.000000
   23       -6.111570   1.000000
   24       -6.092916   1.000000
   25       -5.914070   1.000000
   26       -5.817275   1.000000
   27       -5.387309   1.000000
   28       -5.266074   1.000000
   29       -5.000750   1.000000
   30       -4.892064   1.000000
   31       -4.547696   1.000000
   32       -4.498166   1.000000
   33       -4.412583   1.000000
   34       -4.110943   1.000000
   35       -4.032997   1.000000
   36       -3.993169   1.000000
   37       -3.931997   1.000000
   38       -3.896233   1.000000
   39       -3.822997   1.000000
   40       -3.760048   1.000000
   41       -3.703691   1.000000
   42       -3.627046   1.000000
   43       -3.269042   1.000000
   44       -3.054765   1.000000
   45       -3.005469   1.000000
   46       -2.951447   1.000000
   47       -2.826496   1.000000
   48       -2.745981   1.000000
   49       -2.676811   1.000000
   50       -2.539481   1.000000
   51       -2.447859   1.000000
   52       -2.410218   1.000000
   53       -2.334633   1.000000
   54       -2.314706   1.000000
   55       -2.277108   1.000000
   56       -2.131196   1.000000
   57       -2.110761   1.000000
   58       -2.082372   1.000000
   59       -2.029623   1.000000
   60       -1.923088   1.000000
   61       -1.837004   1.000000
   62       -1.782373   1.000000
   63       -1.751213   1.000000
   64       -1.695191   1.000000
   65       -1.655997   1.000000
   66       -1.551415   1.000000
   67       -1.507809   1.000000
   68       -1.416203   1.000000
   69       -1.378787   1.000000
   70       -1.304317   1.000000
   71       -1.133922   1.000000
   72       -1.032347   1.000000
   73       -0.938005   1.000000
   74       -0.903454   1.000000
   75       -0.787582   1.000000
   76       -0.701957   1.000000
   77       -0.620458   1.000000
   78       -0.416397   1.000000
   79       -0.346704   1.000000
   80       -0.201693   1.000000
   81       -0.037139   1.000000
   82        0.124907   1.000000
   83        0.271819   1.000000
   84        0.349946   1.000000
   85        0.484597   1.000000
   86        0.556094   1.000000
   87        0.695812   1.000000
   88        0.796975   1.000000
   89        0.891097   1.000000
   90        0.988828   1.000000
   91        1.080884   1.000000
   92        1.125597   1.000000
   93        1.283469   1.000000
   94        1.377262   1.000000
   95        1.476978   1.000000
   96        1.821994   1.000237
   97        1.848480   1.000464
   98        1.907730   1.001799
   99        2.122615   1.034130
  100        2.473673   0.170099
  101        2.524062   0.046212
  102        2.625518  -0.035266
  103        2.725564  -0.018964
  104        2.752455  -0.013491
  105        2.767014  -0.010968
  106        2.891898  -0.001048
  107        2.954189  -0.000230
  108        3.040495  -0.000020
  109        3.086780  -0.000004
  110        3.174057  -0.000000
  111        3.211749  -0.000000
  112        3.250609  -0.000000
  113        3.263415  -0.000000
  114        3.378098  -0.000000
  115        3.409667  -0.000000
  116        3.527847  -0.000000
  117        3.589697  -0.000000
  118        3.594720  -0.000000
  119        3.647129  -0.000000
  120        3.706949  -0.000000
  121        3.749270  -0.000000
  122        3.819276  -0.000000
  123        3.869166  -0.000000
  124        3.904177  -0.000000
  125        3.985107  -0.000000
  126        4.104696  -0.000000
  127        4.191760  -0.000000
  128        4.233322  -0.000000
  129        4.355087  -0.000000
  130        4.441855  -0.000000
  131        4.600781  -0.000000
  132        5.540398  -0.000000

  0.4444444E+00  0.3881204E-15  0.1262379E-14  0.2469136E-01
    1      -10.944391   1.000000
    2      -10.440101   1.000000
    3      -10.380469   1.000000
    4       -9.975023   1.000000
    5       -9.808824   1.000000
    6       -9.514022   1.000000
    7       -8.686525   1.000000
    8       -8.682135   1.000000
    9       -8.655179   1.000000
   10       -8.572200   1.000000
   11       -8.512854   1.000000
   12       -8.436798   1.000000
   13       -8.400936   1.000000
   14       -8.262580   1.000000
   15       -8.080735   1.000000
   16       -7.744417   1.000000
   17       -6.827982   1.000000
   18       -6.731622   1.000000
   19       -6.707430   1.000000
   20       -6.240455   1.000000
   21       -6.157521   1.000000
   22       -6.038202   1.000000
   23       -5.966766   1.000000
   24       -5.941147   1.000000
   25       -5.861838   1.000000
   26       -5.756715   1.000000
   27       -4.778314   1.000000
   28       -4.682486   1.000000
   29       -4.560482   1.000000
   30       -4.474166   1.000000
   31       -4.460874   1.000000
   32       -4.379008   1.000000
   33       -4.279542   1.000000
   34       -4.248771   1.000000
   35       -4.164834   1.000000
   36       -4.109230   1.000000
   37       -4.033971   1.000000
   38       -3.916979   1.000000
   39       -3.879565   1.000000
   40       -3.841811   1.000000
   41       -3.776431   1.000000
   42       -3.640871   1.000000
   43       -3.602696   1.000000
   44       -3.465800   1.000000
   45       -3.042617   1.000000
   46       -3.008168   1.000000
   47       -2.855019   1.000000
   48       -2.765934   1.000000
   49       -2.681108   1.000000
   50       -2.574269   1.000000
   51       -2.477150   1.000000
   52       -2.415832   1.000000
   53       -2.372107   1.000000
   54       -2.354544   1.000000
   55       -2.317050   1.000000
   56       -2.293390   1.000000
   57       -2.212022   1.000000
   58       -2.127751   1.000000
   59       -2.083325   1.000000
   60       -2.016128   1.000000
   61       -1.882697   1.000000
   62       -1.841343   1.000000
   63       -1.807947   1.000000
   64       -1.774270   1.000000
   65       -1.718400   1.000000
   66       -1.667754   1.000000
   67       -1.538786   1.000000
   68       -1.453435   1.000000
   69       -1.396251   1.000000
   70       -1.360168   1.000000
   71       -1.206321   1.000000
   72       -1.064093   1.000000
   73       -0.960921   1.000000
   74       -0.940544   1.000000
   75       -0.861247   1.000000
   76       -0.785712   1.000000
   77       -0.662328   1.000000
   78       -0.510140   1.000000
   79       -0.348718   1.000000
   80       -0.230837   1.000000
   81       -0.117519   1.000000
   82        0.107318   1.000000
   83        0.288102   1.000000
   84        0.382536   1.000000
   85        0.432838   1.000000
   86        0.536849   1.000000
   87        0.613754   1.000000
   88        0.762484   1.000000
   89        0.840164   1.000000
   90        0.903660   1.000000
   91        1.066387   1.000000
   92        1.079501   1.000000
   93        1.212473   1.000000
   94        1.490631   1.000000
   95        1.628188   1.000001
   96        1.748501   1.000030
   97        1.912444   1.001986
   98        1.972217   1.006201
   99        1.983811   1.007533
  100        2.075596   1.024947
  101        2.128698   1.034789
  102        2.373920   0.557181
  103        2.494072   0.112308
  104        2.680451  -0.029184
  105        2.719344  -0.020349
  106        2.872842  -0.001595
  107        2.901110  -0.000849
  108        2.941004  -0.000323
  109        2.992164  -0.000082
  110        3.052072  -0.000014
  111        3.138264  -0.000001
  112        3.155202  -0.000000
  113        3.197458  -0.000000
  114        3.277839  -0.000000
  115        3.386165  -0.000000
  116        3.481673  -0.000000
  117        3.539758  -0.000000
  118        3.577328  -0.000000
  119        3.663421  -0.000000
  120        3.712524  -0.000000
  121        3.754670  -0.000000
  122        3.827435  -0.000000
  123        3.902564  -0.000000
  124        4.061972  -0.000000
  125        4.135570  -0.000000
  126        4.205986  -0.000000
  127        4.239792  -0.000000
  128        4.430164  -0.000000
  129        4.658548  -0.000000
  130        4.790461  -0.000000
  131        4.894043  -0.000000
  132        5.078236  -0.000000

  0.3742002E-15  0.1111111E+00  0.1262379E-14  0.2469136E-01
    1      -11.741655   1.000000
    2      -11.167002   1.000000
    3      -10.348423   1.000000
    4       -9.019608   1.000000
    5       -8.939509   1.000000
    6       -8.895381   1.000000
    7       -8.685078   1.000000
    8       -8.561539   1.000000
    9       -8.373059   1.000000
   10       -8.282996   1.000000
   11       -8.256576   1.000000
   12       -8.212107   1.000000
   13       -8.090767   1.000000
   14       -8.042169   1.000000
   15       -7.489041   1.000000
   16       -7.400042   1.000000
   17       -7.233697   1.000000
   18       -7.204978   1.000000
   19       -7.116725   1.000000
   20       -6.941488   1.000000
   21       -6.764363   1.000000
   22       -6.483909   1.000000
   23       -6.432335   1.000000
   24       -6.284755   1.000000
   25       -6.230130   1.000000
   26       -6.123343   1.000000
   27       -6.057420   1.000000
   28       -5.966296   1.000000
   29       -5.605143   1.000000
   30       -5.499617   1.000000
   31       -4.929390   1.000000
   32       -4.877556   1.000000
   33       -4.828227   1.000000
   34       -4.663908   1.000000
   35       -4.468935   1.000000
   36       -4.352476   1.000000
   37       -4.188869   1.000000
   38       -3.884328   1.000000
   39       -3.472324   1.000000
   40       -3.430200   1.000000
   41       -3.233053   1.000000
   42       -3.199592   1.000000
   43       -3.069534   1.000000
   44       -2.941952   1.000000
   45       -2.901245   1.000000
   46       -2.873760   1.000000
   47       -2.747623   1.000000
   48       -2.645504   1.000000
   49       -2.506822   1.000000
   50       -2.460108   1.000000
   51       -2.322868   1.000000
   52       -2.220421   1.000000
   53       -2.180066   1.000000
   54       -2.099442   1.000000
   55       -2.091225   1.000000
   56       -2.073788   1.000000
   57       -1.987952   1.000000
   58       -1.956978   1.000000
   59       -1.928709   1.000000
   60       -1.774331   1.000000
   61       -1.655069   1.000000
   62       -1.624698   1.000000
   63       -1.538453   1.000000
   64       -1.478544   1.000000
   65       -1.418655   1.000000
   66       -1.358160   1.000000
   67       -1.282474   1.000000
   68       -1.112803   1.000000
   69       -1.077920   1.000000
   70       -0.998900   1.000000
   71       -0.979746   1.000000
   72       -0.914195   1.000000
   73       -0.819986   1.000000
   74       -0.658343   1.000000
   75       -0.510082   1.000000
   76       -0.479989   1.000000
   77       -0.414207   1.000000
   78       -0.248517   1.000000
   79       -0.209279   1.000000
   80       -0.039473   1.000000
   81        0.114519   1.000000
   82        0.204152   1.000000
   83        0.481814   1.000000
   84        0.616675   1.000000
   85        0.647918   1.000000
   86        0.813511   1.000000
   87        0.905993   1.000000
   88        1.093887   1.000000
   89        1.147965   1.000000
   90        1.170021   1.000000
   91        1.203237   1.000000
   92        1.246370   1.000000
   93        1.344887   1.000000
   94        1.402229   1.000000
   95        1.493857   1.000000
   96        1.634917   1.000001
   97        2.079670   1.025885
   98        2.153265   1.034980
   99        2.325965   0.747098
  100        2.427925   0.332631
  101        2.500573   0.096055
  102        2.558963  -0.003326
  103        2.720003  -0.020201
  104        2.813251  -0.005157
  105        2.980945  -0.000112
  106        3.158566  -0.000000
  107        3.175169  -0.000000
  108        3.268790  -0.000000
  109        3.297116  -0.000000
  110        3.342623  -0.000000
  111        3.362857  -0.000000
  112        3.380651  -0.000000
  113        3.451224  -0.000000
  114        3.486731  -0.000000
  115        3.575457  -0.000000
  116        3.604219  -0.000000
  117        3.620417  -0.000000
  118        3.671087  -0.000000
  119        3.707054  -0.000000
  120        3.778672  -0.000000
  121        3.818720  -0.000000
  122        3.872325  -0.000000
  123        3.897681  -0.000000
  124        3.978877  -0.000000
  125        4.089209  -0.000000
  126        4.534040  -0.000000
  127        4.739529  -0.000000
  128        5.287807  -0.000000
  129        5.633472  -0.000000
  130        5.699968  -0.000000
  131        6.075513  -0.000000
  132        6.167230  -0.000000

  0.1111111E+00  0.1111111E+00  0.1262379E-14  0.2469136E-01
    1      -11.627516   1.000000
    2      -11.062978   1.000000
    3      -10.269360   1.000000
    4       -8.997312   1.000000
    5       -8.976979   1.000000
    6       -8.945198   1.000000
    7       -8.836608   1.000000
    8       -8.836251   1.000000
    9       -8.746923   1.000000
   10       -8.566371   1.000000
   11       -8.520271   1.000000
   12       -8.265110   1.000000
   13       -8.076989   1.000000
   14       -7.681008   1.000000
   15       -7.649359   1.000000
   16       -7.213031   1.000000
   17       -7.204040   1.000000
   18       -7.061876   1.000000
   19       -6.957491   1.000000
   20       -6.940791   1.000000
   21       -6.459424   1.000000
   22       -6.455245   1.000000
   23       -6.398491   1.000000
   24       -6.170770   1.000000
   25       -6.133717   1.000000
   26       -6.077356   1.000000
   27       -5.807205   1.000000
   28       -5.716347   1.000000
   29       -5.501012   1.000000
   30       -5.397782   1.000000
   31       -5.081467   1.000000
   32       -4.980692   1.000000
   33       -4.461871   1.000000
   34       -4.409074   1.000000
   35       -4.256275   1.000000
   36       -4.111031   1.000000
   37       -3.957041   1.000000
   38       -3.827046   1.000000
   39       -3.628174   1.000000
   40       -3.560957   1.000000
   41       -3.427909   1.000000
   42       -3.305057   1.000000
   43       -3.119948   1.000000
   44       -3.061857   1.000000
   45       -2.950921   1.000000
   46       -2.858034   1.000000
   47       -2.735266   1.000000
   48       -2.651454   1.000000
   49       -2.545607   1.000000
   50       -2.505232   1.000000
   51       -2.365425   1.000000
   52       -2.310132   1.000000
   53       -2.143080   1.000000
   54       -2.136925   1.000000
   55       -2.094248   1.000000
   56       -2.063858   1.000000
   57       -2.031072   1.000000
   58       -2.003582   1.000000
   59       -1.874585   1.000000
   60       -1.842475   1.000000
   61       -1.702484   1.000000
   62       -1.680620   1.000000
   63       -1.636258   1.000000
   64       -1.527684   1.000000
   65       -1.508492   1.000000
   66       -1.422642   1.000000
   67       -1.390375   1.000000
   68       -1.228464   1.000000
   69       -1.201221   1.000000
   70       -1.094293   1.000000
   71       -0.984077   1.000000
   72       -0.952958   1.000000
   73       -0.935820   1.000000
   74       -0.738008   1.000000
   75       -0.734068   1.000000
   76       -0.493851   1.000000
   77       -0.449274   1.000000
   78       -0.272321   1.000000
   79       -0.241743   1.000000
   80       -0.135380   1.000000
   81        0.053251   1.000000
   82        0.165971   1.000000
   83        0.173388   1.000000
   84        0.394237   1.000000
   85        0.638887   1.000000
   86        0.700572   1.000000
   87        0.923487   1.000000
   88        1.014323   1.000000
   89        1.058501   1.000000
   90        1.060725   1.000000
   91        1.127518   1.000000
   92        1.205712   1.000000
   93        1.328570   1.000000
   94        1.329896   1.000000
   95        1.510992   1.000000
   96        1.705798   1.000008
   97        2.166551   1.032853
   98        2.185030   1.026346