   73   73    1    1
  0.2139262E+02  0.1053953E-08  0.6141200E-09  0.2412750E-08  0.5000000E-15
   1.0000000000000000E-004
  CAR 
 Name                                    
    283     23    184

  0.3742002E-15  0.3742002E-15  0.1262379E-14  0.2222222E-01
    1      -13.993120   1.000000
    2      -12.860707   1.000000
    3      -12.799575   1.000000
    4      -12.749153   1.000000
    5      -11.833254   1.000000
    6      -11.669673   1.000000
    7      -11.650045   1.000000
    8      -11.613153   1.000000
    9      -11.437745   1.000000
   10      -11.291997   1.000000
   11      -11.177740   1.000000
   12      -11.095056   1.000000
   13      -11.070096   1.000000
   14      -10.745226   1.000000
   15      -10.483384   1.000000
   16      -10.235472   1.000000
   17      -10.181503   1.000000
   18      -10.148731   1.000000
   19       -9.804134   1.000000
   20       -9.727397   1.000000
   21       -9.683039   1.000000
   22       -9.543568   1.000000
   23       -9.455580   1.000000
   24       -9.306766   1.000000
   25       -8.918602   1.000000
   26       -8.878090   1.000000
   27       -8.627789   1.000000
   28       -8.499263   1.000000
   29       -8.425325   1.000000
   30       -8.271556   1.000000
   31       -8.174844   1.000000
   32       -7.873387   1.000000
   33       -7.716890   1.000000
   34       -7.333720   1.000000
   35       -7.262529   1.000000
   36       -7.204788   1.000000
   37       -7.101594   1.000000
   38       -7.013628   1.000000
   39       -6.951114   1.000000
   40       -6.768569   1.000000
   41       -6.749467   1.000000
   42       -6.735848   1.000000
   43       -6.616457   1.000000
   44       -6.581059   1.000000
   45       -6.502944   1.000000
   46       -6.448308   1.000000
   47       -6.429281   1.000000
   48       -6.187166   1.000000
   49       -6.119611   1.000000
   50       -6.094185   1.000000
   51       -5.888007   1.000000
   52       -5.854030   1.000000
   53       -5.742518   1.000000
   54       -5.639502   1.000000
   55       -5.612520   1.000000
   56       -5.596666   1.000000
   57       -5.470243   1.000000
   58       -5.394791   1.000000
   59       -5.380008   1.000000
   60       -5.234653   1.000000
   61       -5.192356   1.000000
   62       -4.986916   1.000000
   63       -4.898073   1.000000
   64       -4.722595   1.000000
   65       -4.718165   1.000000
   66       -4.702798   1.000000
   67       -4.664107   1.000000
   68       -4.599906   1.000000
   69       -4.491644   1.000000
   70       -4.436684   1.000000
   71       -4.382355   1.000000
   72       -4.291536   1.000000
   73       -4.264480   1.000000
   74       -4.163399   1.000000
   75       -4.146193   1.000000
   76       -4.123756   1.000000
   77       -4.080079   1.000000
   78       -3.995356   1.000000
   79       -3.952219   1.000000
   80       -3.946476   1.000000
   81       -3.933171   1.000000
   82       -3.882551   1.000000
   83       -3.846769   1.000000
   84       -3.819188   1.000000
   85       -3.752363   1.000000
   86       -3.648727   1.000000
   87       -3.620736   1.000000
   88       -3.591939   1.000000
   89       -3.578170   1.000000
   90       -3.495907   1.000000
   91       -3.455812   1.000000
   92       -3.367750   1.000000
   93       -3.216354   1.000000
   94       -3.063646   1.000000
   95       -3.033996   1.000000
   96       -2.988179   1.000000
   97       -2.846333   1.000000
   98       -2.768534   1.000000
   99       -2.751734   1.000000
  100       -2.734641   1.000000
  101       -2.618278   1.000000
  102       -2.450825   1.000000
  103       -2.424822   1.000000
  104       -2.396198   1.000000
  105       -2.393896   1.000000
  106       -2.299886   1.000000
  107       -2.160879   1.000000
  108       -2.156461   1.000000
  109       -2.142235   1.000000
  110       -2.020387   1.000000
  111       -1.979080   1.000000
  112       -1.959555   1.000000
  113       -1.903344   1.000000
  114       -1.837006   1.000000
  115       -1.780940   1.000000
  116       -1.731400   1.000000
  117       -1.653002   1.000000
  118       -1.642156   1.000000
  119       -1.611345   1.000000
  120       -1.484755   1.000000
  121       -1.273891   1.000000
  122       -1.038129   1.000000
  123       -1.001837   1.000000
  124       -0.844327   1.000000
  125       -0.765976   1.000000
  126       -0.741549   1.000000
  127       -0.726233   1.000000
  128       -0.453557   1.000000
  129       -0.386674   1.000000
  130       -0.344209   1.000000
  131       -0.218209   1.000000
  132       -0.182110   1.000000
  133       -0.103482   1.000000
  134       -0.016319   1.000000
  135        0.172387   1.000280
  136        0.211053   1.001723
  137        0.262376   1.011035
  138        0.318117   1.033765
  139        0.319510   1.034128
  140        0.348711   1.028163
  141        0.397340   0.894313
  142        0.495927   0.164701
  143        0.532042   0.009694
  144        0.584412  -0.034119
  145        0.605069  -0.026238
  146        0.642876  -0.010596
  147        0.652435  -0.007868
  148        0.756079  -0.000074
  149        0.805555  -0.000003
  150        0.810951  -0.000002
  151        1.036376  -0.000000
  152        1.089594  -0.000000
  153        1.154364  -0.000000
  154        1.168536  -0.000000
  155        1.225868  -0.000000
  156        1.267675  -0.000000
  157        1.315094  -0.000000
  158        1.331372  -0.000000
  159        1.358676  -0.000000
  160        1.414105  -0.000000
  161        1.440182  -0.000000
  162        1.462752  -0.000000
  163        1.513785  -0.000000
  164        1.573724  -0.000000
  165        1.653274  -0.000000
  166        1.702089  -0.000000
  167        1.707397  -0.000000
  168        1.718481  -0.000000
  169        1.721273  -0.000000
  170        1.749696  -0.000000
  171        1.782803  -0.000000
  172        1.810006  -0.000000
  173        1.841119  -0.000000
  174        1.901409  -0.000000
  175        1.968989  -0.000000
  176        2.041551  -0.000000
  177        2.155337  -0.000000
  178        2.340908  -0.000000
  179        2.351254  -0.000000
  180        2.485175  -0.000000
  181        2.578454  -0.000000
  182        2.792238  -0.000000
  183        2.998883  -0.000000
  184        3.754555   0.000000

  0.2000000E+00  0.3742002E-15  0.1262379E-14  0.4444444E-01
    1      -13.944545   1.000000
    2      -13.237426   1.000000
    3      -12.704897   1.000000
    4      -12.349649   1.000000
    5      -12.043116   1.000000
    6      -11.822764   1.000000
    7      -11.665914   1.000000
    8      -11.367479   1.000000
    9      -11.289174   1.000000
   10      -11.207840   1.000000
   11      -11.143258   1.000000
   12      -11.133603   1.000000
   13      -10.980803   1.000000
   14      -10.811570   1.000000
   15      -10.603703   1.000000
   16      -10.550036   1.000000
   17      -10.545450   1.000000
   18       -9.836117   1.000000
   19       -9.757455   1.000000
   20       -9.702620   1.000000
   21       -9.539374   1.000000
   22       -9.503102   1.000000
   23       -9.450000   1.000000
   24       -9.405472   1.000000
   25       -9.081516   1.000000
   26       -8.845638   1.000000
   27       -8.457524   1.000000
   28       -8.371249   1.000000
   29       -8.223820   1.000000
   30       -8.158520   1.000000
   31       -8.147887   1.000000
   32       -8.101121   1.000000
   33       -7.616882   1.000000
   34       -7.523520   1.000000
   35       -7.378743   1.000000
   36       -7.283526   1.000000
   37       -7.207031   1.000000
   38       -7.141563   1.000000
   39       -7.028168   1.000000
   40       -6.848340   1.000000
   41       -6.739618   1.000000
   42       -6.685712   1.000000
   43       -6.657096   1.000000
   44       -6.554085   1.000000
   45       -6.507552   1.000000
   46       -6.421240   1.000000
   47       -6.209509   1.000000
   48       -6.195984   1.000000
   49       -6.097509   1.000000
   50       -6.051513   1.000000
   51       -5.849554   1.000000
   52       -5.787929   1.000000
   53       -5.700322   1.000000
   54       -5.639252   1.000000
   55       -5.556111   1.000000
   56       -5.500916   1.000000
   57       -5.451085   1.000000
   58       -5.384917   1.000000
   59       -5.365115   1.000000
   60       -5.227280   1.000000
   61       -5.188115   1.000000
   62       -5.155491   1.000000
   63       -4.879455   1.000000
   64       -4.832993   1.000000
   65       -4.769224   1.000000
   66       -4.682852   1.000000
   67       -4.672685   1.000000
   68       -4.596493   1.000000
   69       -4.525821   1.000000
   70       -4.356323   1.000000
   71       -4.340116   1.000000
   72       -4.258646   1.000000
   73       -4.233344   1.000000
   74       -4.194117   1.000000
   75       -4.173609   1.000000
   76       -4.126976   1.000000
   77       -4.093721   1.000000
   78       -3.970830   1.000000
   79       -3.962753   1.000000
   80       -3.942750   1.000000
   81       -3.926923   1.000000
   82       -3.907432   1.000000
   83       -3.842800   1.000000
   84       -3.782124   1.000000
   85       -3.716372   1.000000
   86       -3.628469   1.000000
   87       -3.617306   1.000000
   88       -3.600339   1.000000
   89       -3.552782   1.000000
   90       -3.514469   1.000000
   91       -3.495918   1.000000
   92       -3.433154   1.000000
   93       -3.183783   1.000000
   94       -3.154134   1.000000
   95       -3.111911   1.000000
   96       -2.991625   1.000000
   97       -2.934936   1.000000
   98       -2.832522   1.000000
   99       -2.763692   1.000000
  100       -2.751313   1.000000
  101       -2.693697   1.000000
  102       -2.449794   1.000000
  103       -2.353115   1.000000
  104       -2.292252   1.000000
  105       -2.278510   1.000000
  106       -2.229504   1.000000
  107       -2.219963   1.000000
  108       -2.154840   1.000000
  109       -2.074783   1.000000
  110       -2.005776   1.000000
  111       -1.954273   1.000000
  112       -1.924327   1.000000
  113       -1.853222   1.000000
  114       -1.770018   1.000000
  115       -1.745025   1.000000
  116       -1.731508   1.000000
  117       -1.677018   1.000000
  118       -1.593592   1.000000
  119       -1.491792   1.000000
  120       -1.397631   1.000000
  121       -1.272803   1.000000
  122       -1.103660   1.000000
  123       -1.045948   1.000000
  124       -0.887214   1.000000
  125       -0.851365   1.000000
  126       -0.796651   1.000000
  127       -0.761901   1.000000
  128       -0.552318   1.000000
  129       -0.458970   1.000000
  130       -0.449435   1.000000
  131       -0.359023   1.000000
  132       -0.265505   1.000000
  133       -0.197598   1.000000
  134       -0.100016   1.000000
  135        0.035978   1.000000
  136        0.129401   1.000025
  137        0.276970   1.016437
  138        0.320313   1.034321
  139        0.362954   1.009604
  140        0.429362   0.685790
  141        0.499308   0.144704
  142        0.564570  -0.033756
  143        0.596231  -0.030105
  144        0.653637  -0.007565
  145        0.659698  -0.006173
  146        0.662723  -0.005557
  147        0.686990  -0.002200
  148        0.713853  -0.000669
  149        0.757220  -0.000069
  150        0.865369  -0.000000
  151        1.085313  -0.000000
  152        1.150603  -0.000000
  153        1.184793  -0.000000
  154        1.266748  -0.000000
  155        1.270186  -0.000000
  156        1.293474  -0.000000
  157        1.299855  -0.000000
  158        1.320177  -0.000000
  159        1.415802  -0.000000
  160        1.461728  -0.000000
  161        1.487122  -0.000000
  162        1.512894  -0.000000
  163        1.550617  -0.000000
  164        1.584561  -0.000000
  165        1.630321  -0.000000
  166        1.669261  -0.000000
  167        1.694769  -0.000000
  168        1.719940  -0.000000
  169        1.742312  -0.000000
  170        1.764645  -0.000000
  171        1.836530  -0.000000
  172        1.862951  -0.000000
  173        1.910986  -0.000000
  174        1.981884  -0.000000
  175        2.014573  -0.000000
  176        2.051775  -0.000000
  177        2.176047  -0.000000
  178        2.295779  -0.000000
  179        2.308995  -0.000000
  180        2.576990  -0.000000
  181        2.679562  -0.000000
  182        2.759790  -0.000000
  183        2.933554  -0.000000
  184        3.874956   0.000000

  0.4000000E+00  0.3742002E-15  0.1262379E-14  0.4444444E-01
    1      -13.799911   1.000000
    2      -13.562401   1.000000
    3      -12.570800   1.000000
    4      -12.348257   1.000000
    5      -11.808922   1.000000
    6      -11.791040   1.000000
    7      -11.737472   1.000000
    8      -11.288755   1.000000
    9      -11.280140   1.000000
   10      -11.219176   1.000000
   11      -11.109778   1.000000
   12      -11.026901   1.000000
   13      -10.962098   1.000000
   14      -10.848976   1.000000
   15      -10.825021   1.000000
   16      -10.692611   1.000000
   17      -10.669120   1.000000
   18      -10.108154   1.000000
   19       -9.765083   1.000000
   20       -9.675459   1.000000
   21       -9.530110   1.000000
   22       -9.451749   1.000000
   23       -9.345419   1.000000
   24       -9.269935   1.000000
   25       -9.057677   1.000000
   26       -8.821316   1.000000
   27       -8.383282   1.000000
   28       -8.257534   1.000000
   29       -8.020623   1.000000
   30       -7.925925   1.000000
   31       -7.914639   1.000000
   32       -7.902264   1.000000
   33       -7.840246   1.000000
   34       -7.754611   1.000000
   35       -7.640103   1.000000
   36       -7.607262   1.000000
   37       -7.452655   1.000000
   38       -7.292902   1.000000
   39       -7.196167   1.000000
   40       -6.906830   1.000000
   41       -6.758212   1.000000
   42       -6.592877   1.000000
   43       -6.551085   1.000000
   44       -6.528247   1.000000
   45       -6.333244   1.000000
   46       -6.280731   1.000000
   47       -6.217350   1.000000
   48       -6.103849   1.000000
   49       -6.037185   1.000000
   50       -5.982385   1.000000
   51       -5.881538   1.000000
   52       -5.855832   1.000000
   53       -5.733379   1.000000
   54       -5.705526   1.000000
   55       -5.538739   1.000000
   56       -5.481272   1.000000
   57       -5.368179   1.000000
   58       -5.350267   1.000000
   59       -5.270873   1.000000
   60       -5.182310   1.000000
   61       -5.096510   1.000000
   62       -5.027414   1.000000
   63       -4.931376   1.000000
   64       -4.893700   1.000000
   65       -4.786242   1.000000
   66       -4.748791   1.000000
   67       -4.702435   1.000000
   68       -4.579629   1.000000
   69       -4.524813   1.000000
   70       -4.449863   1.000000
   71       -4.392832   1.000000
   72       -4.313093   1.000000
   73       -4.256466   1.000000
   74       -4.167756   1.000000
   75       -4.151662   1.000000
   76       -4.131634   1.000000
   77       -4.109938   1.000000
   78       -3.982328   1.000000
   79       -3.964275   1.000000
   80       -3.947434   1.000000
   81       -3.895944   1.000000
   82       -3.866581   1.000000
   83       -3.839958   1.000000
   84       -3.731503   1.000000
   85       -3.680223   1.000000
   86       -3.626442   1.000000
   87       -3.606158   1.000000
   88       -3.592513   1.000000
   89       -3.589185   1.000000
   90       -3.435841   1.000000
   91       -3.416986   1.000000
   92       -3.332515   1.000000
   93       -3.282761   1.000000
   94       -3.277262   1.000000
   95       -3.191313   1.000000
   96       -3.186837   1.000000
   97       -3.089659   1.000000
   98       -2.976147   1.000000
   99       -2.877019   1.000000
  100       -2.782418   1.000000
  101       -2.542103   1.000000
  102       -2.440978   1.000000
  103       -2.400942   1.000000
  104       -2.295317   1.000000
  105       -2.275089   1.000000
  106       -2.118327   1.000000
  107       -2.062310   1.000000
  108       -2.035766   1.000000
  109       -1.969901   1.000000
  110       -1.875549   1.000000
  111       -1.867413   1.000000
  112       -1.824957   1.000000
  113       -1.805501   1.000000
  114       -1.784751   1.000000
  115       -1.742880   1.000000
  116       -1.671071   1.000000
  117       -1.557905   1.000000
  118       -1.391928   1.000000
  119       -1.345267   1.000000
  120       -1.291642   1.000000
  121       -1.273419   1.000000
  122       -1.208155   1.000000
  123       -1.115884   1.000000
  124       -1.078363   1.000000
  125       -1.007160   1.000000
  126       -0.883275   1.000000
  127       -0.862084   1.000000
  128       -0.841867   1.000000
  129       -0.679083   1.000000
  130       -0.654478   1.000000
  131       -0.464581   1.000000
  132       -0.390221   1.000000
  133       -0.213334   1.000000
  134       -0.167236   1.000000
  135        0.001572   1.000000
  136        0.219287   1.002426
  137        0.252460   1.008130
  138        0.284046   1.019474
  139        0.321331   1.034547
  140        0.383384   0.954735
  141        0.467734   0.368179
  142        0.530127   0.014741
  143        0.568378  -0.034849
  144        0.674536  -0.003604
  145        0.682368  -0.002654
  146        0.710952  -0.000767
  147        0.780265  -0.000018
  148        0.923250  -0.000000
  149        0.942620  -0.000000
  150        0.963717  -0.000000
  151        1.053386  -0.000000
  152        1.184984  -0.000000
  153        1.206755  -0.000000
  154        1.280613  -0.000000
  155        1.329618  -0.000000
  156        1.373816  -0.000000
  157        1.398031  -0.000000
  158        1.474788  -0.000000
  159        1.500136  -0.000000
  160        1.522356  -0.000000
  161        1.559580  -0.000000
  162        1.573103  -0.000000
  163        1.600373  -0.000000
  164        1.625365  -0.000000
  165        1.643804  -0.000000
  166        1.661364  -0.000000
  167        1.704778  -0.000000
  168        1.740250  -0.000000
  169        1.766200  -0.000000
  170        1.796536  -0.000000
  171        1.805695  -0.000000
  172        1.820294  -0.000000
  173        1.891839  -0.000000
  174        1.944559  -0.000000
  175        2.020263  -0.000000
  176        2.045626  -0.000000
  177        2.068566  -0.000000
  178        2.099989  -0.000000
  179        2.148375  -0.000000
  180        2.419551  -0.000000
  181        2.637115  -0.000000
  182        2.787558  -0.000000
  183        2.881239  -0.000000
  184        3.209431   0.000000

  0.3742002E-15  0.1111111E+00  0.1262379E-14  0.4444444E-01
    1      -13.946363   1.000000
    2      -12.821123   1.000000
    3      -12.766733   1.000000
    4      -12.709900   1.000000
    5      -11.937609   1.000000
    6      -11.653397   1.000000
    7      -11.638160   1.000000
    8      -11.619890   1.000000
    9      -11.476790   1.000000
   10      -11.336962   1.000000
   11      -11.153291   1.000000
   12      -11.104017   1.000000
   13      -11.073372   1.000000
   14      -10.717345   1.000000
   15      -10.504440   1.000000
   16      -10.214186   1.000000
   17      -10.162072   1.000000
   18      -10.110091   1.000000
   19       -9.791249   1.000000
   20       -9.730526   1.000000
   21       -9.716750   1.000000
   22       -9.572824   1.000000
   23       -9.469664   1.000000
   24       -9.291861   1.000000
   25       -8.940216   1.000000
   26       -8.855844   1.000000
   27       -8.625850   1.000000
   28       -8.500046   1.000000
   29       -8.411400   1.000000
   30       -8.300124   1.000000
   31       -8.006138   1.000000
   32       -7.889725   1.000000
   33       -7.820880   1.000000
   34       -7.417837   1.000000
   35       -7.370723   1.000000
   36       -7.240115   1.000000
   37       -7.070739   1.000000
   38       -6.995713   1.000000
   39       -6.937361   1.000000
   40       -6.749177   1.000000
   41       -6.710331   1.000000
   42       -6.660101   1.000000
   43       -6.621815   1.000000
   44       -6.585897   1.000000
   45       -6.496424   1.000000
   46       -6.435233   1.000000
   47       -6.426052   1.000000
   48       -6.190992   1.000000
   49       -6.168846   1.000000
   50       -6.029243   1.000000
   51       -5.884157   1.000000
   52       -5.832370   1.000000
   53       -5.714738   1.000000
   54       -5.647249   1.000000
   55       -5.599690   1.000000
   56       -5.580519   1.000000
   57       -5.428931   1.000000
   58       -5.371397   1.000000
   59       -5.301681   1.000000
   60       -5.199612   1.000000
   61       -5.176074   1.000000
   62       -4.991550   1.000000
   63       -4.862301   1.000000
   64       -4.803982   1.000000
   65       -4.673802   1.000000
   66       -4.662629   1.000000
   67       -4.614852   1.000000
   68       -4.593353   1.000000
   69       -4.515198   1.000000
   70       -4.410289   1.000000
   71       -4.379910   1.000000
   72       -4.335345   1.000000
   73       -4.287369   1.000000
   74       -4.193882   1.000000
   75       -4.176731   1.000000
   76       -4.131106   1.000000
   77       -4.082610   1.000000
   78       -4.070207   1.000000
   79       -4.052124   1.000000
   80       -4.022528   1.000000
   81       -3.995729   1.000000
   82       -3.961123   1.000000
   83       -3.793355   1.000000
   84       -3.772735   1.000000
   85       -3.747132   1.000000
   86       -3.702254   1.000000
   87       -3.638847   1.000000
   88       -3.613311   1.000000
   89       -3.551166   1.000000
   90       -3.538354   1.000000
   91       -3.508432   1.000000
   92       -3.428598   1.000000
   93       -3.268027   1.000000
   94       -3.013543   1.000000
   95       -2.942117   1.000000
   96       -2.906257   1.000000
   97       -2.796633   1.000000
   98       -2.777821   1.000000
   99       -2.735570   1.000000
  100       -2.702020   1.000000
  101       -2.629034   1.000000
  102       -2.541217   1.000000
  103       -2.526728   1.000000
  104       -2.412957   1.000000
  105       -2.334633   1.000000
  106       -2.276462   1.000000
  107       -2.248962   1.000000
  108       -2.212230   1.000000
  109       -2.136473   1.000000
  110       -2.059386   1.000000
  111       -2.053089   1.000000
  112       -1.988414   1.000000
  113       -1.870947   1.000000
  114       -1.863166   1.000000
  115       -1.776618   1.000000
  116       -1.752185   1.000000
  117       -1.601053   1.000000
  118       -1.586545   1.000000
  119       -1.545889   1.000000
  120       -1.419423   1.000000
  121       -1.273239   1.000000
  122       -1.010207   1.000000
  123       -0.984709   1.000000
  124       -0.860277   1.000000
  125       -0.787476   1.000000
  126       -0.765864   1.000000
  127       -0.694110   1.000000
  128       -0.604361   1.000000
  129       -0.508465   1.000000
  130       -0.342511   1.000000
  131       -0.235770   1.000000
  132       -0.207592   1.000000
  133       -0.017927   1.000000
  134        0.029692   1.000000
  135        0.113119   1.000009
  136        0.194458   1.000824
  137        0.227339   1.003337
  138        0.259351   1.010082
  139        0.270659   1.013943
  140        0.302055   1.027702
  141        0.394023   0.910454
  142        0.414945   0.790601
  143        0.562444  -0.032874
  144        0.568768  -0.034928
  145        0.573741  -0.035451
  146        0.686603  -0.002235
  147        0.762152  -0.000052
  148        0.783415  -0.000014
  149        0.956095  -0.000000
  150        0.988513  -0.000000
  151        1.079662  -0.000000
  152        1.088572  -0.000000
  153        1.103621  -0.000000
  154        1.226894  -0.000000
  155        1.258418  -0.000000
  156        1.264540  -0.000000
  157        1.304638  -0.000000
  158        1.328956  -0.000000
  159        1.430932  -0.000000
  160        1.449741  -0.000000
  161        1.452905  -0.000000
  162        1.466267  -0.000000
  163        1.493589  -0.000000
  164        1.503465  -0.000000
  165        1.593142  -0.000000
  166        1.646558  -0.000000
  167        1.689041  -0.000000
  168        1.728060  -0.000000
  169        1.757401  -0.000000
  170        1.770237  -0.000000
  171        1.806104  -0.000000
  172        1.850840  -0.000000
  173        1.864499  -0.000000
  174        1.898414  -0.000000
  175        1.924128  -0.000000
  176        1.936824  -0.000000
  177        2.015349  -0.000000
  178        2.035536  -0.000000
  179        2.094564  -0.000000
  180        2.274460  -0.000000
  181        2.429375  -0.000000
  182        2.491656  -0.000000
  183        2.579503  -0.000000
  184        2.797974  -0.000000

  0.2000000E+00  0.1111111E+00  0.1262379E-14  0.4444444E-01
    1      -13.898190   1.000000
    2      -13.197183   1.000000
    3      -12.665948   1.000000
    4      -12.318448   1.000000
    5      -12.012473   1.000000
    6      -11.920582   1.000000
    7      -11.719629   1.000000
    8      -11.389000   1.000000
    9      -11.331241   1.000000
   10      -11.184212   1.000000
   11      -11.164251   1.000000
   12      -11.107747   1.000000
   13      -10.978036   1.000000
   14      -10.790239   1.000000
   15      -10.582234   1.000000
   16      -10.560580   1.000000
   17      -10.525384   1.000000
   18       -9.825431   1.000000
   19       -9.750507   1.000000
   20       -9.708466   1.000000
   21       -9.566126   1.000000
   22       -9.495883   1.000000
   23       -9.456042   1.000000
   24       -9.408291   1.000000
   25       -9.080501   1.000000
   26       -8.848104   1.000000
   27       -8.455548   1.000000
   28       -8.370505   1.000000
   29       -8.229285   1.000000
   30       -8.172898   1.000000
   31       -8.154367   1.000000
   32       -7.941187   1.000000
   33       -7.709619   1.000000
   34       -7.604233   1.000000
   35       -7.439200   1.000000
   36       -7.307388   1.000000
   37       -7.136450   1.000000
   38       -7.107324   1.000000
   39       -7.005461   1.000000
   40       -6.838792   1.000000
   41       -6.727272   1.000000
   42       -6.671270   1.000000
   43       -6.647817   1.000000
   44       -6.611684   1.000000
   45       -6.568941   1.000000
   46       -6.501190   1.000000
   47       -6.241849   1.000000
   48       -6.142513   1.000000
   49       -6.005613   1.000000
   50       -5.965659   1.000000
   51       -5.834139   1.000000
   52       -5.786553   1.000000
   53       -5.682927   1.000000
   54       -5.663888   1.000000
   55       -5.527209   1.000000
   56       -5.502985   1.000000
   57       -5.431385   1.000000
   58       -5.320569   1.000000
   59       -5.295560   1.000000
   60       -5.217136   1.000000
   61       -5.174318   1.000000
   62       -5.142353   1.000000
   63       -4.882864   1.000000
   64       -4.821569   1.000000
   65       -4.742213   1.000000
   66       -4.674261   1.000000
   67       -4.599852   1.000000
   68       -4.577397   1.000000
   69       -4.511951   1.000000
   70       -4.376614   1.000000
   71       -4.368177   1.000000
   72       -4.266239   1.000000
   73       -4.254969   1.000000
   74       -4.192465   1.000000
   75       -4.165132   1.000000
   76       -4.154653   1.000000
   77       -4.136728   1.000000
   78       -4.105129   1.000000
   79       -4.055698   1.000000
   80       -4.025222   1.000000
   81       -3.992227   1.000000
   82       -3.876742   1.000000
   83       -3.837284   1.000000
   84       -3.773452   1.000000
   85       -3.742816   1.000000
   86       -3.660234   1.000000
   87       -3.641425   1.000000
   88       -3.624752   1.000000
   89       -3.594667   1.000000
   90       -3.528364   1.000000
   91       -3.487588   1.000000
   92       -3.396496   1.000000
   93       -3.225497   1.000000
   94       -3.114129   1.000000
   95       -3.018609   1.000000
   96       -2.956622   1.000000
   97       -2.932216   1.000000
   98       -2.852374   1.000000
   99       -2.791714   1.000000
  100       -2.771611   1.000000
  101       -2.674049   1.000000
  102       -2.484259   1.000000
  103       -2.391809   1.000000
  104       -2.374467   1.000000
  105       -2.305200   1.000000
  106       -2.284184   1.000000
  107       -2.167236   1.000000
  108       -2.126601   1.000000
  109       -2.064720   1.000000
  110       -2.054637   1.000000
  111       -1.994400   1.000000
  112       -1.941215   1.000000
  113       -1.853484   1.000000
  114       -1.822776   1.000000
  115       -1.755474   1.000000
  116       -1.728646   1.000000
  117       -1.682222   1.000000
  118       -1.606002   1.000000
  119       -1.430099   1.000000
  120       -1.360733   1.000000
  121       -1.276627   1.000000
  122       -1.064387   1.000000
  123       -1.011527   1.000000
  124       -0.940867   1.000000
  125       -0.894802   1.000000
  126       -0.831946   1.000000
  127       -0.770896   1.000000
  128       -0.681769   1.000000
  129       -0.471352   1.000000
  130       -0.406422   1.000000
  131       -0.251335   1.000000
  132       -0.195330   1.000000
  133       -0.058095   1.000000
  134       -0.019873   1.000000
  135        0.033654   1.000000
  136        0.061982   1.000000
  137        0.156392   1.000120
  138        0.225724   1.003134
  139        0.273751   1.015137
  140        0.439490   0.604473
  141        0.454102   0.481722
  142        0.481075   0.264665
  143        0.517232   0.057654
  144        0.609448  -0.024220
  145        0.624483  -0.017454
  146        0.693441  -0.001679
  147        0.839438  -0.000000
  148        0.851107  -0.000000
  149        0.879213  -0.000000
  150        0.980557  -0.000000
  151        1.042491  -0.000000
  152        1.127975  -0.000000
  153        1.196582  -0.000000
  154        1.270997  -0.000000
  155        1.308368  -0.000000
  156        1.340953  -0.000000
  157        1.364922  -0.000000