 running on   72 total cores
 distrk:  each k-point on   72 cores,    1 groups
 distr:  one band on    9 cores,    8 groups
 using from now: INCAR     
 vasp.5.4.4.18Apr17-6-g9f103f2a35 (build Dec  7 2020 12:43:57) complex           
 POSCAR found type information on POSCAR  Mo V  B  H 
 POSCAR found :  4 types and      73 ions
 scaLAPACK will be used

 ----------------------------------------------------------------------------- 
|                                                                             |
|  ADVICE TO THIS USER RUNNING 'VASP/VAMP'   (HEAR YOUR MASTER'S VOICE ...):  |
|                                                                             |
|      You enforced a specific xc-type in the INCAR file,                     |
|      a different type was found on the POTCAR file                          |
|          I HOPE YOU KNOW, WHAT YOU ARE  DOING                               |
|                                                                             |
 ----------------------------------------------------------------------------- 

 LDA part: xc-table for Pade appr. of Perdew
 POSCAR, INCAR and KPOINTS ok, starting setup
 resort distribution
 resort distribution
 resort distribution
 resort distribution
 resort distribution
 resort distribution
 resort distribution
 resort distribution
 resort distribution
 resort distribution
 resort distribution
 resort distribution
 resort distribution
 resort distribution
 resort distribution
 resort distribution
 resort distribution
 resort distribution
 resort distribution
 resort distribution
 resort distribution
 resort distribution
 resort distribution
 resort distribution
 resort distribution
 resort distribution
 resort distribution
 resort distribution
 resort distribution
 resort distribution
 resort distribution
 resort distribution
 resort distribution
 resort distribution
 resort distribution
 resort distribution
 resort distribution
 resort distribution
 resort distribution
 resort distribution
 resort distribution
 resort distribution
 resort distribution
 resort distribution
 resort distribution
 resort distribution
 resort distribution
 resort distribution
 resort distribution
 resort distribution
 resort distribution
 resort distribution
 resort distribution
 resort distribution
 resort distribution
 resort distribution
 resort distribution
 resort distribution
 resort distribution
 resort distribution
 resort distribution
 resort distribution
 resort distribution
 resort distribution
 resort distribution
 resort distribution
 resort distribution
 resort distribution
 resort distribution
 resort distribution
 resort distribution
 resort distribution
 FFT: planning ...
 WAVECAR not read
 augmentation electrons   283.03096898628223     
 augmentation electrons   283.03096898628223     
 soft         electrons   0.0000000000000000     
 augmentation electrons   283.03096898628223     
 soft         electrons   0.0000000000000000     
 augmentation electrons   283.03096898628223     
 soft         electrons   0.0000000000000000     
 augmentation electrons   283.03096898628223     
 soft         electrons   0.0000000000000000     
 augmentation electrons   283.03096898628223     
 soft         electrons   0.0000000000000000     
 augmentation electrons   283.03096898628223     
 soft         electrons   0.0000000000000000     
 augmentation electrons   283.03096898628223     
 soft         electrons   0.0000000000000000     
 augmentation electrons   283.03096898628223     
 soft         electrons   0.0000000000000000     
 augmentation electrons   283.03096898628223     
 soft         electrons   0.0000000000000000     
 augmentation electrons   283.03096898628223     
 soft         electrons   0.0000000000000000     
 augmentation electrons   283.03096898628223     
 soft         electrons   0.0000000000000000     
 augmentation electrons   283.03096898628223     
 soft         electrons   0.0000000000000000     
 augmentation electrons   283.03096898628223     
 soft         electrons   0.0000000000000000     
 augmentation electrons   283.03096898628223     
 soft         electrons   0.0000000000000000     
 augmentation electrons   283.03096898628223     
 soft         electrons   0.0000000000000000     
 augmentation electrons   283.03096898628223     
 soft         electrons   0.0000000000000000     
 augmentation electrons   283.03096898628223     
 soft         electrons   0.0000000000000000     
 augmentation electrons   283.03096898628223     
 soft         electrons   0.0000000000000000     
 augmentation electrons   283.03096898628223     
 soft         electrons   0.0000000000000000     
 augmentation electrons   283.03096898628223     
 soft         electrons   0.0000000000000000     
 augmentation electrons   283.03096898628223     
 soft         electrons   0.0000000000000000     
 augmentation electrons   283.03096898628223     
 soft         electrons   0.0000000000000000     
 augmentation electrons   283.03096898628223     
 soft         electrons   0.0000000000000000     
 augmentation electrons   283.03096898628223     
 soft         electrons   0.0000000000000000     
 augmentation electrons   283.03096898628223     
 soft         electrons   0.0000000000000000     
 augmentation electrons   283.03096898628223     
 soft         electrons   0.0000000000000000     
 augmentation electrons   283.03096898628223     
 soft         electrons   0.0000000000000000     
 augmentation electrons   283.03096898628223     
 soft         electrons   0.0000000000000000     
 augmentation electrons   283.03096898628223     
 soft         electrons   0.0000000000000000     
 augmentation electrons   283.03096898628223     
 soft         electrons   0.0000000000000000     
 augmentation electrons   283.03096898628223     
 soft         electrons   0.0000000000000000     
 augmentation electrons   283.03096898628223     
 soft         electrons   0.0000000000000000     
 augmentation electrons   283.03096898628223     
 soft         electrons   0.0000000000000000     
 augmentation electrons   283.03096898628223     
 soft         electrons   0.0000000000000000     
 augmentation electrons   283.03096898628223     
 soft         electrons   0.0000000000000000     
 augmentation electrons   283.03096898628223     
 soft         electrons   0.0000000000000000     
 augmentation electrons   283.03096898628223     
 soft         electrons   0.0000000000000000     
 augmentation electrons   283.03096898628223     
 soft         electrons   0.0000000000000000     
 augmentation electrons   283.03096898628223     
 soft         electrons   0.0000000000000000     
 augmentation electrons   283.03096898628223     
 soft         electrons   0.0000000000000000     
 augmentation electrons   283.03096898628223     
 soft         electrons   0.0000000000000000     
 augmentation electrons   283.03096898628223     
 soft         electrons   0.0000000000000000     
 augmentation electrons   283.03096898628223     
 soft         electrons   0.0000000000000000     
 augmentation electrons   283.03096898628223     
 soft         electrons   0.0000000000000000     
 augmentation electrons   283.03096898628223     
 soft         electrons   0.0000000000000000     
 augmentation electrons   283.03096898628223     
 soft         electrons   0.0000000000000000     
 augmentation electrons   283.03096898628223     
 soft         electrons   0.0000000000000000     
 augmentation electrons   283.03096898628223     
 soft         electrons   0.0000000000000000     
 augmentation electrons   283.03096898628223     
 soft         electrons   0.0000000000000000     
 augmentation electrons   283.03096898628223     
 soft         electrons   0.0000000000000000     
 augmentation electrons   283.03096898628223     
 soft         electrons   0.0000000000000000     
 soft         electrons   0.0000000000000000     
 augmentation electrons   283.03096898628223     
 soft         electrons   0.0000000000000000     
 augmentation electrons   283.03096898628223     
 soft         electrons   0.0000000000000000     
 augmentation electrons   283.03096898628223     
 soft         electrons   0.0000000000000000     
 augmentation electrons   283.03096898628223     
 soft         electrons   0.0000000000000000     
 augmentation electrons   283.03096898628223     
 soft         electrons   0.0000000000000000     
 augmentation electrons   283.03096898628223     
 soft         electrons   0.0000000000000000     
 augmentation electrons   283.03096898628223     
 soft         electrons   0.0000000000000000     
 augmentation electrons   283.03096898628223     
 soft         electrons   0.0000000000000000     
 augmentation electrons   283.03096898628223     
 soft         electrons   0.0000000000000000     
 augmentation electrons   283.03096898628223     
 soft         electrons   0.0000000000000000     
 augmentation electrons   283.03096898628223     
 soft         electrons   0.0000000000000000     
 augmentation electrons   283.03096898628223     
 soft         electrons   0.0000000000000000     
 augmentation electrons   283.03096898628223     
 soft         electrons   0.0000000000000000     
 augmentation electrons   283.03096898628223     
 soft         electrons   0.0000000000000000     
 augmentation electrons   283.03096898628223     
 soft         electrons   0.0000000000000000     
 augmentation electrons   283.03096898628223     
 soft         electrons   0.0000000000000000     
 augmentation electrons   283.03096898628223     
 soft         electrons   0.0000000000000000     
 augmentation electrons   283.03096898628223     
 soft         electrons   0.0000000000000000     
 augmentation electrons   283.03096898628223     
 soft         electrons   0.0000000000000000     
 augmentation electrons   283.03096898628223     
 soft         electrons   0.0000000000000000     
 total        electrons   283.03096898628223     
 total        electrons   283.03096898628223     
 total        electrons   283.03096898628223     
 total        electrons   283.03096898628223     
 total        electrons   283.03096898628223     
 total        electrons   283.03096898628223     
 total        electrons   283.03096898628223     
 total        electrons   283.03096898628223     
 total        electrons   283.03096898628223     
 total        electrons   283.03096898628223     
 total        electrons   283.03096898628223     
 total        electrons   283.03096898628223     
 total        electrons   283.03096898628223     
 total        electrons   283.03096898628223     
 total        electrons   283.03096898628223     
 total        electrons   283.03096898628223     
 total        electrons   283.03096898628223     
 total        electrons   283.03096898628223     
 total        electrons   283.03096898628223     
 total        electrons   283.03096898628223     
 total        electrons   283.03096898628223     
 total        electrons   283.03096898628223     
 total        electrons   283.03096898628223     
 total        electrons   283.03096898628223     
 total        electrons   283.03096898628223     
 total        electrons   283.03096898628223     
 total        electrons   283.03096898628223     
 total        electrons   283.03096898628223     
 total        electrons   283.03096898628223     
 total        electrons   283.03096898628223     
 total        electrons   283.03096898628223     
 total        electrons   283.03096898628223     
 total        electrons   283.03096898628223     
 total        electrons   283.03096898628223     
 total        electrons   283.03096898628223     
 total        electrons   283.03096898628223     
 total        electrons   283.03096898628223     
 total        electrons   283.03096898628223     
 total        electrons   283.03096898628223     
 total        electrons   283.03096898628223     
 total        electrons   283.03096898628223     
 total        electrons   283.03096898628223     
 total        electrons   283.03096898628223     
 total        electrons   283.03096898628223     
 total        electrons   283.03096898628223     
 total        electrons   283.03096898628223     
 total        electrons   283.03096898628223     
 total        electrons   283.03096898628223     
 total        electrons   283.03096898628223     
 total        electrons   283.03096898628223     
 total        electrons   283.03096898628223     
 total        electrons   283.03096898628223     
 total        electrons   283.03096898628223     
 total        electrons   283.03096898628223     
 total        electrons   283.03096898628223     
 total        electrons   283.03096898628223     
 total        electrons   283.03096898628223     
 total        electrons   283.03096898628223     
 total        electrons   283.03096898628223     
 total        electrons   283.03096898628223     
 total        electrons   283.03096898628223     
 total        electrons   283.03096898628223     
 total        electrons   283.03096898628223     
 total        electrons   283.03096898628223     
 total        electrons   283.03096898628223     
 total        electrons   283.03096898628223     
 total        electrons   283.03096898628223     
 total        electrons   283.03096898628223     
 total        electrons   283.03096898628223     
 total        electrons   283.03096898628223     
 total        electrons   283.03096898628223     
 total        electrons   283.03096898628223     
 augmentation electrons   997.07757610008707     
 soft         electrons   0.0000000000000000     
 augmentation electrons   997.07757610008707     
 soft         electrons   0.0000000000000000     
 augmentation electrons   997.07757610008707     
 soft         electrons   0.0000000000000000     
 augmentation electrons   997.07757610008707     
 soft         electrons   0.0000000000000000     
 augmentation electrons   997.07757610008707     
 soft         electrons   0.0000000000000000     
 augmentation electrons   997.07757610008707     
 soft         electrons   0.0000000000000000     
 augmentation electrons   997.07757610008707     
 soft         electrons   0.0000000000000000     
 augmentation electrons   997.07757610008707     
 soft         electrons   0.0000000000000000     
 augmentation electrons   997.07757610008707     
 soft         electrons   0.0000000000000000     
 augmentation electrons   997.07757610008707     
 soft         electrons   0.0000000000000000     
 augmentation electrons   997.07757610008707     
 soft         electrons   0.0000000000000000     
 augmentation electrons   997.07757610008707     
 soft         electrons   0.0000000000000000     
 augmentation electrons   997.07757610008707     
 soft         electrons   0.0000000000000000     
 augmentation electrons   997.07757610008707     
 soft         electrons   0.0000000000000000     
 augmentation electrons   997.07757610008707     
 soft         electrons   0.0000000000000000     
 augmentation electrons   997.07757610008707     
 soft         electrons   0.0000000000000000     
 augmentation electrons   997.07757610008707     
 soft         electrons   0.0000000000000000     
 augmentation electrons   997.07757610008707     
 soft         electrons   0.0000000000000000     
 augmentation electrons   997.07757610008707     
 soft         electrons   0.0000000000000000     
 augmentation electrons   997.07757610008707     
 soft         electrons   0.0000000000000000     
 augmentation electrons   997.07757610008707     
 soft         electrons   0.0000000000000000     
 augmentation electrons   997.07757610008707     
 soft         electrons   0.0000000000000000     
 augmentation electrons   997.07757610008707     
 soft         electrons   0.0000000000000000     
 augmentation electrons   997.07757610008707     
 soft         electrons   0.0000000000000000     
 augmentation electrons   997.07757610008707     
 soft         electrons   0.0000000000000000     
 augmentation electrons   997.07757610008707     
 soft         electrons   0.0000000000000000     
 augmentation electrons   997.07757610008707     
 soft         electrons   0.0000000000000000     
 augmentation electrons   997.07757610008707     
 soft         electrons   0.0000000000000000     
 augmentation electrons   997.07757610008707     
 soft         electrons   0.0000000000000000     
 augmentation electrons   997.07757610008707     
 soft         electrons   0.0000000000000000     
 augmentation electrons   997.07757610008707     
 soft         electrons   0.0000000000000000     
 augmentation electrons   997.07757610008707     
 soft         electrons   0.0000000000000000     
 augmentation electrons   997.07757610008707     
 soft         electrons   0.0000000000000000     
 augmentation electrons   997.07757610008707     
 soft         electrons   0.0000000000000000     
 augmentation electrons   997.07757610008707     
 soft         electrons   0.0000000000000000     
 augmentation electrons   997.07757610008707     
 soft         electrons   0.0000000000000000     
 augmentation electrons   997.07757610008707     
 soft         electrons   0.0000000000000000     
 augmentation electrons   997.07757610008707     
 soft         electrons   0.0000000000000000     
 augmentation electrons   997.07757610008707     
 soft         electrons   0.0000000000000000     
 augmentation electrons   997.07757610008707     
 soft         electrons   0.0000000000000000     
 augmentation electrons   997.07757610008707     
 soft         electrons   0.0000000000000000     
 augmentation electrons   997.07757610008707     
 soft         electrons   0.0000000000000000     
 augmentation electrons   997.07757610008707     
 soft         electrons   0.0000000000000000     
 augmentation electrons   997.07757610008707     
 soft         electrons   0.0000000000000000     
 augmentation electrons   997.07757610008707     
 soft         electrons   0.0000000000000000     
 augmentation electrons   997.07757610008707     
 soft         electrons   0.0000000000000000     
 augmentation electrons   997.07757610008707     
 soft         electrons   0.0000000000000000     
 augmentation electrons   997.07757610008707     
 soft         electrons   0.0000000000000000     
 augmentation electrons   997.07757610008707     
 soft         electrons   0.0000000000000000     
 augmentation electrons   997.07757610008707     
 soft         electrons   0.0000000000000000     
 augmentation electrons   997.07757610008707     
 soft         electrons   0.0000000000000000     
 augmentation electrons   997.07757610008707     
 soft         electrons   0.0000000000000000     
 augmentation electrons   997.07757610008707     
 soft         electrons   0.0000000000000000     
 augmentation electrons   997.07757610008707     
 soft         electrons   0.0000000000000000     
 augmentation electrons   997.07757610008707     
 soft         electrons   0.0000000000000000     
 augmentation electrons   997.07757610008707     
 soft         electrons   0.0000000000000000     
 augmentation electrons   997.07757610008707     
 soft         electrons   0.0000000000000000     
 augmentation electrons   997.07757610008707     
 soft         electrons   0.0000000000000000     
 augmentation electrons   997.07757610008707     
 soft         electrons   0.0000000000000000     
 augmentation electrons   997.07757610008707     
 soft         electrons   0.0000000000000000     
 augmentation electrons   997.07757610008707     
 soft         electrons   0.0000000000000000     
 augmentation electrons   997.07757610008707     
 soft         electrons   0.0000000000000000     
 augmentation electrons   997.07757610008707     
 soft         electrons   0.0000000000000000     
 augmentation electrons   997.07757610008707     
 soft         electrons   0.0000000000000000     
 augmentation electrons   997.07757610008707     
 soft         electrons   0.0000000000000000     
 augmentation electrons   997.07757610008707     
 soft         electrons   0.0000000000000000     
 augmentation electrons   997.07757610008707     
 soft         electrons   0.0000000000000000     
 augmentation electrons   997.07757610008707     
 soft         electrons   0.0000000000000000     
 augmentation electrons   997.07757610008707     
 soft         electrons   0.0000000000000000     
 augmentation electrons   997.07757610008707     
 soft         electrons   0.0000000000000000     
 augmentation electrons   997.07757610008707     
 soft         electrons   0.0000000000000000     
 augmentation electrons   997.07757610008707     
 soft         electrons   0.0000000000000000     
 total        electrons   997.07757610008707     
 total        electrons   997.07757610008707     
 total        electrons   997.07757610008707     
 total        electrons   997.07757610008707     
 total        electrons   997.07757610008707     
 total        electrons   997.07757610008707     
 total        electrons   997.07757610008707     
 total        electrons   997.07757610008707     
 total        electrons   997.07757610008707     
 total        electrons   997.07757610008707     
 total        electrons   997.07757610008707     
 total        electrons   997.07757610008707     
 total        electrons   997.07757610008707     
 total        electrons   997.07757610008707     
 total        electrons   997.07757610008707     
 total        electrons   997.07757610008707     
 total        electrons   997.07757610008707     
 total        electrons   997.07757610008707     
 total        electrons   997.07757610008707     
 total        electrons   997.07757610008707     
 total        electrons   997.07757610008707     
 total        electrons   997.07757610008707     
 total        electrons   997.07757610008707     
 total        electrons   997.07757610008707     
 total        electrons   997.07757610008707     
 total        electrons   997.07757610008707     
 total        electrons   997.07757610008707     
 total        electrons   997.07757610008707     
 total        electrons   997.07757610008707     
 total        electrons   997.07757610008707     
 total        electrons   997.07757610008707     
 total        electrons   997.07757610008707     
 total        electrons   997.07757610008707     
 total        electrons   997.07757610008707     
 total        electrons   997.07757610008707     
 total        electrons   997.07757610008707     
 total        electrons   997.07757610008707     
 total        electrons   997.07757610008707     
 total        electrons   997.07757610008707     
 total        electrons   997.07757610008707     
 total        electrons   997.07757610008707     
 total        electrons   997.07757610008707     
 total        electrons   997.07757610008707     
 total        electrons   997.07757610008707     
 total        electrons   997.07757610008707     
 total        electrons   997.07757610008707     
 total        electrons   997.07757610008707     
 total        electrons   997.07757610008707     
 total        electrons   997.07757610008707     
 total        electrons   997.07757610008707     
 total        electrons   997.07757610008707     
 total        electrons   997.07757610008707     
 total        electrons   997.07757610008707     
 total        electrons   997.07757610008707     
 total        electrons   997.07757610008707     
 total        electrons   997.07757610008707     
 total        electrons   997.07757610008707     
 total        electrons   997.07757610008707     
 total        electrons   997.07757610008707     
 total        electrons   997.07757610008707     
 total        electrons   997.07757610008707     
 total        electrons   997.07757610008707     
 total        electrons   997.07757610008707     
 total        electrons   997.07757610008707     
 total        electrons   997.07757610008707     
 total        electrons   997.07757610008707     
 total        electrons   997.07757610008707     
 total        electrons   997.07757610008707     
 total        electrons   997.07757610008707     
 total        electrons   997.07757610008707     
 total        electrons   997.07757610008707     
 total        electrons   997.07757610008707     
 entering main loop
       N       E                     dE             d eps       ncg     rms          rms(c)
DAV:   1     0.247384918006E+04    0.24738E+04   -0.10270E+05  8464   0.126E+03
DAV:   2    -0.191947782080E+03   -0.26658E+04   -0.24766E+04  9768   0.312E+02
DAV:   3    -0.622469182096E+03   -0.43052E+03   -0.40886E+03 11888   0.145E+02
DAV:   4    -0.659354131231E+03   -0.36885E+02   -0.35186E+02 13712   0.462E+01
DAV:   5    -0.661768447812E+03   -0.24143E+01   -0.23280E+01 14456   0.110E+01    0.146E+02
RMM:   6    -0.611144550829E+03    0.50624E+02   -0.11378E+03 13396   0.882E+01    0.702E+01
RMM:   7    -0.674246946766E+03   -0.63102E+02   -0.34972E+02 10908   0.512E+01    0.539E+01
RMM:   8    -0.597294655355E+03    0.76952E+02   -0.11567E+02 10639   0.290E+01    0.359E+01
RMM:   9    -0.574235359752E+03    0.23059E+02   -0.37489E+01 12508   0.141E+01    0.278E+01
RMM:  10    -0.560247260279E+03    0.13988E+02   -0.22129E+01  9922   0.152E+01    0.185E+01
RMM:  11    -0.560021194511E+03    0.22607E+00   -0.72511E+00 11788   0.594E+00    0.155E+01
RMM:  12    -0.560129571062E+03   -0.10838E+00   -0.14796E+00 13356   0.176E+00    0.146E+01
RMM:  13    -0.559949130125E+03    0.18044E+00   -0.91860E-01 10677   0.281E+00    0.130E+01
RMM:  14    -0.560033191045E+03   -0.84061E-01   -0.56724E+00  9638   0.771E+00    0.907E+00
RMM:  15    -0.559313659204E+03    0.71953E+00   -0.13508E+00 10386   0.377E+00    0.519E+00
RMM:  16    -0.559140588927E+03    0.17307E+00   -0.69952E-01 11331   0.215E+00    0.433E+00
RMM:  17    -0.558929817379E+03    0.21077E+00   -0.13704E+00 12865   0.211E+00    0.222E+00
RMM:  18    -0.558933773586E+03   -0.39562E-02   -0.33852E-01 13147   0.929E-01    0.158E+00
RMM:  19    -0.558913954686E+03    0.19819E-01   -0.70468E-02 12510   0.560E-01    0.975E-01
RMM:  20    -0.558908427106E+03    0.55276E-02   -0.40610E-02 11954   0.486E-01    0.796E-01
RMM:  21    -0.558900496526E+03    0.79306E-02   -0.27732E-02 12701   0.343E-01    0.437E-01
RMM:  22    -0.558897052907E+03    0.34436E-02   -0.77434E-03 12234   0.195E-01    0.206E-01
RMM:  23    -0.558896847552E+03    0.20536E-03   -0.43956E-03 12184   0.146E-01    0.232E-01
RMM:  24    -0.558896010632E+03    0.83692E-03   -0.15773E-03 10665   0.111E-01    0.122E-01
RMM:  25    -0.558895587222E+03    0.42341E-03   -0.17336E-03 11903   0.898E-02    0.907E-02
RMM:  26    -0.558895759526E+03   -0.17230E-03   -0.66645E-04 12311   0.488E-02    0.440E-02
RMM:  27    -0.558896360322E+03   -0.60080E-03   -0.53491E-04 11766   0.421E-02    0.585E-02
RMM:  28    -0.558896883293E+03   -0.52297E-03   -0.35576E-04 11252   0.310E-02    0.421E-02
RMM:  29    -0.558897044936E+03   -0.16164E-03   -0.24181E-04 11833   0.255E-02    0.217E-02
RMM:  30    -0.558897155249E+03   -0.11031E-03   -0.83185E-05 11955   0.163E-02    0.176E-02
RMM:  31    -0.558897234785E+03   -0.79536E-04   -0.28889E-05  9174   0.835E-03    0.124E-02
RMM:  32    -0.558897297582E+03   -0.62797E-04   -0.22449E-05  8878   0.852E-03    0.873E-03
RMM:  33    -0.558897418674E+03   -0.12109E-03   -0.10468E-05  8411   0.954E-03    0.869E-03
RMM:  34    -0.558897615434E+03   -0.19676E-03   -0.15844E-05  8214   0.674E-03    0.569E-03
RMM:  35    -0.558897716550E+03   -0.10112E-03   -0.11868E-05  8312   0.657E-03    0.740E-03
RMM:  36    -0.558897773143E+03   -0.56593E-04   -0.73556E-06  7792   0.650E-03    0.353E-03
RMM:  37    -0.558897806295E+03   -0.33153E-04   -0.38717E-06  7591   0.357E-03    0.321E-03
RMM:  38    -0.558897813055E+03   -0.67592E-05   -0.91029E-07  6593   0.293E-03    0.150E-03
RMM:  39    -0.558897818250E+03   -0.51955E-05   -0.56362E-07  6014   0.185E-03    0.147E-03
RMM:  40    -0.558897822976E+03   -0.47261E-05   -0.63208E-07  5556   0.154E-03    0.796E-04
RMM:  41    -0.558897824393E+03   -0.14170E-05   -0.31737E-07  5065   0.139E-03    0.559E-04
RMM:  42    -0.558897824816E+03   -0.42280E-06   -0.17042E-07  4472   0.103E-03
   1 F= -.55889782E+03 E0= -.55889860E+03  d E =0.232819E-02
 augmentation electrons   31.399387214770346     
 soft         electrons   251.69319304371112     
 augmentation electrons   31.399387214770346     
 soft         electrons   251.69319304371112     
 augmentation electrons   31.399387214770346     
 soft         electrons   251.69319304371112     
 augmentation electrons   31.399387214770346     
 soft         electrons   251.69319304371112     
 augmentation electrons   31.399387214770346     
 soft         electrons   251.69319304371112     
 augmentation electrons   31.399387214770346     
 soft         electrons   251.69319304371112     
 augmentation electrons   31.399387214770346     
 soft         electrons   251.69319304371112     
 augmentation electrons   31.399387214770346     
 soft         electrons   251.69319304371112     
 augmentation electrons   31.399387214770346     
 soft         electrons   251.69319304371112     
 augmentation electrons   31.399387214770346     
 soft         electrons   251.69319304371112     
 augmentation electrons   31.399387214770346     
 soft         electrons   251.69319304371112     
 augmentation electrons   31.399387214770346     
 soft         electrons   251.69319304371112     
 augmentation electrons   31.399387214770346     
 soft         electrons   251.69319304371112     
 augmentation electrons   31.399387214770346     
 soft         electrons   251.69319304371112     
 augmentation electrons   31.399387214770346     
 soft         electrons   251.69319304371112     
 augmentation electrons   31.399387214770346     
 soft         electrons   251.69319304371112     
 augmentation electrons   31.399387214770346     
 soft         electrons   251.69319304371112     
 augmentation electrons   31.399387214770346     
 soft         electrons   251.69319304371112     
 augmentation electrons   31.399387214770346     
 soft         electrons   251.69319304371112     
 augmentation electrons   31.399387214770346     
 soft         electrons   251.69319304371112     
 augmentation electrons   31.399387214770346     
 soft         electrons   251.69319304371112     
 augmentation electrons   31.399387214770346     
 soft         electrons   251.69319304371112     
 augmentation electrons   31.399387214770346     
 soft         electrons   251.69319304371112     
 augmentation electrons   31.399387214770346     
 soft         electrons   251.69319304371112     
 augmentation electrons   31.399387214770346     
 soft         electrons   251.69319304371112     
 augmentation electrons   31.399387214770346     
 soft         electrons   251.69319304371112     
 augmentation electrons   31.399387214770346     
 soft         electrons   251.69319304371112     
 augmentation electrons   31.399387214770346     
 soft         electrons   251.69319304371112     
 augmentation electrons   31.399387214770346     
 soft         electrons   251.69319304371112     
 augmentation electrons   31.399387214770346     
 soft         electrons   251.69319304371112     
 augmentation electrons   31.399387214770346     
 soft         electrons   251.69319304371112     
 augmentation electrons   31.399387214770346     
 soft         electrons   251.69319304371112     
 augmentation electrons   31.399387214770346     
 soft         electrons   251.69319304371112     
 augmentation electrons   31.399387214770346     
 soft         electrons   251.69319304371112     
 augmentation electrons   31.399387214770346     
 soft         electrons   251.69319304371112     
 augmentation electrons   31.399387214770346     
 soft         electrons   251.69319304371112     
 augmentation electrons   31.399387214770346     
 soft         electrons   251.69319304371112     
 augmentation electrons   31.399387214770346     
 soft         electrons   251.69319304371112     
 augmentation electrons   31.399387214770346     
 soft         electrons   251.69319304371112     
 augmentation electrons   31.399387214770346     
 soft         electrons   251.69319304371112     
 augmentation electrons   31.399387214770346     
 soft         electrons   251.69319304371112     
 augmentation electrons   31.399387214770346     
 soft         electrons   251.69319304371112     
 augmentation electrons   31.399387214770346     
 soft         electrons   251.69319304371112     
 augmentation electrons   31.399387214770346     
 soft         electrons   251.69319304371112     
 augmentation electrons   31.399387214770346     
 soft         electrons   251.69319304371112     
 augmentation electrons   31.399387214770346     
 soft         electrons   251.69319304371112     
 augmentation electrons   31.399387214770346     
 soft         electrons   251.69319304371112     
 augmentation electrons   31.399387214770346     
 soft         electrons   251.69319304371112     
 augmentation electrons   31.399387214770346     
 soft         electrons   251.69319304371112     
 augmentation electrons   31.399387214770346     
 soft         electrons   251.69319304371112     
 augmentation electrons   31.399387214770346     
 soft         electrons   251.69319304371112     
 augmentation electrons   31.399387214770346     
 soft         electrons   251.69319304371112     
 augmentation electrons   31.399387214770346     
 soft         electrons   251.69319304371112     
 augmentation electrons   31.399387214770346     
 soft         electrons   251.69319304371112     
 augmentation electrons   31.399387214770346     
 soft         electrons   251.69319304371112     
 augmentation electrons   31.399387214770346     
 soft         electrons   251.69319304371112     
 augmentation electrons   31.399387214770346     
 soft         electrons   251.69319304371112     
 augmentation electrons   31.399387214770346     
 soft         electrons   251.69319304371112     
 augmentation electrons   31.399387214770346     
 soft         electrons   251.69319304371112     
 augmentation electrons   31.399387214770346     
 soft         electrons   251.69319304371112     
 augmentation electrons   31.399387214770346     
 soft         electrons   251.69319304371112     
 augmentation electrons   31.399387214770346     
 soft         electrons   251.69319304371112     
 augmentation electrons   31.399387214770346     
 soft         electrons   251.69319304371112     
 augmentation electrons   31.399387214770346     
 soft         electrons   251.69319304371112     
 augmentation electrons   31.399387214770346     
 soft         electrons   251.69319304371112     
 augmentation electrons   31.399387214770346     
 soft         electrons   251.69319304371112     
 augmentation electrons   31.399387214770346     
 soft         electrons   251.69319304371112     
 augmentation electrons   31.399387214770346     
 soft         electrons   251.69319304371112     
 augmentation electrons   31.399387214770346     
 soft         electrons   251.69319304371112     
 augmentation electrons   31.399387214770346     
 soft         electrons   251.69319304371112     
 augmentation electrons   31.399387214770346     
 soft         electrons   251.69319304371112     
 augmentation electrons   31.399387214770346     
 soft         electrons   251.69319304371112     
 total        electrons   283.09258025848146     
 total        electrons   283.09258025848146     
 total        electrons   283.09258025848146     
 total        electrons   283.09258025848146     
 total        electrons   283.09258025848146     
 total        electrons   283.09258025848146     
 total        electrons   283.09258025848146     
 total        electrons   283.09258025848146     
 total        electrons   283.09258025848146     
 total        electrons   283.09258025848146     
 total        electrons   283.09258025848146     
 total        electrons   283.09258025848146     
 total        electrons   283.09258025848146     
 total        electrons   283.09258025848146     
 total        electrons   283.09258025848146     
 total        electrons   283.09258025848146     
 total        electrons   283.09258025848146     
 total        electrons   283.09258025848146     
 total        electrons   283.09258025848146     
 total        electrons   283.09258025848146     
 total        electrons   283.09258025848146     
 total        electrons   283.09258025848146     
 total        electrons   283.09258025848146     
 total        electrons   283.09258025848146     
 total        electrons   283.09258025848146     
 total        electrons   283.09258025848146     
 total        electrons   283.09258025848146     
 total        electrons   283.09258025848146     
 total        electrons   283.09258025848146     
 total        electrons   283.09258025848146     
 total        electrons   283.09258025848146     
 total        electrons   283.09258025848146     
 total        electrons   283.09258025848146     
 total        electrons   283.09258025848146     
 total        electrons   283.09258025848146     
 total        electrons   283.09258025848146     
 total        electrons   283.09258025848146     
 total        electrons   283.09258025848146     
 total        electrons   283.09258025848146     
 total        electrons   283.09258025848146     
 total        electrons   283.09258025848146     
 total        electrons   283.09258025848146     
 total        electrons   283.09258025848146     
 total        electrons   283.09258025848146     
 total        electrons   283.09258025848146     
 total        electrons   283.09258025848146     
 total        electrons   283.09258025848146     
 total        electrons   283.09258025848146     
 total        electrons   283.09258025848146     
 total        electrons   283.09258025848146     
 total        electrons   283.09258025848146     
 total        electrons   283.09258025848146     
 total        electrons   283.09258025848146     
 total        electrons   283.09258025848146     
 total        electrons   283.09258025848146     
 total        electrons   283.09258025848146     
 total        electrons   283.09258025848146     
 total        electrons   283.09258025848146     
 total        electrons   283.09258025848146     
 total        electrons   283.09258025848146     
 total        electrons   283.09258025848146     
 total        electrons   283.09258025848146     
 total        electrons   283.09258025848146     
 total        electrons   283.09258025848146     
 total        electrons   283.09258025848146     
 total        electrons   283.09258025848146     
 total        electrons   283.09258025848146     
 total        electrons   283.09258025848146     
 total        electrons   283.09258025848146     
 total        electrons   283.09258025848146     
 total        electrons   283.09258025848146     
 total        electrons   283.09258025848146     
Note: The following floating-point exceptions are signalling: IEEE_OVERFLOW_FLAG
Note: The following floating-point exceptions are signalling: IEEE_OVERFLOW_FLAG
Note: The following floating-point exceptions are signalling: IEEE_OVERFLOW_FLAG
Note: The following floating-point exceptions are signalling: IEEE_OVERFLOW_FLAG
Note: The following floating-point exceptions are signalling: IEEE_OVERFLOW_FLAG
Note: The following floating-point exceptions are signalling: IEEE_OVERFLOW_FLAG
Note: The following floating-point exceptions are signalling: IEEE_OVERFLOW_FLAG
Note: The following floating-point exceptions are signalling: IEEE_OVERFLOW_FLAG
Note: The following floating-point exceptions are signalling: IEEE_OVERFLOW_FLAG
Note: The following floating-point exceptions are signalling: IEEE_OVERFLOW_FLAG
Note: The following floating-point exceptions are signalling: IEEE_OVERFLOW_FLAG
Note: The following floating-point exceptions are signalling: IEEE_OVERFLOW_FLAG
Note: The following floating-point exceptions are signalling: IEEE_OVERFLOW_FLAG
Note: The following floating-point exceptions are signalling: IEEE_OVERFLOW_FLAG
Note: The following floating-point exceptions are signalling: IEEE_OVERFLOW_FLAG
Note: The following floating-point exceptions are signalling: IEEE_OVERFLOW_FLAG
Note: The following floating-point exceptions are signalling: IEEE_OVERFLOW_FLAG
Note: The following floating-point exceptions are signalling: IEEE_OVERFLOW_FLAG
Note: The following floating-point exceptions are signalling: IEEE_OVERFLOW_FLAG
Note: The following floating-point exceptions are signalling: IEEE_OVERFLOW_FLAG
Note: The following floating-point exceptions are signalling: IEEE_OVERFLOW_FLAG
Note: The following floating-point exceptions are signalling: IEEE_OVERFLOW_FLAG
Note: The following floating-point exceptions are signalling: IEEE_OVERFLOW_FLAG
Note: The following floating-point exceptions are signalling: IEEE_OVERFLOW_FLAG
Note: The following floating-point exceptions are signalling: IEEE_OVERFLOW_FLAG
Note: The following floating-point exceptions are signalling: IEEE_OVERFLOW_FLAG
Note: The following floating-point exceptions are signalling: IEEE_OVERFLOW_FLAG
Note: The following floating-point exceptions are signalling: IEEE_OVERFLOW_FLAG
Note: The following floating-point exceptions are signalling: IEEE_OVERFLOW_FLAG
Note: The following floating-point exceptions are signalling: IEEE_OVERFLOW_FLAG
Note: The following floating-point exceptions are signalling: IEEE_OVERFLOW_FLAG
Note: The following floating-point exceptions are signalling: IEEE_OVERFLOW_FLAG
Note: The following floating-point exceptions are signalling: IEEE_OVERFLOW_FLAG
Note: The following floating-point exceptions are signalling: IEEE_OVERFLOW_FLAG
Note: The following floating-point exceptions are signalling: IEEE_OVERFLOW_FLAG
Note: The following floating-point exceptions are signalling: IEEE_OVERFLOW_FLAG
Note: The following floating-point exceptions are signalling: IEEE_OVERFLOW_FLAG
Note: The following floating-point exceptions are signalling: IEEE_OVERFLOW_FLAG
Note: The following floating-point exceptions are signalling: IEEE_OVERFLOW_FLAG
Note: The following floating-point exceptions are signalling: IEEE_OVERFLOW_FLAG
Note: The following floating-point exceptions are signalling: IEEE_OVERFLOW_FLAG
Note: The following floating-point exceptions are signalling: IEEE_OVERFLOW_FLAG
Note: The following floating-point exceptions are signalling: IEEE_OVERFLOW_FLAG
Note: The following floating-point exceptions are signalling: IEEE_OVERFLOW_FLAG
Note: The following floating-point exceptions are signalling: IEEE_OVERFLOW_FLAG
Note: The following floating-point exceptions are signalling: IEEE_OVERFLOW_FLAG
Note: The following floating-point exceptions are signalling: IEEE_OVERFLOW_FLAG
Note: The following floating-point exceptions are signalling: IEEE_OVERFLOW_FLAG
Note: The following floating-point exceptions are signalling: IEEE_OVERFLOW_FLAG
Note: The following floating-point exceptions are signalling: IEEE_OVERFLOW_FLAG
Note: The following floating-point exceptions are signalling: IEEE_OVERFLOW_FLAG
Note: The following floating-point exceptions are signalling: IEEE_OVERFLOW_FLAG
Note: The following floating-point exceptions are signalling: IEEE_OVERFLOW_FLAG
Note: The following floating-point exceptions are signalling: IEEE_OVERFLOW_FLAG
Note: The following floating-point exceptions are signalling: IEEE_OVERFLOW_FLAG
Note: The following floating-point exceptions are signalling: IEEE_OVERFLOW_FLAG
Note: The following floating-point exceptions are signalling: IEEE_OVERFLOW_FLAG
Note: The following floating-point exceptions are signalling: IEEE_OVERFLOW_FLAG
Note: The following floating-point exceptions are signalling: IEEE_OVERFLOW_FLAG
Note: The following floating-point exceptions are signalling: IEEE_OVERFLOW_FLAG
Note: The following floating-point exceptions are signalling: IEEE_OVERFLOW_FLAG
Note: The following floating-point exceptions are signalling: IEEE_OVERFLOW_FLAG
Note: The following floating-point exceptions are signalling: IEEE_OVERFLOW_FLAG
Note: The following floating-point exceptions are signalling: IEEE_OVERFLOW_FLAG
Note: The following floating-point exceptions are signalling: IEEE_OVERFLOW_FLAG
Note: The following floating-point exceptions are signalling: IEEE_INVALID_FLAG IEEE_OVERFLOW_FLAG
Note: The following floating-point exceptions are signalling: IEEE_OVERFLOW_FLAG
Note: The following floating-point exceptions are signalling: IEEE_OVERFLOW_FLAG
Note: The following floating-point exceptions are signalling: IEEE_OVERFLOW_FLAG
Note: The following floating-point exceptions are signalling: IEEE_OVERFLOW_FLAG
Note: The following floating-point exceptions are signalling: IEEE_OVERFLOW_FLAG
Note: The following floating-point exceptions are signalling: IEEE_OVERFLOW_FLAG
