   73   73    1    1
  0.2115814E+02  0.1036705E-08  0.2428040E-08  0.6136055E-09  0.5000000E-15
   1.0000000000000000E-004
  CAR 
 Name                                    
    277     23    180

  0.3742002E-15  0.1262379E-14  0.3742002E-15  0.2222222E-01
    1      -14.035842   1.000000
    2      -12.871385   1.000000
    3      -12.844180   1.000000
    4      -12.807358   1.000000
    5      -11.914630   1.000000
    6      -11.753616   1.000000
    7      -11.671616   1.000000
    8      -11.492017   1.000000
    9      -11.481376   1.000000
   10      -11.319120   1.000000
   11      -11.248103   1.000000
   12      -11.002915   1.000000
   13      -10.979704   1.000000
   14      -10.615151   1.000000
   15      -10.496923   1.000000
   16      -10.355444   1.000000
   17      -10.172135   1.000000
   18      -10.076812   1.000000
   19       -9.973135   1.000000
   20       -9.613758   1.000000
   21       -9.529721   1.000000
   22       -9.519316   1.000000
   23       -9.420533   1.000000
   24       -9.315459   1.000000
   25       -8.975395   1.000000
   26       -8.817309   1.000000
   27       -8.662336   1.000000
   28       -8.434557   1.000000
   29       -8.240778   1.000000
   30       -8.153329   1.000000
   31       -8.133620   1.000000
   32       -7.834589   1.000000
   33       -7.759987   1.000000
   34       -7.441969   1.000000
   35       -7.207118   1.000000
   36       -7.171670   1.000000
   37       -7.000892   1.000000
   38       -6.886863   1.000000
   39       -6.766178   1.000000
   40       -6.705432   1.000000
   41       -6.690198   1.000000
   42       -6.671123   1.000000
   43       -6.439091   1.000000
   44       -6.406309   1.000000
   45       -6.288429   1.000000
   46       -6.266757   1.000000
   47       -6.145393   1.000000
   48       -6.128495   1.000000
   49       -6.097480   1.000000
   50       -5.900838   1.000000
   51       -5.794427   1.000000
   52       -5.759358   1.000000
   53       -5.633811   1.000000
   54       -5.617130   1.000000
   55       -5.608675   1.000000
   56       -5.477139   1.000000
   57       -5.431497   1.000000
   58       -5.347900   1.000000
   59       -5.202553   1.000000
   60       -5.167115   1.000000
   61       -5.091955   1.000000
   62       -4.706405   1.000000
   63       -4.687381   1.000000
   64       -4.658575   1.000000
   65       -4.536991   1.000000
   66       -4.528190   1.000000
   67       -4.463795   1.000000
   68       -4.424818   1.000000
   69       -4.129162   1.000000
   70       -4.061371   1.000000
   71       -4.031433   1.000000
   72       -4.020014   1.000000
   73       -3.938158   1.000000
   74       -3.936148   1.000000
   75       -3.925187   1.000000
   76       -3.886653   1.000000
   77       -3.864783   1.000000
   78       -3.822596   1.000000
   79       -3.701984   1.000000
   80       -3.583598   1.000000
   81       -3.581530   1.000000
   82       -3.568350   1.000000
   83       -3.555455   1.000000
   84       -3.499882   1.000000
   85       -3.489555   1.000000
   86       -3.486775   1.000000
   87       -3.482375   1.000000
   88       -3.468759   1.000000
   89       -3.438079   1.000000
   90       -3.389811   1.000000
   91       -3.261563   1.000000
   92       -3.089890   1.000000
   93       -2.912926   1.000000
   94       -2.905939   1.000000
   95       -2.888090   1.000000
   96       -2.818993   1.000000
   97       -2.711892   1.000000
   98       -2.704025   1.000000
   99       -2.565943   1.000000
  100       -2.414736   1.000000
  101       -2.299548   1.000000
  102       -2.285143   1.000000
  103       -2.247626   1.000000
  104       -2.233437   1.000000
  105       -2.032833   1.000000
  106       -2.030902   1.000000
  107       -1.997549   1.000000
  108       -1.990272   1.000000
  109       -1.950429   1.000000
  110       -1.898255   1.000000
  111       -1.875810   1.000000
  112       -1.789117   1.000000
  113       -1.763354   1.000000
  114       -1.618262   1.000000
  115       -1.596172   1.000000
  116       -1.561790   1.000000
  117       -1.551098   1.000000
  118       -1.543827   1.000000
  119       -1.419179   1.000000
  120       -1.337055   1.000000
  121       -1.129867   1.000000
  122       -0.911283   1.000000
  123       -0.838066   1.000000
  124       -0.804796   1.000000
  125       -0.605322   1.000000
  126       -0.599138   1.000000
  127       -0.466064   1.000000
  128       -0.421672   1.000000
  129       -0.333527   1.000000
  130       -0.298804   1.000000
  131       -0.045536   1.000000
  132       -0.033216   1.000000
  133        0.100070   1.000357
  134        0.288567   1.004400
  135        0.304632   0.960600
  136        0.316905   0.910534
  137        0.393170   0.347730
  138        0.455912   0.007261
  139        0.485041  -0.032732
  140        0.494629  -0.035343
  141        0.575694  -0.007776
  142        0.626403  -0.001080
  143        0.630507  -0.000896
  144        0.636736  -0.000670
  145        0.645315  -0.000442
  146        0.646035  -0.000427
  147        0.691524  -0.000036
  148        0.711989  -0.000010
  149        0.866791  -0.000000
  150        0.890446  -0.000000
  151        1.055956  -0.000000
  152        1.104061  -0.000000
  153        1.140263  -0.000000
  154        1.190159  -0.000000
  155        1.220819  -0.000000
  156        1.267297  -0.000000
  157        1.281838  -0.000000
  158        1.372478  -0.000000
  159        1.382646  -0.000000
  160        1.400519  -0.000000
  161        1.417207  -0.000000
  162        1.432916  -0.000000
  163        1.446859  -0.000000
  164        1.448046  -0.000000
  165        1.558358  -0.000000
  166        1.651430  -0.000000
  167        1.665176  -0.000000
  168        1.680214  -0.000000
  169        1.710525  -0.000000
  170        1.733355  -0.000000
  171        1.772546  -0.000000
  172        1.779075  -0.000000
  173        1.805954  -0.000000
  174        1.830820  -0.000000
  175        2.345892  -0.000000
  176        2.390424  -0.000000
  177        2.443810  -0.000000
  178        2.619602  -0.000000
  179        2.759152  -0.000000
  180        3.257992   0.000000

  0.2000000E+00  0.1262379E-14  0.3742002E-15  0.4444444E-01
    1      -13.986554   1.000000
    2      -13.266891   1.000000
    3      -12.774026   1.000000
    4      -12.361705   1.000000
    5      -12.098254   1.000000
    6      -11.897180   1.000000
    7      -11.643686   1.000000
    8      -11.358890   1.000000
    9      -11.294133   1.000000
   10      -11.255314   1.000000
   11      -11.174500   1.000000
   12      -11.090550   1.000000
   13      -10.862947   1.000000
   14      -10.691711   1.000000
   15      -10.592615   1.000000
   16      -10.549936   1.000000
   17      -10.488978   1.000000
   18      -10.187966   1.000000
   19       -9.722058   1.000000
   20       -9.555591   1.000000
   21       -9.516447   1.000000
   22       -9.462848   1.000000
   23       -9.390858   1.000000
   24       -9.320378   1.000000
   25       -9.102000   1.000000
   26       -8.857382   1.000000
   27       -8.484811   1.000000
   28       -8.197253   1.000000
   29       -8.153006   1.000000
   30       -8.119897   1.000000
   31       -8.049953   1.000000
   32       -8.046807   1.000000
   33       -7.679283   1.000000
   34       -7.456043   1.000000
   35       -7.359672   1.000000
   36       -7.215429   1.000000
   37       -7.161614   1.000000
   38       -6.955856   1.000000
   39       -6.874507   1.000000
   40       -6.690254   1.000000
   41       -6.655574   1.000000
   42       -6.593517   1.000000
   43       -6.444794   1.000000
   44       -6.430788   1.000000
   45       -6.390175   1.000000
   46       -6.298875   1.000000
   47       -6.170462   1.000000
   48       -6.065194   1.000000
   49       -6.012336   1.000000
   50       -5.992924   1.000000
   51       -5.872504   1.000000
   52       -5.674735   1.000000
   53       -5.632390   1.000000
   54       -5.502402   1.000000
   55       -5.350119   1.000000
   56       -5.334584   1.000000
   57       -5.286323   1.000000
   58       -5.258155   1.000000
   59       -5.218846   1.000000
   60       -5.201111   1.000000
   61       -5.179883   1.000000
   62       -4.939234   1.000000
   63       -4.801606   1.000000
   64       -4.680355   1.000000
   65       -4.560508   1.000000
   66       -4.484284   1.000000
   67       -4.482238   1.000000
   68       -4.399284   1.000000
   69       -4.106983   1.000000
   70       -4.098482   1.000000
   71       -4.086772   1.000000
   72       -4.027646   1.000000
   73       -4.014670   1.000000
   74       -3.960079   1.000000
   75       -3.865536   1.000000
   76       -3.839289   1.000000
   77       -3.803526   1.000000
   78       -3.756838   1.000000
   79       -3.700786   1.000000
   80       -3.653671   1.000000
   81       -3.613030   1.000000
   82       -3.594537   1.000000
   83       -3.574698   1.000000
   84       -3.547551   1.000000
   85       -3.518768   1.000000
   86       -3.457640   1.000000
   87       -3.446904   1.000000
   88       -3.438227   1.000000
   89       -3.422397   1.000000
   90       -3.327417   1.000000
   91       -3.280144   1.000000
   92       -3.112344   1.000000
   93       -2.988411   1.000000
   94       -2.948288   1.000000
   95       -2.887466   1.000000
   96       -2.793553   1.000000
   97       -2.720096   1.000000
   98       -2.676588   1.000000
   99       -2.600872   1.000000
  100       -2.469341   1.000000
  101       -2.322504   1.000000
  102       -2.316374   1.000000
  103       -2.214705   1.000000
  104       -2.160751   1.000000
  105       -2.060858   1.000000
  106       -1.977406   1.000000
  107       -1.962919   1.000000
  108       -1.951838   1.000000
  109       -1.916012   1.000000
  110       -1.911761   1.000000
  111       -1.847380   1.000000
  112       -1.841284   1.000000
  113       -1.695368   1.000000
  114       -1.623387   1.000000
  115       -1.552255   1.000000
  116       -1.478593   1.000000
  117       -1.440730   1.000000
  118       -1.416992   1.000000
  119       -1.392451   1.000000
  120       -1.299292   1.000000
  121       -1.096308   1.000000
  122       -0.951209   1.000000
  123       -0.898415   1.000000
  124       -0.830680   1.000000
  125       -0.722259   1.000000
  126       -0.606309   1.000000
  127       -0.539945   1.000000
  128       -0.421947   1.000000
  129       -0.384438   1.000000
  130       -0.344280   1.000000
  131       -0.206221   1.000000
  132       -0.171057   1.000000
  133       -0.068934   1.000000
  134        0.162278   1.005217
  135        0.167838   1.006334
  136        0.268395   1.030588
  137        0.361524   0.611588
  138        0.462148  -0.006453
  139        0.467110  -0.015134
  140        0.555162  -0.014308
  141        0.590349  -0.004693
  142        0.641800  -0.000525
  143        0.668914  -0.000130
  144        0.669366  -0.000126
  145        0.720109  -0.000006
  146        0.729661  -0.000003
  147        0.772112  -0.000000
  148        0.820816  -0.000000
  149        0.858114  -0.000000
  150        0.898495  -0.000000
  151        1.128168  -0.000000
  152        1.161432  -0.000000
  153        1.203084  -0.000000
  154        1.214492  -0.000000
  155        1.261479  -0.000000
  156        1.281975  -0.000000
  157        1.361601  -0.000000
  158        1.364999  -0.000000
  159        1.383581  -0.000000
  160        1.403208  -0.000000
  161        1.461941  -0.000000
  162        1.477943  -0.000000
  163        1.480000  -0.000000
  164        1.504531  -0.000000
  165        1.550109  -0.000000
  166        1.643031  -0.000000
  167        1.658030  -0.000000
  168        1.681650  -0.000000
  169        1.757087  -0.000000
  170        1.764797  -0.000000
  171        1.819745  -0.000000
  172        1.867605  -0.000000
  173        2.158377  -0.000000
  174        2.286972  -0.000000
  175        2.396650  -0.000000
  176        2.442997  -0.000000
  177        2.497992  -0.000000
  178        2.662504  -0.000000
  179        3.228003   0.000000
  180        3.410271   0.000000

  0.4000000E+00  0.1262379E-14  0.3742002E-15  0.4444444E-01
    1      -13.839861   1.000000
    2      -13.597660   1.000000
    3      -12.639949   1.000000
    4      -12.404303   1.000000
    5      -11.848628   1.000000
    6      -11.807617   1.000000
    7      -11.763226   1.000000
    8      -11.296270   1.000000
    9      -11.218813   1.000000
   10      -11.195119   1.000000
   11      -11.137918   1.000000
   12      -11.038261   1.000000
   13      -10.887069   1.000000
   14      -10.806795   1.000000
   15      -10.720028   1.000000
   16      -10.690500   1.000000
   17      -10.590901   1.000000
   18      -10.268614   1.000000
   19      -10.012529   1.000000
   20       -9.584899   1.000000
   21       -9.493924   1.000000
   22       -9.333803   1.000000
   23       -9.278646   1.000000
   24       -9.236767   1.000000
   25       -9.080002   1.000000
   26       -8.799916   1.000000
   27       -8.401223   1.000000
   28       -8.235981   1.000000
   29       -8.029011   1.000000
   30       -7.837845   1.000000
   31       -7.792235   1.000000
   32       -7.753630   1.000000
   33       -7.749487   1.000000
   34       -7.716522   1.000000
   35       -7.516286   1.000000
   36       -7.436150   1.000000
   37       -7.295560   1.000000
   38       -7.244908   1.000000
   39       -7.063356   1.000000
   40       -6.859487   1.000000
   41       -6.674648   1.000000
   42       -6.467205   1.000000
   43       -6.449387   1.000000
   44       -6.417362   1.000000
   45       -6.351476   1.000000
   46       -6.295974   1.000000
   47       -6.052173   1.000000
   48       -5.968465   1.000000
   49       -5.858195   1.000000
   50       -5.832046   1.000000
   51       -5.803765   1.000000
   52       -5.725016   1.000000
   53       -5.699301   1.000000
   54       -5.632164   1.000000
   55       -5.466066   1.000000
   56       -5.405984   1.000000
   57       -5.252572   1.000000
   58       -5.134178   1.000000
   59       -5.091141   1.000000
   60       -5.058363   1.000000
   61       -5.001324   1.000000
   62       -4.933021   1.000000
   63       -4.821134   1.000000
   64       -4.684917   1.000000
   65       -4.652820   1.000000
   66       -4.549781   1.000000
   67       -4.387774   1.000000
   68       -4.331290   1.000000
   69       -4.265240   1.000000
   70       -4.220140   1.000000
   71       -4.122369   1.000000
   72       -4.090808   1.000000
   73       -4.032431   1.000000
   74       -3.979335   1.000000
   75       -3.975947   1.000000
   76       -3.925015   1.000000
   77       -3.804891   1.000000
   78       -3.754022   1.000000
   79       -3.688022   1.000000
   80       -3.680855   1.000000
   81       -3.676357   1.000000
   82       -3.646712   1.000000
   83       -3.574381   1.000000
   84       -3.540610   1.000000
   85       -3.455007   1.000000
   86       -3.427126   1.000000
   87       -3.398400   1.000000
   88       -3.302976   1.000000
   89       -3.267279   1.000000
   90       -3.258192   1.000000
   91       -3.196219   1.000000
   92       -3.164756   1.000000
   93       -3.074941   1.000000
   94       -3.024575   1.000000
   95       -2.922425   1.000000
   96       -2.920423   1.000000
   97       -2.807191   1.000000
   98       -2.673230   1.000000
   99       -2.622366   1.000000
  100       -2.472415   1.000000
  101       -2.320316   1.000000
  102       -2.221922   1.000000
  103       -2.172933   1.000000
  104       -2.150778   1.000000
  105       -2.124767   1.000000
  106       -2.046834   1.000000
  107       -2.013654   1.000000
  108       -1.960604   1.000000
  109       -1.949651   1.000000
  110       -1.936014   1.000000
  111       -1.675570   1.000000
  112       -1.602880   1.000000
  113       -1.554523   1.000000
  114       -1.523008   1.000000
  115       -1.471480   1.000000
  116       -1.415378   1.000000
  117       -1.330855   1.000000
  118       -1.249183   1.000000
  119       -1.170093   1.000000
  120       -1.087360   1.000000
  121       -1.059710   1.000000
  122       -1.029606   1.000000
  123       -1.014521   1.000000
  124       -0.945354   1.000000
  125       -0.915986   1.000000
  126       -0.724005   1.000000
  127       -0.660357   1.000000
  128       -0.629965   1.000000
  129       -0.576373   1.000000
  130       -0.538942   1.000000
  131       -0.360891   1.000000
  132       -0.323860   1.000000
  133       -0.067885   1.000000
  134       -0.038369   1.000000
  135        0.099183   1.000341
  136        0.336885   0.796991
  137        0.349107   0.709980
  138        0.367142   0.564934
  139        0.485702  -0.033037
  140        0.503610  -0.034898
  141        0.583916  -0.005898
  142        0.595952  -0.003813
  143        0.656401  -0.000252
  144        0.687628  -0.000045
  145        0.725988  -0.000004
  146        0.740373  -0.000002
  147        0.863226  -0.000000
  148        0.945237  -0.000000
  149        1.011214  -0.000000
  150        1.015287  -0.000000
  151        1.157010  -0.000000
  152        1.207896  -0.000000
  153        1.257279  -0.000000
  154        1.266930  -0.000000
  155        1.302215  -0.000000
  156        1.332391  -0.000000
  157        1.439991  -0.000000
  158        1.473936  -0.000000
  159        1.492100  -0.000000
  160        1.502220  -0.000000
  161        1.512516  -0.000000
  162        1.519094  -0.000000
  163        1.543160  -0.000000
  164        1.579913  -0.000000
  165        1.648554  -0.000000
  166        1.662650  -0.000000
  167        1.688370  -0.000000
  168        1.720178  -0.000000
  169        1.739581  -0.000000
  170        1.776368  -0.000000
  171        1.818036  -0.000000
  172        1.844234  -0.000000
  173        1.921631  -0.000000
  174        1.959449  -0.000000
  175        2.038460  -0.000000
  176        2.343389  -0.000000
  177        2.681580  -0.000000
  178        2.819082  -0.000000
  179        3.001412  -0.000000
  180        3.191945   0.000000

  0.3742002E-15  0.1262379E-14  0.1111111E+00  0.4444444E-01
    1      -13.990591   1.000000
    2      -12.836222   1.000000
    3      -12.809711   1.000000
    4      -12.770178   1.000000
    5      -12.018702   1.000000
    6      -11.727011   1.000000
    7      -11.643723   1.000000
    8      -11.537117   1.000000
    9      -11.527264   1.000000
   10      -11.373041   1.000000
   11      -11.227075   1.000000
   12      -11.012856   1.000000
   13      -10.991375   1.000000
   14      -10.625382   1.000000
   15      -10.473270   1.000000
   16      -10.362654   1.000000
   17      -10.151347   1.000000
   18      -10.038401   1.000000
   19       -9.963113   1.000000
   20       -9.644448   1.000000
   21       -9.546282   1.000000
   22       -9.510289   1.000000
   23       -9.429330   1.000000
   24       -9.315440   1.000000
   25       -8.958621   1.000000
   26       -8.846405   1.000000
   27       -8.647764   1.000000
   28       -8.428302   1.000000
   29       -8.265423   1.000000
   30       -8.132969   1.000000
   31       -7.986943   1.000000
   32       -7.898571   1.000000
   33       -7.771665   1.000000
   34       -7.483066   1.000000
   35       -7.311272   1.000000
   36       -7.239285   1.000000
   37       -6.974061   1.000000
   38       -6.871656   1.000000
   39       -6.754437   1.000000
   40       -6.641459   1.000000
   41       -6.627453   1.000000
   42       -6.593290   1.000000
   43       -6.423914   1.000000
   44       -6.395784   1.000000
   45       -6.312272   1.000000
   46       -6.273963   1.000000
   47       -6.157521   1.000000
   48       -6.153239   1.000000
   49       -6.141514   1.000000
   50       -5.930391   1.000000
   51       -5.729428   1.000000
   52       -5.707218   1.000000
   53       -5.642035   1.000000
   54       -5.628887   1.000000
   55       -5.593769   1.000000
   56       -5.396377   1.000000
   57       -5.379908   1.000000
   58       -5.285135   1.000000
   59       -5.220946   1.000000
   60       -5.145790   1.000000
   61       -5.048574   1.000000
   62       -4.659843   1.000000
   63       -4.649567   1.000000
   64       -4.632731   1.000000
   65       -4.528110   1.000000
   66       -4.522794   1.000000
   67       -4.435524   1.000000
   68       -4.422637   1.000000
   69       -4.111924   1.000000
   70       -4.079959   1.000000
   71       -4.071692   1.000000
   72       -4.018074   1.000000
   73       -3.996105   1.000000
   74       -3.954309   1.000000
   75       -3.937782   1.000000
   76       -3.919565   1.000000
   77       -3.914827   1.000000
   78       -3.822511   1.000000
   79       -3.800428   1.000000
   80       -3.753339   1.000000
   81       -3.713490   1.000000
   82       -3.664806   1.000000
   83       -3.633298   1.000000
   84       -3.556361   1.000000
   85       -3.535213   1.000000
   86       -3.517483   1.000000
   87       -3.476544   1.000000
   88       -3.464627   1.000000
   89       -3.425815   1.000000
   90       -3.364017   1.000000
   91       -3.266526   1.000000
   92       -3.054972   1.000000
   93       -2.909215   1.000000
   94       -2.889936   1.000000
   95       -2.862525   1.000000
   96       -2.737407   1.000000
   97       -2.703816   1.000000
   98       -2.599642   1.000000
   99       -2.493593   1.000000
  100       -2.442668   1.000000
  101       -2.393002   1.000000
  102       -2.374999   1.000000
  103       -2.210666   1.000000
  104       -2.196565   1.000000
  105       -2.136540   1.000000
  106       -2.055766   1.000000
  107       -1.989296   1.000000
  108       -1.975345   1.000000
  109       -1.940418   1.000000
  110       -1.924935   1.000000
  111       -1.806554   1.000000
  112       -1.786329   1.000000
  113       -1.700388   1.000000
  114       -1.691972   1.000000
  115       -1.677163   1.000000
  116       -1.587343   1.000000
  117       -1.519500   1.000000
  118       -1.512755   1.000000
  119       -1.307271   1.000000
  120       -1.262701   1.000000
  121       -1.049881   1.000000
  122       -0.942796   1.000000
  123       -0.897542   1.000000
  124       -0.741584   1.000000
  125       -0.608882   1.000000
  126       -0.571383   1.000000
  127       -0.529111   1.000000
  128       -0.503801   1.000000
  129       -0.461151   1.000000
  130       -0.152467   1.000000
  131       -0.145678   1.000000
  132       -0.122437   1.000000
  133        0.176913   1.008544
  134        0.251678   1.035451
  135        0.296469   0.985762
  136        0.312863   0.928689
  137        0.333722   0.817499
  138        0.391890   0.358013
  139        0.434375   0.082084
  140        0.452391   0.016485
  141        0.458863   0.000365
  142        0.474879  -0.025168
  143        0.634532  -0.000743
  144        0.648676  -0.000374
  145        0.656073  -0.000257
  146        0.789707  -0.000000
  147        0.823155  -0.000000
  148        0.854387  -0.000000
  149        0.956017  -0.000000
  150        1.022682  -0.000000
  151        1.043235  -0.000000
  152        1.117141  -0.000000
  153        1.130125  -0.000000
  154        1.208150  -0.000000
  155        1.260313  -0.000000
  156        1.288498  -0.000000
  157        1.307009  -0.000000
  158        1.327206  -0.000000
  159        1.353476  -0.000000
  160        1.403276  -0.000000
  161        1.406988  -0.000000
  162        1.454334  -0.000000
  163        1.460218  -0.000000
  164        1.502051  -0.000000
  165        1.563207  -0.000000
  166        1.601613  -0.000000
  167        1.636582  -0.000000
  168        1.645539  -0.000000
  169        1.681198  -0.000000
  170        1.719885  -0.000000
  171        1.833235  -0.000000
  172        1.848889  -0.000000
  173        1.903803  -0.000000
  174        1.934688  -0.000000
  175        2.005457  -0.000000
  176        2.405900  -0.000000
  177        2.461601  -0.000000
  178        2.511564  -0.000000
  179        3.067966  -0.000000
  180        4.122114   0.000000

  0.2000000E+00  0.1262379E-14  0.1111111E+00  0.4444444E-01
    1      -13.941704   1.000000
    2      -13.228339   1.000000
    3      -12.736629   1.000000
    4      -12.332811   1.000000
    5      -12.067390   1.000000
    6      -11.997950   1.000000
    7      -11.704925   1.000000
    8      -11.385049   1.000000
    9      -11.324041   1.000000
   10      -11.264711   1.000000
   11      -11.148526   1.000000
   12      -11.111729   1.000000
   13      -10.863748   1.000000
   14      -10.686085   1.000000
   15      -10.577108   1.000000
   16      -10.532773   1.000000
   17      -10.491413   1.000000
   18      -10.183630   1.000000
   19       -9.709002   1.000000
   20       -9.567716   1.000000
   21       -9.524778   1.000000
   22       -9.463904   1.000000
   23       -9.388157   1.000000
   24       -9.323502   1.000000
   25       -9.103817   1.000000
   26       -8.846063   1.000000
   27       -8.490564   1.000000
   28       -8.228514   1.000000
   29       -8.135437   1.000000
   30       -8.120307   1.000000
   31       -8.049106   1.000000
   32       -7.905483   1.000000
   33       -7.730801   1.000000
   34       -7.531198   1.000000
   35       -7.401582   1.000000
   36       -7.229446   1.000000
   37       -7.081484   1.000000
   38       -6.944981   1.000000
   39       -6.868465   1.000000
   40       -6.687858   1.000000
   41       -6.631763   1.000000
   42       -6.542657   1.000000
   43       -6.514319   1.000000
   44       -6.474468   1.000000
   45       -6.427878   1.000000
   46       -6.361565   1.000000
   47       -6.103709   1.000000
   48       -6.090266   1.000000
   49       -5.996598   1.000000
   50       -5.868502   1.000000
   51       -5.826667   1.000000
   52       -5.695445   1.000000
   53       -5.645297   1.000000
   54       -5.479671   1.000000
   55       -5.343694   1.000000
   56       -5.310430   1.000000
   57       -5.258481   1.000000
   58       -5.244790   1.000000
   59       -5.196925   1.000000
   60       -5.150865   1.000000
   61       -5.130014   1.000000
   62       -4.914360   1.000000
   63       -4.762952   1.000000
   64       -4.646170   1.000000
   65       -4.539931   1.000000
   66       -4.486861   1.000000
   67       -4.422822   1.000000
   68       -4.375720   1.000000
   69       -4.131532   1.000000
   70       -4.113281   1.000000
   71       -4.092475   1.000000
   72       -4.036600   1.000000
   73       -4.006073   1.000000
   74       -3.980133   1.000000
   75       -3.956918   1.000000
   76       -3.896095   1.000000
   77       -3.843895   1.000000
   78       -3.795009   1.000000
   79       -3.747029   1.000000
   80       -3.737416   1.000000
   81       -3.699982   1.000000
   82       -3.680975   1.000000
   83       -3.645712   1.000000
   84       -3.615867   1.000000
   85       -3.568551   1.000000
   86       -3.515560   1.000000
   87       -3.493638   1.000000
   88       -3.440597   1.000000
   89       -3.345650   1.000000
   90       -3.315239   1.000000
   91       -3.256232   1.000000
   92       -3.046033   1.000000
   93       -2.980318   1.000000
   94       -2.912307   1.000000
   95       -2.860282   1.000000
   96       -2.801900   1.000000
   97       -2.724481   1.000000
   98       -2.660750   1.000000
   99       -2.598707   1.000000
  100       -2.464838   1.000000
  101       -2.340179   1.000000
  102       -2.282547   1.000000
  103       -2.200193   1.000000
  104       -2.189368   1.000000
  105       -2.138161   1.000000
  106       -2.011273   1.000000
  107       -1.998371   1.000000
  108       -1.987902   1.000000
  109       -1.941612   1.000000
  110       -1.903891   1.000000
  111       -1.824501   1.000000
  112       -1.744107   1.000000
  113       -1.670846   1.000000
  114       -1.638372   1.000000
  115       -1.582650   1.000000
  116       -1.532915   1.000000
  117       -1.493440   1.000000
  118       -1.381198   1.000000
  119       -1.351327   1.000000
  120       -1.254505   1.000000
  121       -1.073827   1.000000
  122       -0.987853   1.000000
  123       -0.876667   1.000000
  124       -0.836188   1.000000
  125       -0.713326   1.000000
  126       -0.671360   1.000000
  127       -0.604631   1.000000
  128       -0.580044   1.000000
  129       -0.335147   1.000000
  130       -0.311175   1.000000
  131       -0.143235   1.000000
  132       -0.006075   1.000001
  133        0.102795   1.000409
  134        0.175249   1.008101
  135        0.190858   1.012948
  136        0.197804   1.015596
  137        0.263582   1.033211
  138        0.374912   0.499395
  139        0.410583   0.217874
  140        0.477692  -0.027839
  141        0.546595  -0.017789
  142        0.583243  -0.006037
  143        0.644358  -0.000463
  144        0.664401  -0.000165
  145        0.687326  -0.000046
  146        0.751508  -0.000001
  147        0.831276  -0.000000
  148        0.937798  -0.000000
  149        0.978061  -0.000000
  150        1.034128  -0.000000
  151        1.059882  -0.000000
  152        1.089354  -0.000000
  153        1.214544  -0.000000
  154        1.287654  -0.000000
  155        1.305977  -0.000000
  156        1.343746  -0.000000
  157        1.359947  -0.000000
  158        1.378561  -0.000000
  159        1.388302  -0.000000
  160        1.402541  -0.000000
  161        1.427976  -0.000000
  162        1.442527  -0.000000
  163        1.464652  -0.000000
  164        1.542258  -0.000000
  165        1.556743  -0.000000
  166        1.582427  -0.000000
  167        1.617558  -0.000000
  168        1.634161  -0.000000
  169        1.702398  -0.000000
  170        1.720472  -0.000000
  171        1.744698  -0.000000
  172        1.848269  -0.000000
  173        1.860009  -0.000000