ESCALE ; pCOOP file generated by LOBSTER. Energy is shifted such that the Fermi level lies at 0 eV.
       241          1        501  -7.07726e+00   1.79728e+01   8.95480e+00 
Average
No.1:Mo2->Mo1(3.3363677983934337)
No.2:Mo2->Mo1(3.3363677978474295)
No.3:Mo3->Mo1(3.0266357389200285)
No.4:Mo3->Mo1(3.0266358548879144)
No.5:Mo5->Mo1(3.0266357965816795)
No.6:Mo5->Mo1(3.0266357972788027)
No.7:Mo7->Mo1(3.0266353876811105)
No.8:Mo7->Mo1(3.0266355177414446)
No.9:B9->Mo1(2.4158529033136045)
No.10:B10->Mo1(2.4158529934300486)
No.11:B11->Mo1(2.415852956646598)
No.12:B12->Mo1(2.4158530467630399)
No.13:B15->Mo1(2.4158529763092003)
No.14:B16->Mo1(2.4158530664256417)
No.15:B17->Mo1(2.4158527672770433)
No.16:B18->Mo1(2.4158528573934923)
No.17:B21->Mo1(2.4158533602478487)
No.18:B22->Mo1(2.4158534503642755)
No.19:B23->Mo1(2.4158531777764014)
No.20:B24->Mo1(2.4158532678928353)
No.21:Mo4->Mo2(3.0266357389200285)
No.22:Mo4->Mo2(3.0266358548879144)
No.23:Mo6->Mo2(3.0266357965816795)
No.24:Mo6->Mo2(3.0266357972788027)
No.25:Mo8->Mo2(3.0266353876811105)
No.26:Mo8->Mo2(3.0266355177414446)
No.27:B9->Mo2(2.4158529040677186)
No.28:B10->Mo2(2.4158528135742539)
No.29:B11->Mo2(2.4158529574007122)
No.30:B12->Mo2(2.4158528669072497)
No.31:B15->Mo2(2.4158529770633139)
No.32:B16->Mo2(2.4158528865698523)
No.33:B17->Mo2(2.4158527680311574)
No.34:B18->Mo2(2.4158526775376878)
No.35:B21->Mo2(2.4158533610019624)
No.36:B22->Mo2(2.4158532705085149)
No.37:B23->Mo2(2.4158531785305151)
No.38:B24->Mo2(2.415853088037061)
No.39:Mo4->Mo3(3.3363677983934337)
No.40:Mo4->Mo3(3.3363677978474295)
No.41:Mo5->Mo3(3.026635517890822)
No.42:Mo5->Mo3(3.0266353875317331)
No.43:Mo7->Mo3(3.026635797577558)
No.44:Mo7->Mo3(3.0266357962829242)
No.45:B9->Mo3(2.415852988612659)
No.46:B10->Mo3(2.4158530787290999)
No.47:B11->Mo3(2.4158529033136191)
No.48:B12->Mo3(2.4158529934300632)
No.49:B13->Mo3(2.415852841329567)
No.50:B14->Mo3(2.4158529314460133)
No.51:B19->Mo3(2.4158527557921179)
No.52:B20->Mo3(2.4158528459085673)
No.53:B21->Mo3(2.41585290331362)
No.54:B22->Mo3(2.4158529934300641)
No.55:B23->Mo3(2.4158530511803331)
No.56:B24->Mo3(2.4158531412967714)
No.57:Mo6->Mo4(3.026635517890822)
No.58:Mo6->Mo4(3.0266353875317331)
No.59:Mo8->Mo4(3.026635797577558)
No.60:Mo8->Mo4(3.0266357962829242)
No.61:B9->Mo4(2.4158529893667726)
No.62:B10->Mo4(2.4158528988733114)
No.63:B11->Mo4(2.4158529040677332)
No.64:B12->Mo4(2.4158528135742685)
No.65:B13->Mo4(2.4158528420836811)
No.66:B14->Mo4(2.4158527515902142)
No.67:B19->Mo4(2.415852756546232)
No.68:B20->Mo4(2.4158526660527619)
No.69:B21->Mo4(2.4158529040677341)
No.70:B22->Mo4(2.4158528135742694)
No.71:B23->Mo4(2.4158530519344468)
No.72:B24->Mo4(2.4158529614409878)
No.73:Mo6->Mo5(3.3363677983934337)
No.74:Mo6->Mo5(3.3363677978474295)
No.75:Mo7->Mo5(3.0266357384220886)
No.76:Mo7->Mo5(3.0266358553858539)
No.77:B11->Mo5(2.415852975872514)
No.78:B12->Mo5(2.4158530659889554)
No.79:B13->Mo5(2.4158529033136045)
No.80:B14->Mo5(2.4158529934300486)
No.81:B15->Mo5(2.4158529566465985)
No.82:B16->Mo5(2.4158530467630404)
No.83:B17->Mo5(2.415853062228507)
No.84:B18->Mo5(2.4158531523449449)
No.85:B19->Mo5(2.4158531777764112)
No.86:B20->Mo5(2.415853267892845)
No.87:B21->Mo5(2.4158524696945012)
No.88:B22->Mo5(2.4158525598109613)
No.89:Mo8->Mo6(3.0266357384220886)
No.90:Mo8->Mo6(3.0266358553858539)
No.91:B11->Mo6(2.4158529766266281)
No.92:B12->Mo6(2.4158528861331665)
No.93:B13->Mo6(2.4158529040677186)
No.94:B14->Mo6(2.4158528135742539)
No.95:B15->Mo6(2.4158529574007122)
No.96:B16->Mo6(2.4158528669072497)
No.97:B17->Mo6(2.4158530629826207)
No.98:B18->Mo6(2.4158529724891622)
No.99:B19->Mo6(2.4158531785305253)
No.100:B20->Mo6(2.4158530880370712)
No.101:B21->Mo6(2.4158524704486153)
No.102:B22->Mo6(2.4158523799551346)
No.103:Mo8->Mo7(3.3363677983934337)
No.104:Mo8->Mo7(3.3363677978474295)
No.105:B9->Mo7(2.4158528415167102)
No.106:B10->Mo7(2.415852931633157)
No.107:B13->Mo7(2.4158529879888291)
No.108:B14->Mo7(2.4158530781052701)
No.109:B15->Mo7(2.4158529033136191)
No.110:B16->Mo7(2.4158529934300637)
No.111:B17->Mo7(2.415852903313596)
No.112:B18->Mo7(2.4158529934300401)
No.113:B19->Mo7(2.4158529028880857)
No.114:B20->Mo7(2.4158529930045298)
No.115:B23->Mo7(2.4158526066889254)
No.116:B24->Mo7(2.4158526968053806)
No.117:B9->Mo8(2.4158528422708243)
No.118:B10->Mo8(2.4158527517773574)
No.119:B13->Mo8(2.4158529887429432)
No.120:B14->Mo8(2.4158528982494816)
No.121:B15->Mo8(2.4158529040677332)
No.122:B16->Mo8(2.415852813574269)
No.123:B17->Mo8(2.4158529040677101)
No.124:B18->Mo8(2.4158528135742454)
No.125:B19->Mo8(2.4158529036421998)
No.126:B20->Mo8(2.4158528131487351)
No.127:B23->Mo8(2.4158526074430395)
No.128:B24->Mo8(2.4158525169495637)
No.129:B10->B9(3.3363676684334962)
No.130:B10->B9(3.336367927807367)
No.131:B11->B9(3.0266357981779821)
No.132:B11->B9(3.0266357956299665)
No.133:B13->B9(3.026635796581679)
No.134:B13->B9(3.0266357972788027)
No.135:B15->B9(3.0266353279252418)
No.136:B15->B9(3.0266355774973155)
No.137:B17->B9(1.7474290249074742)
No.138:B19->B9(1.7474284164070679)
No.139:B21->B9(1.7474294396997812)
No.140:B23->B9(3.4948572874082622)
No.141:B23->B9(3.4948581052887735)
No.142:B23->B9(3.4948581623826565)
No.143:B12->B10(3.0266357981779821)
No.144:B12->B10(3.0266357956299665)
No.145:B14->B10(3.026635796581679)
No.146:B14->B10(3.0266357972788027)
No.147:B16->B10(3.0266353279252418)
No.148:B16->B10(3.0266355774973155)
No.149:B18->B10(1.7474290249074742)
No.150:B20->B10(1.7474284164070679)
No.151:B22->B10(1.7474294396997812)
No.152:B24->B10(3.4948572874082622)
No.153:B24->B10(3.4948581052887735)
No.154:B24->B10(3.4948581623826565)
No.155:B12->B11(3.3363676684334962)
No.156:B12->B11(3.336367927807367)
No.157:B13->B11(3.0266355771487534)
No.158:B13->B11(3.0266353282738039)
No.159:B15->B11(3.0266357965816795)
No.160:B15->B11(3.0266357972788027)
No.161:B17->B11(1.7474287958569765)
No.162:B19->B11(1.7474293486988075)
No.163:B21->B11(3.4948572837602865)
No.164:B21->B11(3.4948584883866163)
No.165:B21->B11(3.4948577829327392)
No.166:B23->B11(1.7474291468022116)
No.167:B14->B12(3.0266355771487534)
No.168:B14->B12(3.0266353282738039)
No.169:B16->B12(3.0266357965816795)
No.170:B16->B12(3.0266357972788027)
No.171:B18->B12(1.7474287958569765)
No.172:B20->B12(1.7474293486988075)
No.173:B22->B12(3.4948572837602865)
No.174:B22->B12(3.4948584883866163)
No.175:B22->B12(3.4948577829327392)
No.176:B24->B12(1.7474291468022116)
No.177:B14->B13(3.3363676684334962)
No.178:B14->B13(3.336367927807367)
No.179:B15->B13(3.0266357981779817)
No.180:B15->B13(3.026635795629967)
No.181:B17->B13(1.7474290276825968)
No.182:B19->B13(3.4948574932874781)
No.183:B19->B13(3.4948578994095461)
No.184:B19->B13(3.49485816238268)
No.185:B21->B13(1.7474286134940498)
No.186:B23->B13(1.7474284164071159)
No.187:B16->B14(3.0266357981779817)
No.188:B16->B14(3.026635795629967)
No.189:B18->B14(1.7474290276825968)
No.190:B20->B14(3.4948574932874781)
No.191:B20->B14(3.4948578994095461)
No.192:B20->B14(3.49485816238268)
No.193:B22->B14(1.7474286134940498)
No.194:B24->B14(1.7474284164071159)
No.195:B16->B15(3.3363676684334962)
No.196:B16->B15(3.336367927807367)
No.197:B17->B15(3.494857695777458)
No.198:B17->B15(3.4948580763694133)
No.199:B17->B15(3.4948577829327707)
No.200:B19->B15(1.747428940923029)
No.201:B21->B15(1.7474287958571009)
No.202:B23->B15(1.7474291434233431)
No.203:B18->B16(3.494857695777458)
No.204:B18->B16(3.4948580763694133)
No.205:B18->B16(3.4948577829327707)
No.206:B20->B16(1.747428940923029)
No.207:B22->B16(1.7474287958571009)
No.208:B24->B16(1.7474291434233431)
No.209:B18->B17(3.3363676684334962)
No.210:B18->B17(3.336367927807367)
No.211:B19->B17(3.0266354743866315)
No.212:B19->B17(3.0266361194213118)
No.213:B21->B17(3.026635321522348)
No.214:B21->B17(3.0266362723381346)
No.215:B23->B17(3.0266351226497381)
No.216:B23->B17(3.0266357827728183)
No.217:B20->B18(3.0266354743866315)
No.218:B20->B18(3.0266361194213118)
No.219:B22->B18(3.026635321522348)
No.220:B22->B18(3.0266362723381346)
No.221:B24->B18(3.0266351226497381)
No.222:B24->B18(3.0266357827728183)
No.223:B20->B19(3.3363676684334962)
No.224:B20->B19(3.336367927807367)
No.225:B21->B19(3.0266354263788502)
No.226:B21->B19(3.0266354790438497)
No.227:B23->B19(3.0266355595499741)
No.228:B23->B19(3.0266360343105081)
No.229:B22->B20(3.0266354263788502)
No.230:B22->B20(3.0266354790438497)
No.231:B24->B20(3.0266355595499741)
No.232:B24->B20(3.0266360343105081)
No.233:B22->B21(3.3363676684334962)
No.234:B22->B21(3.336367927807367)
No.235:B23->B21(3.026635355372794)
No.236:B23->B21(3.0266362384351551)
No.237:B24->B22(3.026635355372794)
No.238:B24->B22(3.0266362384351551)
No.239:B24->B23(3.3363676684334962)
No.240:B24->B23(3.336367927807367)
-16.03206   0.00000   0.00000   0.00000   0.00000   0.00000   0.00000   0.00000   0.00000   0.00000   0.00000   0.00000   0.00000   0.00000   0.00000   0.00000   0.00000   0.00000   0.00000   0.00000   0.00000   0.00000   0.00000   0.00000   0.00000   0.00000   0.00000   0.00000   0.00000   0.00000   0.00000   0.00000   0.00000   0.00000   0.00000   0.00000   0.00000   0.00000   0.00000   0.00000   0.00000   0.00000   0.00000   0.00000   0.00000   0.00000   0.00000   0.00000   0.00000   0.00000   0.00000   0.00000   0.00000   0.00000   0.00000   0.00000   0.00000   0.00000   0.00000   0.00000   0.00000   0.00000   0.00000   0.00000   0.00000   0.00000   0.00000   0.00000   0.00000   0.00000   0.00000   0.00000   0.00000   0.00000   0.00000   0.00000   0.00000   0.00000   0.00000   0.00000   0.00000   0.00000   0.00000   0.00000   0.00000   0.00000   0.00000   0.00000   0.00000   0.00000   0.00000   0.00000   0.00000   0.00000   0.00000   0.00000   0.00000   0.00000   0.00000   0.00000   0.00000   0.00000   0.00000   0.00000   0.00000   0.00000   0.00000   0.00000   0.00000   0.00000   0.00000   0.00000   0.00000   0.00000   0.00000   0.00000   0.00000   0.00000   0.00000   0.00000   0.00000   0.00000   0.00000   0.00000   0.00000   0.00000   0.00000   0.00000   0.00000   0.00000   0.00000   0.00000   0.00000   0.00000   0.00000   0.00000   0.00000   0.00000   0.00000   0.00000   0.00000   0.00000   0.00000   0.00000   0.00000   0.00000   0.00000   0.00000   0.00000   0.00000   0.00000   0.00000   0.00000   0.00000   0.00000   0.00000   0.00000   0.00000   0.00000   0.00000   0.00000   0.00000   0.00000   0.00000   0.00000   0.00000   0.00000   0.00000   0.00000   0.00000   0.00000   0.00000   0.00000   0.00000   0.00000   0.00000   0.00000   0.00000   0.00000   0.00000   0.00000   0.00000   0.00000   0.00000   0.00000   0.00000   0.00000   0.00000   0.00000   0.00000   0.00000   0.00000   0.00000   0.00000   0.00000   0.00000   0.00000   0.00000   0.00000   0.00000   0.00000   0.00000   0.00000   0.00000   0.00000   0.00000   0.00000   0.00000   0.00000   0.00000   0.00000   0.00000   0.00000   0.00000   0.00000   0.00000   0.00000   0.00000   0.00000   0.00000   0.00000   0.00000   0.00000   0.00000   0.00000   0.00000   0.00000   0.00000   0.00000   0.00000   0.00000   0.00000   0.00000   0.00000   0.00000   0.00000   0.00000   0.00000   0.00000   0.00000   0.00000   0.00000   0.00000   0.00000   0.00000   0.00000   0.00000   0.00000   0.00000   0.00000   0.00000   0.00000   0.00000   0.00000   0.00000   0.00000   0.00000   0.00000   0.00000   0.00000   0.00000   0.00000   0.00000   0.00000   0.00000   0.00000   0.00000   0.00000   0.00000   0.00000   0.00000   0.00000   0.00000   0.00000   0.00000   0.00000   0.00000   0.00000   0.00000   0.00000   0.00000   0.00000   0.00000   0.00000   0.00000   0.00000   0.00000   0.00000   0.00000   0.00000   0.00000   0.00000   0.00000   0.00000   0.00000   0.00000   0.00000   0.00000   0.00000   0.00000   0.00000   0.00000   0.00000   0.00000   0.00000   0.00000   0.00000   0.00000   0.00000   0.00000   0.00000   0.00000   0.00000   0.00000   0.00000   0.00000   0.00000   0.00000   0.00000   0.00000   0.00000   0.00000   0.00000   0.00000   0.00000   0.00000   0.00000   0.00000   0.00000   0.00000   0.00000   0.00000   0.00000   0.00000   0.00000   0.00000   0.00000   0.00000   0.00000   0.00000   0.00000   0.00000   0.00000   0.00000   0.00000   0.00000   0.00000   0.00000   0.00000   0.00000   0.00000   0.00000   0.00000   0.00000   0.00000   0.00000   0.00000   0.00000   0.00000   0.00000   0.00000   0.00000   0.00000   0.00000   0.00000   0.00000   0.00000   0.00000   0.00000   0.00000   0.00000   0.00000   0.00000   0.00000   0.00000   0.00000   0.00000   0.00000   0.00000   0.00000   0.00000   0.00000   0.00000   0.00000   0.00000   0.00000   0.00000   0.00000   0.00000   0.00000   0.00000   0.00000   0.00000   0.00000   0.00000   0.00000   0.00000   0.00000   0.00000   0.00000   0.00000   0.00000   0.00000   0.00000   0.00000   0.00000   0.00000   0.00000   0.00000   0.00000   0.00000   0.00000   0.00000   0.00000   0.00000   0.00000   0.00000   0.00000   0.00000   0.00000   0.00000   0.00000   0.00000   0.00000   0.00000   0.00000   0.00000   0.00000   0.00000   0.00000   0.00000   0.00000   0.00000   0.00000   0.00000   0.00000   0.00000   0.00000   0.00000   0.00000   0.00000   0.00000   0.00000   0.00000   0.00000   0.00000   0.00000   0.00000   0.00000   0.00000   0.00000   0.00000   0.00000   0.00000   0.00000   0.00000   0.00000   0.00000   0.00000   0.00000   0.00000   0.00000   0.00000   0.00000   0.00000   0.00000   0.00000   0.00000   0.00000   0.00000   0.00000   0.00000   0.00000   0.00000   0.00000   0.00000   0.00000   0.00000   0.00000   0.00000   0.00000   0.00000   0.00000
-15.98196   0.00000   0.00000   0.00000   0.00000   0.00000   0.00000   0.00000   0.00000   0.00000   0.00000   0.00000   0.00000   0.00000   0.00000   0.00000   0.00000   0.00000   0.00000   0.00000   0.00000   0.00000   0.00000   0.00000   0.00000   0.00000   0.00000   0.00000   0.00000   0.00000   0.00000   0.00000   0.00000   0.00000   0.00000   0.00000   0.00000   0.00000   0.00000   0.00000   0.00000   0.00000   0.00000   0.00000   0.00000   0.00000   0.00000   0.00000   0.00000   0.00000   0.00000   0.00000   0.00000   0.00000   0.00000   0.00000   0.00000   0.00000   0.00000   0.00000   0.00000   0.00000   0.00000   0.00000   0.00000   0.00000   0.00000   0.00000   0.00000   0.00000   0.00000   0.00000   0.00000   0.00000   0.00000   0.00000   0.00000   0.00000   0.00000   0.00000   0.00000   0.00000   0.00000   0.00000   0.00000   0.00000   0.00000   0.00000   0.00000   0.00000   0.00000   0.00000   0.00000   0.00000   0.00000   0.00000   0.00000   0.00000   0.00000   0.00000   0.00000   0.00000   0.00000   0.00000   0.00000   0.00000   0.00000   0.00000   0.00000   0.00000   0.00000   0.00000   0.00000   0.00000   0.00000   0.00000   0.00000   0.00000   0.00000   0.00000   0.00000   0.00000   0.00000   0.00000   0.00000   0.00000   0.00000   0.00000   0.00000   0.00000   0.00000   0.00000   0.00000   0.00000   0.00000   0.00000   0.00000   0.00000   0.00000   0.00000   0.00000   0.00000   0.00000   0.00000   0.00000   0.00000   0.00000   0.00000   0.00000   0.00000   0.00000   0.00000   0.00000   0.00000   0.00000   0.00000   0.00000   0.00000   0.00000   0.00000   0.00000   0.00000   0.00000   0.00000   0.00000   0.00000   0.00000   0.00000   0.00000   0.00000   0.00000   0.00000   0.00000   0.00000   0.00000   0.00000   0.00000   0.00000   0.00000   0.00000   0.00000   0.00000   0.00000   0.00000   0.00000   0.00000   0.00000   0.00000   0.00000   0.00000   0.00000   0.00000   0.00000   0.00000   0.00000   0.00000   0.00000   0.00000   0.00000   0.00000   0.00000   0.00000   0.00000   0.00000   0.00000   0.00000   0.00000   0.00000   0.00000   0.00000   0.00000   0.00000   0.00000   0.00000   0.00000   0.00000   0.00000   0.00000   0.00000   0.00000   0.00000   0.00000   0.00000   0.00000   0.00000   0.00000   0.00000   0.00000   0.00000   0.00000   0.00000   0.00000   0.00000   0.00000   0.00000   0.00000   0.00000   0.00000   0.00000   0.00000   0.00000   0.00000   0.00000   0.00000   0.00000   0.00000   0.00000   0.00000   0.00000   0.00000   0.00000   0.00000   0.00000   0.00000   0.00000   0.00000   0.00000   0.00000   0.00000   0.00000   0.00000   0.00000   0.00000   0.00000   0.00000   0.00000   0.00000   0.00000   0.00000   0.00000   0.00000   0.00000   0.00000   0.00000   0.00000   0.00000   0.00000   0.00000   0.00000   0.00000   0.00000   0.00000   0.00000   0.00000   0.00000   0.00000   0.00000   0.00000   0.00000   0.00000   0.00000   0.00000   0.00000   0.00000   0.00000   0.00000   0.00000   0.00000   0.00000   0.00000   0.00000   0.00000   0.00000   0.00000   0.00000   0.00000   0.00000   0.00000   0.00000   0.00000   0.00000   0.00000   0.00000   0.00000   0.00000   0.00000   0.00000   0.00000   0.00000   0.00000   0.00000   0.00000   0.00000   0.00000   0.00000   0.00000   0.00000   0.00000   0.00000   0.00000   0.00000   0.00000   0.00000   0.00000   0.00000   0.00000   0.00000   0.00000   0.00000   0.00000   0.00000   0.00000   0.00000   0.00000   0.00000   0.00000   0.00000   0.00000   0.00000   0.00000   0.00000   0.00000   0.00000   0.00000   0.00000   0.00000   0.00000   0.00000   0.00000   0.00000   0.00000   0.00000   0.00000   0.00000   0.00000   0.00000   0.00000   0.00000   0.00000   0.00000   0.00000   0.00000   0.00000   0.00000   0.00000   0.00000   0.00000   0.00000   0.00000   0.00000   0.00000   0.00000   0.00000   0.00000   0.00000   0.00000   0.00000   0.00000   0.00000   0.00000   0.00000   0.00000   0.00000   0.00000   0.00000   0.00000   0.00000   0.00000   0.00000   0.00000   0.00000   0.00000   0.00000   0.00000   0.00000   0.00000   0.00000   0.00000   0.00000   0.00000   0.00000   0.00000   0.00000   0.00000   0.00000   0.00000   0.00000   0.00000   0.00000   0.00000   0.00000   0.00000   0.00000   0.00000   0.00000   0.00000   0.00000   0.00000   0.00000   0.00000   0.00000   0.00000   0.00000   0.00000   0.00000   0.00000   0.00000   0.00000   0.00000   0.00000   0.00000   0.00000   0.00000   0.00000   0.00000   0.00000   0.00000   0.00000   0.00000   0.00000   0.00000   0.00000   0.00000   0.00000   0.00000   0.00000   0.00000   0.00000   0.00000   0.00000   0.00000   0.00000   0.00000   0.00000   0.00000   0.00000   0.00000   0.00000   0.00000   0.00000   0.00000   0.00000   0.00000   0.00000   0.00000   0.00000   0.00000   0.00000   0.00000   0.00000   0.00000   0.00000   0.00000
-15.93186   0.00000   0.00000   0.00000   0.00000   0.00000   0.00000   0.00000   0.00000   0.00000   0.00000   0.00000   0.00000   0.00000   0.00000   0.00000   0.00000   0.00000   0.00000   0.00000   0.00000   0.00000   0.00000   0.00000   0.00000   0.00000   0.00000   0.00000   0.00000   0.00000   0.00000   0.00000   0.00000   0.00000   0.00000   0.00000   0.00000   0.00000   0.00000   0.00000   0.00000   0.00000   0.00000   0.00000   0.00000   0.00000   0.00000   0.00000   0.00000   0.00000   0.00000   0.00000   0.00000   0.00000   0.00000   0.00000   0.00000   0.00000   0.00000   0.00000   0.00000   0.00000   0.00000   0.00000   0.00000   0.00000   0.00000   0.00000   0.00000   0.00000   0.00000   0.00000   0.00000   0.00000   0.00000   0.00000   0.00000   0.00000   0.00000   0.00000   0.00000   0.00000   0.00000   0.00000   0.00000   0.00000   0.00000   0.00000   0.00000   0.00000   0.00000   0.00000   0.00000   0.00000   0.00000   0.00000   0.00000   0.00000   0.00000   0.00000   0.00000   0.00000   0.00000   0.00000   0.00000   0.00000   0.00000   0.00000   0.00000   0.00000   0.00000   0.00000   0.00000   0.00000   0.00000   0.00000   0.00000   0.00000   0.00000   0.00000   0.00000   0.00000   0.00000   0.00000   0.00000   0.00000   0.00000   0.00000   0.00000   0.00000   0.00000   0.00000   0.00000   0.00000   0.00000   0.00000   0.00000   0.00000   0.00000   0.00000   0.00000   0.00000   0.00000   0.00000   0.00000   0.00000   0.00000   0.00000   0.00000   0.00000   0.00000   0.00000   0.00000   0.00000   0.00000   0.00000   0.00000   0.00000   0.00000   0.00000   0.00000   0.00000   0.00000   0.00000   0.00000   0.00000   0.00000   0.00000   0.00000   0.00000   0.00000   0.00000   0.00000   0.00000   0.00000   0.00000   0.00000   0.00000   0.00000   0.00000   0.00000   0.00000   0.00000   0.00000   0.00000   0.00000   0.00000   0.00000   0.00000   0.00000   0.00000   0.00000   0.00000   0.00000   0.00000   0.00000   0.00000   0.00000   0.00000   0.00000   0.00000   0.00000   0.00000   0.00000   0.00000   0.00000   0.00000   0.00000   0.00000   0.00000   0.00000   0.00000   0.00000   0.00000   0.00000   0.00000   0.00000   0.00000   0.00000   0.00000   0.00000   0.00000   0.00000   0.00000   0.00000   0.00000   0.00000   0.00000   0.00000   0.00000   0.00000   0.00000   0.00000   0.00000   0.00000   0.00000   0.00000   0.00000   0.00000   0.00000   0.00000   0.00000   0.00000   0.00000   0.00000   0.00000   0.00000   0.00000   0.00000   0.00000   0.00000   0.00000   0.00000   0.00000   0.00000   0.00000   0.00000   0.00000   0.00000   0.00000   0.00000   0.00000   0.00000   0.00000   0.00000   0.00000   0.00000   0.00000   0.00000   0.00000   0.00000   0.00000   0.00000   0.00000   0.00000   0.00000   0.00000   0.00000   0.00000   0.00000   0.00000   0.00000   0.00000   0.00000   0.00000   0.00000   0.00000   0.00000   0.00000   0.00000   0.00000   0.00000   0.00000   0.00000   0.00000   0.00000   0.00000   0.00000   0.00000   0.00000   0.00000   0.00000   0.00000   0.00000   0.00000   0.00000   0.00000   0.00000   0.00000   0.00000   0.00000   0.00000   0.00000   0.00000   0.00000   0.00000   0.00000   0.00000   0.00000   0.00000   0.00000   0.00000   0.00000   0.00000   0.00000   0.00000   0.00000   0.00000   0.00000   0.00000   0.00000   0.00000   0.00000   0.00000   0.00000   0.00000   0.00000   0.00000   0.00000   0.00000   0.00000   0.00000   0.00000   0.00000   0.00000   0.00000   0.00000   0.00000   0.00000   0.00000   0.00000   0.00000   0.00000   0.00000   0.00000   0.00000   0.00000   0.00000   0.00000   0.00000   0.00000   0.00000   0.00000   0.00000   0.00000   0.00000   0.00000   0.00000   0.00000   0.00000   0.00000   0.00000   0.00000   0.00000   0.00000   0.00000   0.00000   0.00000   0.00000   0.00000   0.00000   0.00000   0.00000   0.00000   0.00000   0.00000   0.00000   0.00000   0.00000   0.00000   0.00000   0.00000   0.00000   0.00000   0.00000   0.00000   0.00000   0.00000   0.00000   0.00000   0.00000   0.00000   0.00000   0.00000   0.00000   0.00000   0.00000   0.00000   0.00000   0.00000   0.00000   0.00000   0.00000   0.00000   0.00000   0.00000   0.00000   0.00000   0.00000   0.00000   0.00000   0.00000   0.00000   0.00000   0.00000   0.00000   0.00000   0.00000   0.00000   0.00000   0.00000   0.00000   0.00000   0.00000   0.00000   0.00000   0.00000   0.00000   0.00000   0.00000   0.00000   0.00000   0.00000   0.00000   0.00000   0.00000   0.00000   0.00000   0.00000   0.00000   0.00000   0.00000   0.00000   0.00000   0.00000   0.00000   0.00000   0.00000   0.00000   0.00000   0.00000   0.00000   0.00000   0.00000   0.00000   0.00000   0.00000   0.00000   0.00000   0.00000   0.00000   0.00000   0.00000   0.00000   0.00000   0.00000   0.00000   0.00000   0.00000   0.00000   0.00000   0.00000   0.00000
-15.88176   0.00000   0.00000   0.00000   0.00000   0.00000   0.00000   0.00000   0.00000   0.00000   0.00000   0.00000   0.00000   0.00000   0.00000   0.00000   0.00000   0.00000   0.00000   0.00000   0.00000   0.00000   0.00000   0.00000   0.00000   0.00000   0.00000   0.00000   0.00000   0.00000   0.00000   0.00000   0.00000   0.00000   0.00000   0.00000   0.00000   0.00000   0.00000   0.00000   0.00000   0.00000   0.00000   0.00000   0.00000   0.00000   0.00000   0.00000   0.00000   0.00000   0.00000   0.00000   0.00000   0.00000   0.00000   0.00000   0.00000   0.00000   0.00000   0.00000   0.00000   0.00000   0.00000   0.00000   0.00000   0.00000   0.00000   0.00000   0.00000   0.00000   0.00000   0.00000   0.00000   0.00000   0.00000   0.00000   0.00000   0.00000   0.00000   0.00000   0.00000   0.00000   0.00000   0.00000   0.00000   0.00000   0.00000   0.00000   0.00000   0.00000   0.00000   0.00000   0.00000   0.00000   0.00000   0.00000   0.00000   0.00000   0.00000   0.00000   0.00000   0.00000   0.00000   0.00000   0.00000   0.00000   0.00000   0.00000   0.00000   0.00000   0.00000   0.00000   0.00000   0.00000   0.00000   0.00000   0.00000   0.00000   0.00000   0.00000   0.00000   0.00000   0.00000   0.00000   0.00000   0.00000   0.00000   0.00000   0.00000   0.00000   0.00000   0.00000   0.00000   0.00000   0.00000   0.00000   0.00000   0.00000   0.00000   0.00000   0.00000   0.00000   0.00000   0.00000   0.00000   0.00000   0.00000   0.00000   0.00000   0.00000   0.00000   0.00000   0.00000   0.00000   0.00000   0.00000   0.00000   0.00000   0.00000   0.00000   0.00000   0.00000   0.00000   0.00000   0.00000   0.00000   0.00000   0.00000   0.00000   0.00000   0.00000   0.00000   0.00000   0.00000   0.00000   0.00000   0.00000   0.00000   0.00000   0.00000   0.00000   0.00000   0.00000   0.00000   0.00000   0.00000   0.00000   0.00000   0.00000   0.00000   0.00000   0.00000   0.00000   0.00000   0.00000   0.00000   0.00000   0.00000   0.00000   0.00000   0.00000   0.00000   0.00000   0.00000   0.00000   0.00000   0.00000   0.00000   0.00000   0.00000   0.00000   0.00000   0.00000   0.00000   0.00000   0.00000   0.00000   0.00000   0.00000   0.00000   0.00000   0.00000   0.00000   0.00000   0.00000   0.00000   0.00000   0.00000   0.00000   0.00000   0.00000   0.00000   0.00000   0.00000   0.00000   0.00000   0.00000   0.00000   0.00000   0.00000   0.00000   0.00000   0.00000   0.00000   0.00000   0.00000   0.00000   0.00000   0.00000   0.00000   0.00000   0.00000   0.00000   0.00000   0.00000   0.00000   0.00000   0.00000   0.00000   0.00000   0.00000   0.00000   0.00000   0.00000   0.00000   0.00000   0.00000   0.00000   0.00000   0.00000   0.00000   0.00000   0.00000   0.00000   0.00000   0.00000   0.00000   0.00000   0.00000   0.00000   0.00000   0.00000   0.00000   0.00000   0.00000   0.00000   0.00000   0.00000   0.00000   0.00000   0.00000   0.00000   0.00000   0.00000   0.00000   0.00000   0.00000   0.00000   0.00000   0.00000   0.00000   0.00000   0.00000   0.00000   0.00000   0.00000   0.00000   0.00000   0.00000   0.00000   0.00000   0.00000   0.00000   0.00000   0.00000   0.00000   0.00000   0.00000   0.00000   0.00000   0.00000   0.00000   0.00000   0.00000   0.00000   0.00000   0.00000   0.00000   0.00000   0.00000   0.00000   0.00000   0.00000   0.00000   0.00000   0.00000   0.00000   0.00000   0.00000   0.00000   0.00000   0.00000   0.00000   0.00000   0.00000   0.00000   0.00000   0.00000   0.00000   0.00000   0.00000   0.00000   0.00000   0.00000   0.00000   0.00000   0.00000   0.00000   0.00000   0.00000   0.00000   0.00000   0.00000   0.00000   0.00000   0.00000   0.00000   0.00000   0.00000   0.00000   0.00000   0.00000   0.00000   0.00000   0.00000   0.00000   0.00000   0.00000   0.00000   0.00000   0.00000   0.00000   0.00000   0.00000   0.00000   0.00000   0.00000   0.00000   0.00000   0.00000   0.00000   0.00000   0.00000   0.00000   0.00000   0.00000   0.00000   0.00000   0.00000   0.00000   0.00000   0.00000   0.00000   0.00000   0.00000   0.00000   0.00000   0.00000   0.00000   0.00000   0.00000   0.00000   0.00000   0.00000   0.00000   0.00000   0.00000   0.00000   0.00000   0.00000   0.00000   0.00000   0.00000   0.00000   0.00000   0.00000   0.00000   0.00000   0.00000   0.00000   0.00000   0.00000   0.00000   0.00000   0.00000   0.00000   0.00000   0.00000   0.00000   0.00000   0.00000   0.00000   0.00000   0.00000   0.00000   0.00000   0.00000   0.00000   0.00000   0.00000   0.00000   0.00000   0.00000   0.00000   0.00000   0.00000   0.00000   0.00000   0.00000   0.00000   0.00000   0.00000   0.00000   0.00000   0.00000   0.00000   0.00000   0.00000   0.00000   0.00000   0.00000   0.00000   0.00000   0.00000   0.00000   0.00000   0.00000   0.00000   0.00000   0.00000   0.00000   0.00000   0.00000