  24   24    1    1
  2.1174581e+02   6.0532716e-10   6.0532716e-10   6.6727356e-10   5.0000000e-16
            1.000000e-04
  CAR
 DOS and projected DOS file by LOBSTER. Energy is shifted such that the Fermi level lies at 0 eV. 
     17.97284100      -7.07725920   501       8.95480493       1.00000000
-16.03206   0.00000   0.00000
-15.98196   0.00000   0.00000
-15.93186   0.00000   0.00000
-15.88176   0.00000   0.00000
-15.83166   0.00000   0.00000
-15.78156   0.00000   0.00000
-15.73146   0.00000   0.00000
-15.68136   0.00000   0.00000
-15.63126   0.00000   0.00000
-15.58116   0.00000   0.00000
-15.53106   0.00000   0.00000
-15.48096   0.00000   0.00000
-15.43086   0.00000   0.00000
-15.38076   0.00000   0.00000
-15.33066   0.00000   0.00000
-15.28056   0.00000   0.00000
-15.23046   0.00000   0.00000
-15.18036   0.00000   0.00000
-15.13026   0.00000   0.00000
-15.08016   0.00000   0.00000
-15.03006   0.00000   0.00000
-14.97996   0.00000   0.00000
-14.92986   0.00000   0.00000
-14.87976   0.00000   0.00000
-14.82966   0.00000   0.00000
-14.77956   0.00000   0.00000
-14.72946   0.00000   0.00000
-14.67936   0.08992   0.00450
-14.62926   0.36230   0.02266
-14.57916   0.52910   0.04916
-14.52906   0.63778   0.08112
-14.47896   0.73849   0.11812
-14.42886   0.85085   0.16074
-14.37876   0.93031   0.20735
-14.32866   1.00338   0.25762
-14.27856   1.08908   0.31218
-14.22846   1.17606   0.37111
-14.17836   1.24599   0.43353
-14.12826   1.31190   0.49926
-14.07816   1.38488   0.56864
-14.02806   1.54527   0.64606
-13.97796   1.61538   0.72699
-13.92786   1.64259   0.80928
-13.87776   1.63387   0.89114
-13.82766   1.64625   0.97362
-13.77756   1.72734   1.06016
-13.72745   1.88641   1.15467
-13.67735   2.04697   1.25722
-13.62725   2.11347   1.36311
-13.57715   2.29804   1.47824
-13.52705   2.30894   1.59392
-13.47695   2.17468   1.70287
-13.42685   2.18548   1.81236
-13.37675   2.27223   1.92620
-13.32665   2.41528   2.04721
-13.27655   2.57607   2.17627
-13.22645   2.84479   2.31879
-13.17635   3.03152   2.47067
-13.12625   3.13401   2.62769
-13.07615   3.39336   2.79769
-13.02605   3.58704   2.97741
-12.97595   3.37463   3.14647
-12.92585   3.57723   3.32569
-12.87575   3.16097   3.48406
-12.82565   3.25588   3.64718
-12.77555   3.87797   3.84147
-12.72545   4.94047   4.08899
-12.67535   5.16516   4.34776
-12.62525   5.12122   4.60434
-12.57515   4.26205   4.81787
-12.52505   4.79559   5.05813
-12.47495   4.62667   5.28992
-12.42485   4.46828   5.51378
-12.37475   5.35918   5.78228
-12.32465   5.61655   6.06367
-12.27455   5.13320   6.32084
-12.22445   5.12657   6.57769
-12.17435   5.16169   6.83629
-12.12425   5.05672   7.08963
-12.07415   5.14014   7.34715
-12.02405   5.28896   7.61213
-11.97395   4.93875   7.85956
-11.92385   5.15550   8.11785
-11.87375   5.32087   8.38443
-11.82365   5.59531   8.66476
-11.77355   5.50946   8.94078
-11.72345   5.79723   9.23122
-11.67335   5.94151   9.52890
-11.62325   6.01280   9.83014
-11.57315   6.35612  10.14858
-11.52305   6.89809  10.49418
-11.47295   8.02448  10.89620
-11.42285   6.80065  11.23692
-11.37275   5.08701  11.49178
-11.32265   4.76084  11.73030
-11.27255   5.18395  11.99001
-11.22244   6.07241  12.29424
-11.17234   5.82827  12.58624
-11.12224   5.47439  12.86051
-11.07214   5.13749  13.11790
-11.02204   4.91980  13.36438
-10.97194   4.73963  13.60184
-10.92184   4.70166  13.83739
-10.87174   4.64529  14.07012
-10.82164   4.37818  14.28947
-10.77154   4.15877  14.49782
-10.72144   3.58938  14.67765
-10.67134   3.28483  14.84222
-10.62124   3.17562  15.00132
-10.57114   2.67409  15.13530
-10.52104   2.26835  15.24894
-10.47094   2.06804  15.35255
-10.42084   1.73671  15.43956
-10.37074   1.59982  15.51971
-10.32064   1.55352  15.59754
-10.27054   1.66494  15.68096
-10.22044   2.24570  15.79347
-10.17034   2.01708  15.89452
-10.12024   1.94661  15.99205
-10.07014   2.10710  16.09761
-10.02004   2.37252  16.21648
 -9.96994   2.68913  16.35120
 -9.91984   2.54418  16.47867
 -9.86974   1.92482  16.57510
 -9.81964   2.17808  16.68422
 -9.76954   2.75572  16.82229
 -9.71944   3.67680  17.00649
 -9.66934   4.42235  17.22805
 -9.61924   4.87577  17.47233
 -9.56914   4.62426  17.70401
 -9.51904   5.10866  17.95995
 -9.46894   5.21300  18.22113
 -9.41884   5.09205  18.47624
 -9.36874   5.17251  18.73538
 -9.31864   5.19404  18.99560
 -9.26854   5.24106  19.25818
 -9.21844   5.32124  19.52478
 -9.16834   5.41162  19.79590
 -9.11824   5.22926  20.05789
 -9.06814   4.67852  20.29228
 -9.01804   4.42724  20.51409
 -8.96794   4.59879  20.74449
 -8.91784   5.06248  20.99812
 -8.86774   5.03381  21.25032
 -8.81764   5.15177  21.50842
 -8.76754   5.65196  21.79158
 -8.71743   5.00943  22.04256
 -8.66733   4.60366  22.27320
 -8.61723   4.45846  22.49657
 -8.56713   4.69854  22.73197
 -8.51703   4.87863  22.97639
 -8.46693   5.08280  23.23104
 -8.41683   5.14960  23.48904
 -8.36673   5.07048  23.74307
 -8.31663   5.03785  23.99547
 -8.26653   5.18359  24.25516
 -8.21643   5.28645  24.52002
 -8.16633   5.48473  24.79480
 -8.11623   5.63415  25.07707
 -8.06613   5.33203  25.34421
 -8.01603   4.28213  25.55875
 -7.96593   4.06125  25.76221
 -7.91583   3.95792  25.96051
 -7.86573   4.03707  26.16277
 -7.81563   4.65153  26.39581
 -7.76553   6.46075  26.71949
 -7.71543   5.88215  27.01419
 -7.66533   5.31956  27.28070
 -7.61523   5.02586  27.53250
 -7.56513   4.97183  27.78159
 -7.51503   5.46579  28.05542
 -7.46493   6.14927  28.36350
 -7.41483   6.75426  28.70189
 -7.36473   7.26461  29.06585
 -7.31463   7.45440  29.43932
 -7.26453   7.84519  29.83236
 -7.21443   7.28436  30.19731
 -7.16433   6.32238  30.51407
 -7.11423   5.87403  30.80836
 -7.06413   5.60236  31.08903
 -7.01403   5.67818  31.37351
 -6.96393   5.53640  31.65089
 -6.91383   6.33177  31.96811
 -6.86373   7.25406  32.33154
 -6.81363   7.12373  32.68844
 -6.76353   7.83050  33.08075
 -6.71343   8.80825  33.52205
 -6.66333   9.59785  34.00290
 -6.61323   9.50457  34.47908
 -6.56313  10.32091  34.99616
 -6.51303  10.69689  35.53208
 -6.46293  10.72680  36.06949
 -6.41283  10.44659  36.59287
 -6.36273  10.67389  37.12763
 -6.31263  12.10259  37.73397
 -6.26253  10.38288  38.25416
 -6.21242   9.73462  38.74186
 -6.16232   9.18089  39.20183
 -6.11222   9.34685  39.67011
 -6.06212   9.33167  40.13763
 -6.01202   9.44443  40.61079
 -5.96192   9.28031  41.07574
 -5.91182   9.55372  41.55438
 -5.86172  11.13205  42.11210
 -5.81162  11.22646  42.67455
 -5.76152  13.11980  43.33185
 -5.71142  12.26439  43.94630
 -5.66132  12.51232  44.57317
 -5.61122  13.35890  45.24246
 -5.56112  14.83363  45.98562
 -5.51102  16.17916  46.79620
 -5.46092  16.77980  47.63687
 -5.41082  18.39747  48.55859
 -5.36072  16.68487  49.39451
 -5.31062  19.52560  50.37274
 -5.26052  22.54937  51.50247
 -5.21042  23.78900  52.69430
 -5.16032  25.00007  53.94681
 -5.11022  20.75818  54.98680
 -5.06012  19.34470  55.95597
 -5.01002  15.23011  56.71901
 -4.95992  12.04239  57.32233
 -4.90982  14.80833  58.06423
 -4.85972  13.20724  58.72592
 -4.80962  13.93631  59.42413
 -4.75952  13.82929  60.11698
 -4.70942  13.52123  60.79440
 -4.65932  16.29838  61.61095
 -4.60922  14.73212  62.34903
 -4.55912  14.61568  63.08128
 -4.50902  14.85915  63.82572
 -4.45892  15.98868  64.62676
 -4.40882  19.05737  65.58154
 -4.35872  20.12144  66.58963
 -4.30862  14.71736  67.32697
 -4.25852  15.16384  68.08668
 -4.20842  14.27141  68.80168
 -4.15832  14.26423  69.51632
 -4.10822  13.23497  70.17940
 -4.05812  11.91338  70.77626
 -4.00802  11.25873  71.34033
 -3.95792  10.49755  71.86625
 -3.90782  10.67344  72.40100
 -3.85772   9.82438  72.89320
 -3.80762   8.27693  73.30787
 -3.75752   7.40247  73.67874
 -3.70741   6.46967  74.00287
 -3.65731   6.63402  74.33524
 -3.60721   7.17240  74.69458
 -3.55711   7.56886  75.07378
 -3.50701   7.51567  75.45031
 -3.45691   6.85592  75.79380
 -3.40681   6.31407  76.11013
 -3.35671   5.92486  76.40697
 -3.30661   5.53317  76.68418
 -3.25651   5.29624  76.94953
 -3.20641   4.88031  77.19403
 -3.15631   4.83560  77.43629
 -3.10621   5.21627  77.69763
 -3.05611   5.11353  77.95382
 -3.00601   4.85152  78.19688
 -2.95591   4.22992  78.40880
 -2.90581   3.80178  78.59927
 -2.85571   3.48404  78.77382
 -2.80561   3.22854  78.93557
 -2.75551   3.05620  79.08869
 -2.70541   2.94372  79.23617
 -2.65531   2.21092  79.34694
 -2.60521   1.78735  79.43648
 -2.55511   1.51786  79.51253
 -2.50501   1.34452  79.57989
 -2.45491   1.35946  79.64800
 -2.40481   1.26562  79.71141
 -2.35471   1.13567  79.76830
 -2.30461   1.14307  79.82557
 -2.25451   1.23298  79.88735
 -2.20441   1.42936  79.95896
 -2.15431   2.01044  80.05968
 -2.10421   2.52075  80.18597
 -2.05411   2.79085  80.32579
 -2.00401   3.55109  80.50370
 -1.95391   4.25145  80.71670
 -1.90381   4.71401  80.95287
 -1.85371   4.91308  81.19902
 -1.80361   4.54217  81.42658
 -1.75351   4.48993  81.65153
 -1.70341   4.56060  81.88002
 -1.65331   4.80211  82.12060
 -1.60321   5.18037  82.38014
 -1.55311   4.92782  82.62703
 -1.50301   4.64694  82.85984
 -1.45291   4.76730  83.09868
 -1.40281   5.17213  83.35781
 -1.35271   5.69995  83.64337
 -1.30261   6.12362  83.95017
 -1.25251   6.64323  84.28300
 -1.20240   6.73646  84.62049
 -1.15230   6.64189  84.95325
 -1.10220   6.53707  85.28076
 -1.05210   6.34112  85.59845
 -1.00200   6.49266  85.92374
 -0.95190   7.00281  86.27458
 -0.90180   7.57747  86.65421
 -0.85170   8.90500  87.10036
 -0.80160   9.44412  87.57351
 -0.75150  10.03487  88.07626
 -0.70140  10.23862  88.58921
 -0.65130  10.04049  89.09224
 -0.60120  10.26651  89.60660
 -0.55110   9.76525  90.09584
 -0.50100  10.21788  90.60776
 -0.45090  10.24020  91.12079
 -0.40080   9.88237  91.61590
 -0.35070   9.90894  92.11234
 -0.30060  10.31765  92.62926
 -0.25050  10.16769  93.13866
 -0.20040  10.35681  93.65754
 -0.15030  10.21014  94.16907
 -0.10020  11.52990  94.74672
 -0.05010  12.26577  95.36124
 -0.00000  12.76257  96.00064
  0.05010  12.68676  96.63625
  0.10020  12.76662  97.27586
  0.15030  13.43734  97.94908
  0.20040  13.77253  98.63908
  0.25050  12.92199  99.28648
  0.30060  13.02920  99.93924
  0.35070  12.91322 100.58620
  0.40080  13.64683 101.26991
  0.45090  14.47478 101.99510
  0.50100  13.69569 102.68125
  0.55110  14.22976 103.39417
  0.60120  14.69275 104.13028
  0.65130  14.12469 104.83793
  0.70140  13.72153 105.52538
  0.75150  13.65453 106.20947
  0.80160   9.59710 106.69029
  0.85170   8.79252 107.13080
  0.90180   9.31253 107.59736
  0.95190  10.73891 108.13538
  1.00200  13.03841 108.78861
  1.05210  13.47406 109.46366
  1.10220  12.17366 110.07356
  1.15230  12.31001 110.69030
  1.20240  13.73003 111.37817
  1.25251  13.53123 112.05609
  1.30261  15.07593 112.81140
  1.35271  17.19910 113.67308
  1.40281  19.81875 114.66600
  1.45291  21.23416 115.72983
  1.50301  21.71053 116.81754
  1.55311  21.66778 117.90310
  1.60321  20.39687 118.92498
  1.65331  18.87287 119.87052
  1.70341  18.55645 120.80020
  1.75351  16.21468 121.61256
  1.80361  14.90420 122.35926
  1.85371  14.12665 123.06701
  1.90381  15.02572 123.81980
  1.95391  13.71741 124.50705
  2.00401  12.23422 125.11998
  2.05411  10.42042 125.64205
  2.10421   8.79816 126.08284
  2.15431   8.86265 126.52686
  2.20441   8.39860 126.94763
  2.25451   7.17522 127.30711
  2.30461   9.08710 127.76238
  2.35471  10.03769 128.26527
  2.40481  10.15239 128.77390
  2.45491  10.17876 129.28386
  2.50501   9.27441 129.74851
  2.55511   8.84206 130.19150
  2.60521   8.34343 130.60951
  2.65531   7.85454 131.00302
  2.70541   7.60791 131.38418
  2.75551   7.95995 131.78297
  2.80561   8.11863 132.18972
  2.85571   8.62543 132.62185
  2.90581   9.58553 133.10209
  2.95591  10.60117 133.63321
  3.00601   9.02090 134.08516
  3.05611   7.29291 134.45054
  3.10621   7.38267 134.82041
  3.15631   7.22511 135.18239
  3.20641   6.16690 135.49135
  3.25651   5.62343 135.77309
  3.30661   4.47273 135.99717
  3.35671   4.63521 136.22940
  3.40681   6.78172 136.56916
  3.45691   7.33651 136.93672
  3.50701   7.37238 137.30608
  3.55711   7.12835 137.66321
  3.60721   8.04047 138.06604
  3.65731  10.34957 138.58456
  3.70741  15.07134 139.33963
  3.75752   8.93323 139.78719
  3.80762   5.86101 140.08083
  3.85772   5.12915 140.33780
  3.90782   5.24458 140.60055
  3.95792   5.50934 140.87657
  4.00802   4.81826 141.11797
  4.05812   3.93804 141.31527
  4.10822   3.29713 141.48045
  4.15832   3.05270 141.63339
  4.20842   3.32498 141.79998
  4.25852   3.78611 141.98966
  4.30862   3.97475 142.18880
  4.35872   4.26955 142.40270
  4.40882   4.39594 142.62294
  4.45892   4.50908 142.84885
  4.50902   4.61814 143.08022
  4.55912   4.73291 143.31734
  4.60922   4.77262 143.55644
  4.65932   4.94897 143.80439
  4.70942   5.00209 144.05499
  4.75952   5.30092 144.32057
  4.80962   5.69758 144.60602
  4.85972   5.81907 144.89756
  4.90982   5.96230 145.19627
  4.95992   6.16616 145.50520
  5.01002   6.81011 145.84638
  5.06012   6.95753 146.19496
  5.11022   7.33122 146.56225
  5.16032   7.64537 146.94529
  5.21042   7.95487 147.34383
  5.26052   8.79454 147.78444
  5.31062   9.90752 148.28080
  5.36072   9.55897 148.75971
  5.41082   9.27692 149.22449
  5.46092   9.70144 149.71053
  5.51102   9.57731 150.19036
  5.56112  10.06542 150.69464
  5.61122  10.60199 151.22580
  5.66132  10.98183 151.77599
  5.71142  11.10981 152.33259
  5.76152  11.26536 152.89699
  5.81162  11.09064 153.45263
  5.86172  10.52982 153.98018
  5.91182  11.20760 154.54168
  5.96192  11.82973 155.13435
  6.01202  11.51232 155.71112
  6.06212  11.36300 156.28041
  6.11222  11.62105 156.86263
  6.16232  11.23529 157.42552
  6.21242   9.69989 157.91149
  6.26253   9.02132 158.36346
  6.31263   9.04690 158.81671
  6.36273   9.45062 159.29019
  6.41283   9.64709 159.77351
  6.46293  10.61336 160.30524
  6.51303   9.42069 160.77722
  6.56313   8.95885 161.22606
  6.61323   8.06695 161.63021
  6.66333   9.19599 162.09093
  6.71343   9.41390 162.56257
  6.76353  10.08256 163.06771
  6.81363   9.25679 163.53148
  6.86373   8.72719 163.96871
  6.91383   8.87873 164.41354
  6.96393   8.67681 164.84825
  7.01403   8.04094 165.25110
  7.06413   8.09636 165.65673
  7.11423   8.23413 166.06926
  7.16433   8.48692 166.49446
  7.21443   9.06670 166.94870
  7.26453   9.05408 167.40231
  7.31463   9.73906 167.89024
  7.36473  10.56536 168.41957
  7.41483  10.48635 168.94494
  7.46493  11.72670 169.53245
  7.51503  11.34017 170.10059
  7.56513  11.26918 170.66518
  7.61523  13.15375 171.32418
  7.66533  13.49403 172.00024
  7.71543   9.59132 172.48076
  7.76553   8.85549 172.92443
  7.81563   9.20854 173.38578
  7.86573   8.63040 173.81816
  7.91583   8.26987 174.23248
  7.96593   7.98390 174.63248
  8.01603   7.59025 175.01275
  8.06613   7.48609 175.38781
  8.11623   7.46410 175.76176
  8.16633   7.29225 176.12710
  8.21643   7.04485 176.48005
  8.26653   6.95502 176.82850
  8.31663   7.13006 177.18572
  8.36673   7.63631 177.56830
  8.41683   8.24869 177.98156
  8.46693   8.35968 178.40038
  8.51703   7.81040 178.79168
  8.56713   7.91078 179.18801
  8.61723   7.82521 179.58006
  8.66733   7.96396 179.97905
  8.71743   8.14913 180.38733
  8.76754   8.47168 180.81176
  8.81764   8.71341 181.24830
  8.86774   9.19702 181.70908
  8.91784   9.33394 182.17671
  8.96794   9.34327 182.64481
  9.01804   9.88339 183.13997
      9.01803607     -16.03206413   501       8.95480493       1.00000000; Z= 42; 5s 4p_y 4p_z 4p_x 4d_xy 4d_yz 4d_z^2 4d_xz 4d_x^2-y^2 
-16.03206   0.00000   0.00000   0.00000   0.00000   0.00000   0.00000   0.00000   0.00000   0.00000
-15.98196   0.00000   0.00000   0.00000   0.00000   0.00000   0.00000   0.00000   0.00000   0.00000
-15.93186   0.00000   0.00000   0.00000   0.00000   0.00000   0.00000   0.00000   0.00000   0.00000
-15.88176   0.00000   0.00000   0.00000   0.00000   0.00000   0.00000   0.00000   0.00000   0.00000
-15.83166   0.00000   0.00000   0.00000   0.00000   0.00000   0.00000   0.00000   0.00000   0.00000
-15.78156   0.00000   0.00000   0.00000   0.00000   0.00000   0.00000   0.00000   0.00000   0.00000
-15.73146   0.00000   0.00000   0.00000   0.00000   0.00000   0.00000   0.00000   0.00000   0.00000
-15.68136   0.00000   0.00000   0.00000   0.00000   0.00000   0.00000   0.00000   0.00000   0.00000
-15.63126   0.00000   0.00000   0.00000   0.00000   0.00000   0.00000   0.00000   0.00000   0.00000
-15.58116   0.00000   0.00000   0.00000   0.00000   0.00000   0.00000   0.00000   0.00000   0.00000
-15.53106   0.00000   0.00000   0.00000   0.00000   0.00000   0.00000   0.00000   0.00000   0.00000
-15.48096   0.00000   0.00000   0.00000   0.00000   0.00000   0.00000   0.00000   0.00000   0.00000
-15.43086   0.00000   0.00000   0.00000   0.00000   0.00000   0.00000   0.00000   0.00000   0.00000
-15.38076   0.00000   0.00000   0.00000   0.00000   0.00000   0.00000   0.00000   0.00000   0.00000
-15.33066   0.00000   0.00000   0.00000   0.00000   0.00000   0.00000   0.00000   0.00000   0.00000
-15.28056   0.00000   0.00000   0.00000   0.00000   0.00000   0.00000   0.00000   0.00000   0.00000
-15.23046   0.00000   0.00000   0.00000   0.00000   0.00000   0.00000   0.00000   0.00000   0.00000
-15.18036   0.00000   0.00000   0.00000   0.00000   0.00000   0.00000   0.00000   0.00000   0.00000
-15.13026   0.00000   0.00000   0.00000   0.00000   0.00000   0.00000   0.00000   0.00000   0.00000
-15.08016   0.00000   0.00000   0.00000   0.00000   0.00000   0.00000   0.00000   0.00000   0.00000
-15.03006   0.00000   0.00000   0.00000   0.00000   0.00000   0.00000   0.00000   0.00000   0.00000
-14.97996   0.00000   0.00000   0.00000   0.00000   0.00000   0.00000   0.00000   0.00000   0.00000
-14.92986   0.00000   0.00000   0.00000   0.00000   0.00000   0.00000   0.00000   0.00000   0.00000
-14.87976   0.00000   0.00000   0.00000   0.00000   0.00000   0.00000   0.00000   0.00000   0.00000
-14.82966   0.00000   0.00000   0.00000   0.00000   0.00000   0.00000   0.00000   0.00000   0.00000
-14.77956   0.00000   0.00000   0.00000   0.00000   0.00000   0.00000   0.00000   0.00000   0.00000
-14.72946   0.00000   0.00000   0.00000   0.00000   0.00000   0.00000   0.00000   0.00000   0.00000
-14.67936  -0.00019   0.00000  -0.00000   0.00000   0.00000   0.00000   0.00014   0.00000   0.00000
-14.62926  -0.00069   0.00000  -0.00000   0.00000   0.00000   0.00000   0.00056   0.00000   0.00000
-14.57916  -0.00088   0.00001  -0.00001   0.00001   0.00000   0.00000   0.00082   0.00000   0.00000
-14.52906  -0.00080   0.00001  -0.00001   0.00001   0.00000   0.00001   0.00100   0.00001   0.00000
-14.47896  -0.00065   0.00002  -0.00002   0.00002   0.00001   0.00001   0.00117   0.00001   0.00001
-14.42886  -0.00048   0.00003  -0.00003   0.00002   0.00001   0.00002   0.00135   0.00002   0.00001
-14.37876  -0.00015   0.00003  -0.00004   0.00003   0.00002   0.00003   0.00149   0.00003   0.00002
-14.32866   0.00022   0.00004  -0.00005   0.00004   0.00002   0.00005   0.00162   0.00005   0.00002
-14.27856   0.00063   0.00005  -0.00006   0.00005   0.00003   0.00007   0.00177   0.00007   0.00003
-14.22846   0.00105   0.00005  -0.00007   0.00005   0.00004   0.00009   0.00192   0.00009   0.00004
-14.17836   0.00156   0.00006  -0.00009   0.00006   0.00005   0.00012   0.00206   0.00012   0.00005
-14.12826   0.00216   0.00007  -0.00011   0.00007   0.00007   0.00016   0.00218   0.00016   0.00007
-14.07816   0.00276   0.00008  -0.00013   0.00008   0.00009   0.00020   0.00232   0.00020   0.00009
-14.02806   0.00392   0.00010  -0.00017   0.00010   0.00010   0.00025   0.00250   0.00024   0.00010
-13.97796   0.00447   0.00011  -0.00020   0.00011   0.00012   0.00031   0.00264   0.00031   0.00012
-13.92786   0.00476   0.00013  -0.00022   0.00013   0.00015   0.00038   0.00277   0.00038   0.00015
-13.87776   0.00488   0.00015  -0.00024   0.00016   0.00017   0.00045   0.00287   0.00045   0.00017
-13.82766   0.00515   0.00017  -0.00025   0.00018   0.00020   0.00051   0.00301   0.00051   0.00020
-13.77756   0.00608   0.00019  -0.00029   0.00019   0.00024   0.00059   0.00320   0.00059   0.00024
-13.72745   0.00762   0.00020  -0.00036   0.00021   0.00029   0.00069   0.00347   0.00069   0.00029
-13.67735   0.00872   0.00022  -0.00041   0.00023   0.00036   0.00080   0.00397   0.00080   0.00036
-13.62725   0.00950   0.00023  -0.00047   0.00023   0.00040   0.00093   0.00422   0.00092   0.00040
-13.57715   0.01093   0.00025  -0.00054   0.00026   0.00049   0.00107   0.00498   0.00107   0.00049
-13.52705   0.01181   0.00023  -0.00061   0.00024   0.00051   0.00123   0.00503   0.00123   0.00051
-13.47695   0.01223   0.00019  -0.00069   0.00020   0.00045   0.00139   0.00436   0.00139   0.00045
-13.42685   0.01280   0.00020  -0.00077   0.00021   0.00044   0.00155   0.00407   0.00155   0.00044
-13.37675   0.01336   0.00024  -0.00085   0.00024   0.00047   0.00175   0.00406   0.00175   0.00047
-13.32665   0.01405   0.00029  -0.00093   0.00029   0.00052   0.00200   0.00419   0.00200   0.00052
-13.27655   0.01488   0.00033  -0.00103   0.00033   0.00060   0.00226   0.00446   0.00226   0.00060
-13.22645   0.01581   0.00043  -0.00114   0.00042   0.00073   0.00260   0.00470   0.00260   0.00073
-13.17635   0.01658   0.00047  -0.00127   0.00046   0.00081   0.00306   0.00487   0.00306   0.00080
-13.12625   0.01712   0.00043  -0.00144   0.00042   0.00081   0.00383   0.00478   0.00385   0.00080
-13.07615   0.01805   0.00041  -0.00164   0.00041   0.00086   0.00494   0.00492   0.00492   0.00085
-13.02605   0.01822   0.00040  -0.00179   0.00039   0.00089   0.00603   0.00493   0.00599   0.00089
-12.97595   0.01703   0.00036  -0.00181   0.00035   0.00089   0.00566   0.00482   0.00569   0.00090
-12.92585   0.01705   0.00033  -0.00205   0.00033   0.00099   0.00659   0.00494   0.00658   0.00099
-12.87575   0.01452   0.00032  -0.00194   0.00032   0.00097   0.00535   0.00475   0.00534   0.00096
-12.82565   0.01461   0.00038  -0.00211   0.00038   0.00119   0.00503   0.00522   0.00504   0.00119
-12.77555   0.01683   0.00037  -0.00296   0.00037   0.00134   0.00677   0.00583   0.00678   0.00134
-12.72545   0.01884   0.00041  -0.00403   0.00041   0.00169   0.01006   0.00663   0.01005   0.00170
-12.67535   0.01817   0.00036  -0.00421   0.00037   0.00182   0.01321   0.00614   0.01322   0.00182
-12.62525   0.01794   0.00033  -0.00404   0.00033   0.00195   0.01525   0.00607   0.01528   0.00194
-12.57515   0.01534   0.00025  -0.00331   0.00025   0.00171   0.01461   0.00510   0.01461   0.00170
-12.52505   0.01569   0.00026  -0.00390   0.00026   0.00185   0.01789   0.00575   0.01780   0.00185
-12.47495   0.01465   0.00023  -0.00396   0.00024   0.00168   0.01844   0.00589   0.01846   0.00168
-12.42485   0.01434   0.00023  -0.00390   0.00023   0.00172   0.01831   0.00626   0.01827   0.00171
-12.37475   0.01593   0.00028  -0.00453   0.00028   0.00219   0.02411   0.00763   0.02404   0.00218
-12.32465   0.01560   0.00030  -0.00430   0.00030   0.00250   0.02865   0.00808   0.02860   0.00251
-12.27455   0.01391   0.00020  -0.00385   0.00020   0.00245   0.02966   0.00707   0.02962   0.00244
-12.22445   0.01331   0.00014  -0.00401   0.00014   0.00256   0.03187   0.00674   0.03179   0.00256
-12.17435   0.01331   0.00010  -0.00409   0.00010   0.00283   0.03281   0.00684   0.03273   0.00283
-12.12425   0.01229   0.00005  -0.00404   0.00005   0.00297   0.03276   0.00661   0.03269   0.00297
-12.07415   0.01118  -0.00001  -0.00410  -0.00001   0.00301   0.03583   0.00642   0.03575   0.00301
-12.02405   0.01038  -0.00005  -0.00421  -0.00005   0.00299   0.04017   0.00631   0.04014   0.00299
-11.97395   0.00995  -0.00007  -0.00345  -0.00007   0.00310   0.03815   0.00619   0.03806   0.00310
-11.92385   0.01000  -0.00007  -0.00354  -0.00007   0.00330   0.04134   0.00648   0.04118   0.00330
-11.87375   0.00990  -0.00008  -0.00358  -0.00009   0.00347   0.04485   0.00674   0.04461   0.00347
-11.82365   0.00939  -0.00013  -0.00372  -0.00013   0.00351   0.05136   0.00670   0.05116   0.00351
-11.77355   0.00943  -0.00024  -0.00338  -0.00024   0.00386   0.05185   0.00735   0.05130   0.00388
-11.72345   0.00922  -0.00034  -0.00329  -0.00034   0.00387   0.05812   0.00752   0.05778   0.00393
-11.67335   0.00883  -0.00042  -0.00307  -0.00041   0.00396   0.06227   0.00752   0.06208   0.00402
-11.62325   0.00843  -0.00046  -0.00270  -0.00046   0.00408   0.06478   0.00773   0.06456   0.00408
-11.57315   0.00815  -0.00050  -0.00260  -0.00051   0.00451   0.07006   0.00796   0.06937   0.00450
-11.52305   0.00791  -0.00057  -0.00257  -0.00057   0.00486   0.08117   0.00807   0.07755   0.00484
-11.47295   0.00859  -0.00072  -0.00253  -0.00073   0.00535   0.09242   0.01003   0.09400   0.00529
-11.42285   0.00731  -0.00063  -0.00221  -0.00063   0.00494   0.07236   0.00845   0.07349   0.00489
-11.37275   0.00523  -0.00057  -0.00157  -0.00058   0.00419   0.05335   0.00602   0.05407   0.00414
-11.32265   0.00460  -0.00053  -0.00127  -0.00054   0.00439   0.05337   0.00624   0.05398   0.00432
-11.27255   0.00565  -0.00051  -0.00113  -0.00051   0.00582   0.05696   0.00927   0.05733   0.00574
-11.22244   0.00731  -0.00053  -0.00113  -0.00054   0.00765   0.06506   0.01319   0.06503   0.00751
-11.17234   0.00579  -0.00060  -0.00111  -0.00059   0.00696   0.06271   0.01142   0.06240   0.00693
-11.12224   0.00432  -0.00066  -0.00104  -0.00062   0.00609   0.05888   0.00965   0.05841   0.00626
-11.07214   0.00325  -0.00070  -0.00094  -0.00064   0.00546   0.05554   0.00810   0.05403   0.00576
-11.02204   0.00261  -0.00073  -0.00085  -0.00067   0.00545   0.05271   0.00713   0.05050   0.00575
-10.97194   0.00230  -0.00070  -0.00078  -0.00069   0.00576   0.04944   0.00665   0.04808   0.00583
-10.92184   0.00218  -0.00068  -0.00072  -0.00071   0.00626   0.04651   0.00653   0.04692   0.00613
-10.87174   0.00212  -0.00067  -0.00065  -0.00073   0.00900   0.03887   0.00749   0.04126   0.00882
-10.82164   0.00200  -0.00067  -0.00050  -0.00074   0.00997   0.03448   0.00741   0.03655   0.00986
-10.77154   0.00187  -0.00068  -0.00040  -0.00074   0.00946   0.03281   0.00671   0.03458   0.00941
-10.72144   0.00172  -0.00061  -0.00033  -0.00064   0.00795   0.02902   0.00596   0.02997   0.00795
-10.67134   0.00169  -0.00053  -0.00028  -0.00056   0.00747   0.02613   0.00621   0.02662   0.00748
-10.62124   0.00177  -0.00050  -0.00025  -0.00051   0.00764   0.02397   0.00704   0.02420   0.00764
-10.57114   0.00153  -0.00043  -0.00021  -0.00044   0.00590   0.02106   0.00547   0.02114   0.00590
-10.52104   0.00131  -0.00037  -0.00017  -0.00038   0.00479   0.01863   0.00443   0.01867   0.00479
-10.47094   0.00119  -0.00035  -0.00014  -0.00036   0.00439   0.01717   0.00400   0.01716   0.00439
-10.42084   0.00108  -0.00032  -0.00012  -0.00033   0.00414   0.01267   0.00369   0.01268   0.00414
-10.37074   0.00099  -0.00031  -0.00010  -0.00032   0.00411   0.01065   0.00355   0.01065   0.00410
-10.32064   0.00091  -0.00029  -0.00010  -0.00031   0.00431   0.00927   0.00364   0.00922   0.00431
-10.27054   0.00088  -0.00029  -0.00011  -0.00030   0.00492   0.00904   0.00412   0.00903   0.00494
-10.22044   0.00119  -0.00026  -0.00016  -0.00027   0.00743   0.01017   0.00682   0.01005   0.00749
-10.17034   0.00065  -0.00022  -0.00019  -0.00024   0.00595   0.01007   0.00506   0.00987   0.00613
-10.12024   0.00055  -0.00016  -0.00019  -0.00019   0.00574   0.00816   0.00453   0.00793   0.00620
-10.07014   0.00055  -0.00014  -0.00023  -0.00017   0.00655   0.00850   0.00479   0.00838   0.00709
-10.02004   0.00067  -0.00010  -0.00030  -0.00013   0.00805   0.01239   0.00569   0.01244   0.00835
 -9.96994   0.00087  -0.00006  -0.00041  -0.00009   0.01003   0.01205   0.00703   0.01211   0.01031
 -9.91984   0.00071  -0.00007  -0.00030  -0.00009   0.00963   0.01133   0.00590   0.01134   0.01001
 -9.86974   0.00069   0.00009  -0.00031   0.00008   0.00867   0.00596   0.00565   0.00605   0.00901
 -9.81964   0.00077  -0.00000  -0.00035  -0.00000   0.01028   0.00702   0.00610   0.00714   0.01049
 -9.76954   0.00099  -0.00018  -0.00051  -0.00016   0.01320   0.00987   0.00713   0.00998   0.01317
 -9.71944   0.00122  -0.00057  -0.00062  -0.00054   0.01732   0.01475   0.00839   0.01485   0.01713
 -9.66934   0.00153  -0.00057  -0.00077  -0.00054   0.01987   0.02191   0.00950   0.02205   0.01973
 -9.61924   0.00191  -0.00053  -0.00102  -0.00050   0.02238   0.02553   0.01067   0.02566   0.02225
 -9.56914   0.00194  -0.00040  -0.00119  -0.00038   0.02178   0.02574   0.01005   0.02581   0.02151
 -9.51904   0.00215  -0.00051  -0.00143  -0.00050   0.02411   0.02927   0.01052   0.02934   0.02381
 -9.46894   0.00207  -0.00051  -0.00159  -0.00050   0.02443   0.03083   0.00983   0.03088   0.02419
 -9.41884   0.00192  -0.00051  -0.00162  -0.00050   0.02412   0.03015   0.00902   0.03020   0.02383
 -9.36874   0.00188  -0.00052  -0.00172  -0.00051   0.02487   0.03067   0.00870   0.03073   0.02461
 -9.31864   0.00177  -0.00054  -0.00178  -0.00053   0.02545   0.03085   0.00825   0.03088   0.02518
 -9.26854   0.00170  -0.00049  -0.00187  -0.00048   0.02613   0.03141   0.00791   0.03142   0.02588
 -9.21844   0.00163  -0.00043  -0.00195  -0.00042   0.02709   0.03219   0.00788   0.03220   0.02684
 -9.16834   0.00156  -0.00041  -0.00208  -0.00039   0.02816   0.03319   0.00785   0.03323   0.02786
 -9.11824   0.00142  -0.00041  -0.00212  -0.00039   0.02759   0.03297   0.00741   0.03299   0.02732
 -9.06814   0.00140  -0.00061  -0.00198  -0.00059   0.02591   0.02963   0.00643   0.02963   0.02579
 -9.01804   0.00158  -0.00077  -0.00199  -0.00074   0.02509   0.02841   0.00598   0.02841   0.02501
 -8.96794   0.00236  -0.00079  -0.00215  -0.00076   0.02514   0.02885   0.00753   0.02884   0.02506
 -8.91784   0.00381  -0.00079  -0.00294  -0.00077   0.02536   0.02995   0.01056   0.03000   0.02520
 -8.86774   0.00322  -0.00075  -0.00272  -0.00073   0.02517   0.03082   0.00891   0.03083   0.02511
 -8.81764   0.00313  -0.00060  -0.00286  -0.00059   0.02547   0.03085   0.00865   0.03084   0.02553