  COHP#       atomMU       atomNU     distance     translation      ICOHP (at) eF   for spin  1
      1          Mo2          Mo1      3.33637       0   0   0           -0.21586 
      2          Mo2          Mo1      3.33637       0   0   1           -0.21621 
      3          Mo3          Mo1      3.02664       1   0   0           -0.60474 
      4          Mo3          Mo1      3.02664       1   1   0           -0.60428 
      5          Mo5          Mo1      3.02664       0   0   0           -0.60509 
      6          Mo5          Mo1      3.02664       1   0   0           -0.60518 
      7          Mo7          Mo1      3.02664       0   0   0           -0.60564 
      8          Mo7          Mo1      3.02664       1   1   0           -0.60568 
      9           B9          Mo1      2.41585       0   0   0           -1.54722 
     10          B10          Mo1      2.41585       0   0   1           -1.54724 
     11          B11          Mo1      2.41585       0   1   0           -1.54688 
     12          B12          Mo1      2.41585       0   1   1           -1.54697 
     13          B15          Mo1      2.41585       1   1   0           -1.54694 
     14          B16          Mo1      2.41585       1   1   1           -1.54693 
     15          B17          Mo1      2.41585       0   0   0           -1.54728 
     16          B18          Mo1      2.41585       0   0   1           -1.54703 
     17          B21          Mo1      2.41585       1   0   0           -1.54682 
     18          B22          Mo1      2.41585       1   0   1           -1.54710 
     19          B23          Mo1      2.41585       1   1   0           -1.54716 
     20          B24          Mo1      2.41585       1   1   1           -1.54712 
     21          Mo4          Mo2      3.02664       1   0   0           -0.60471 
     22          Mo4          Mo2      3.02664       1   1   0           -0.60435 
     23          Mo6          Mo2      3.02664       0   0   0           -0.60518 
     24          Mo6          Mo2      3.02664       1   0   0           -0.60497 
     25          Mo8          Mo2      3.02664       0   0   0           -0.60559 
     26          Mo8          Mo2      3.02664       1   1   0           -0.60566 
     27           B9          Mo2      2.41585       0   0   0           -1.54709 
     28          B10          Mo2      2.41585       0   0   0           -1.54732 
     29          B11          Mo2      2.41585       0   1   0           -1.54673 
     30          B12          Mo2      2.41585       0   1   0           -1.54710 
     31          B15          Mo2      2.41585       1   1   0           -1.54716 
     32          B16          Mo2      2.41585       1   1   0           -1.54699 
     33          B17          Mo2      2.41585       0   0   0           -1.54715 
     34          B18          Mo2      2.41585       0   0   0           -1.54710 
     35          B21          Mo2      2.41585       1   0   0           -1.54694 
     36          B22          Mo2      2.41585       1   0   0           -1.54699 
     37          B23          Mo2      2.41585       1   1   0           -1.54713 
     38          B24          Mo2      2.41585       1   1   0           -1.54704 
     39          Mo4          Mo3      3.33637       0   0   0           -0.21825 
     40          Mo4          Mo3      3.33637       0   0   1           -0.21858 
     41          Mo5          Mo3      3.02664      -1  -1   0           -0.60714 
     42          Mo5          Mo3      3.02664       0   0   0           -0.60716 
     43          Mo7          Mo3      3.02664      -1   0   0           -0.60701 
     44          Mo7          Mo3      3.02664       0   0   0           -0.60666 
     45           B9          Mo3      2.41585      -1   0   0           -1.54723 
     46          B10          Mo3      2.41585      -1   0   1           -1.54704 
     47          B11          Mo3      2.41585      -1   0   0           -1.54734 
     48          B12          Mo3      2.41585      -1   0   1           -1.54723 
     49          B13          Mo3      2.41585       0   0   0           -1.54720 
     50          B14          Mo3      2.41585       0   0   1           -1.54748 
     51          B19          Mo3      2.41585      -1   0   0           -1.54731 
     52          B20          Mo3      2.41585      -1   0   1           -1.54743 
     53          B21          Mo3      2.41585       0   0   0           -1.54725 
     54          B22          Mo3      2.41585       0   0   1           -1.54740 
     55          B23          Mo3      2.41585       0   0   0           -1.54711 
     56          B24          Mo3      2.41585       0   0   1           -1.54717 
     57          Mo6          Mo4      3.02664      -1  -1   0           -0.60710 
     58          Mo6          Mo4      3.02664       0   0   0           -0.60699 
     59          Mo8          Mo4      3.02664      -1   0   0           -0.60721 
     60          Mo8          Mo4      3.02664       0   0   0           -0.60694 
     61           B9          Mo4      2.41585      -1   0   0           -1.54710 
     62          B10          Mo4      2.41585      -1   0   0           -1.54724 
     63          B11          Mo4      2.41585      -1   0   0           -1.54723 
     64          B12          Mo4      2.41585      -1   0   0           -1.54712 
     65          B13          Mo4      2.41585       0   0   0           -1.54765 
     66          B14          Mo4      2.41585       0   0   0           -1.54724 
     67          B19          Mo4      2.41585      -1   0   0           -1.54741 
     68          B20          Mo4      2.41585      -1   0   0           -1.54732 
     69          B21          Mo4      2.41585       0   0   0           -1.54709 
     70          B22          Mo4      2.41585       0   0   0           -1.54745 
     71          B23          Mo4      2.41585       0   0   0           -1.54706 
     72          B24          Mo4      2.41585       0   0   0           -1.54720 
     73          Mo6          Mo5      3.33637       0   0   0           -0.21793 
     74          Mo6          Mo5      3.33637       0   0   1           -0.21868 
     75          Mo7          Mo5      3.02664       0   0   0           -0.60631 
     76          Mo7          Mo5      3.02664       0   1   0           -0.60650 
     77          B11          Mo5      2.41585       0   1   0           -1.54733 
     78          B12          Mo5      2.41585       0   1   1           -1.54731 
     79          B13          Mo5      2.41585       0   0   0           -1.54743 
     80          B14          Mo5      2.41585       0   0   1           -1.54726 
     81          B15          Mo5      2.41585       0   1   0           -1.54720 
     82          B16          Mo5      2.41585       0   1   1           -1.54705 
     83          B17          Mo5      2.41585       0   0   0           -1.54714 
     84          B18          Mo5      2.41585       0   0   1           -1.54708 
     85          B19          Mo5      2.41585       0   1   0           -1.54737 
     86          B20          Mo5      2.41585       0   1   1           -1.54733 
     87          B21          Mo5      2.41585       0   0   0           -1.54754 
     88          B22          Mo5      2.41585       0   0   1           -1.54713 
     89          Mo8          Mo6      3.02664       0   0   0           -0.60635 
     90          Mo8          Mo6      3.02664       0   1   0           -0.60659 
     91          B11          Mo6      2.41585       0   1   0           -1.54750 
     92          B12          Mo6      2.41585       0   1   0           -1.54723 
     93          B13          Mo6      2.41585       0   0   0           -1.54722 
     94          B14          Mo6      2.41585       0   0   0           -1.54725 
     95          B15          Mo6      2.41585       0   1   0           -1.54692 
     96          B16          Mo6      2.41585       0   1   0           -1.54721 
     97          B17          Mo6      2.41585       0   0   0           -1.54701 
     98          B18          Mo6      2.41585       0   0   0           -1.54725 
     99          B19          Mo6      2.41585       0   1   0           -1.54719 
    100          B20          Mo6      2.41585       0   1   0           -1.54758 
    101          B21          Mo6      2.41585       0   0   0           -1.54747 
    102          B22          Mo6      2.41585       0   0   0           -1.54719 
    103          Mo8          Mo7      3.33637       0   0   0           -0.21865 
    104          Mo8          Mo7      3.33637       0   0   1           -0.21858 
    105           B9          Mo7      2.41585       0   0   0           -1.54745 
    106          B10          Mo7      2.41585       0   0   1           -1.54725 
    107          B13          Mo7      2.41585       0   0   0           -1.54707 
    108          B14          Mo7      2.41585       0   0   1           -1.54735 
    109          B15          Mo7      2.41585       0   0   0           -1.54716 
    110          B16          Mo7      2.41585       0   0   1           -1.54732 
    111          B17          Mo7      2.41585       0   0   0           -1.54723 
    112          B18          Mo7      2.41585       0   0   1           -1.54736 
    113          B19          Mo7      2.41585       0   0   0           -1.54709 
    114          B20          Mo7      2.41585       0   0   1           -1.54735 
    115          B23          Mo7      2.41585       0   0   0           -1.54760 
    116          B24          Mo7      2.41585       0   0   1           -1.54735 
    117           B9          Mo8      2.41585       0   0   0           -1.54747 
    118          B10          Mo8      2.41585       0   0   0           -1.54755 
    119          B13          Mo8      2.41585       0   0   0           -1.54706 
    120          B14          Mo8      2.41585       0   0   0           -1.54735 
    121          B15          Mo8      2.41585       0   0   0           -1.54737 
    122          B16          Mo8      2.41585       0   0   0           -1.54704 
    123          B17          Mo8      2.41585       0   0   0           -1.54726 
    124          B18          Mo8      2.41585       0   0   0           -1.54726 
    125          B19          Mo8      2.41585       0   0   0           -1.54742 
    126          B20          Mo8      2.41585       0   0   0           -1.54700 
    127          B23          Mo8      2.41585       0   0   0           -1.54732 
    128          B24          Mo8      2.41585       0   0   0           -1.54755 
    129          B10           B9      3.33637       0   0   0           -0.07066 
    130          B10           B9      3.33637       0   0   1           -0.07066 
    131          B11           B9      3.02664       0   0   0           -0.07310 
    132          B11           B9      3.02664       0   1   0           -0.07309 
    133          B13           B9      3.02664       0   0   0           -0.07295 
    134          B13           B9      3.02664       1   0   0           -0.07299 
    135          B15           B9      3.02664       0   0   0           -0.07316 
    136          B15           B9      3.02664       1   1   0           -0.07317 
    137          B17           B9      1.74743       0   0   0           -6.82421 
    138          B19           B9      1.74743       0   0   0           -6.82335 
    139          B21           B9      1.74743       1   0   0           -6.82439 
    140          B23           B9      3.49486       0   0   0            0.00762 
    141          B23           B9      3.49486       1   0   0            0.00765 
    142          B23           B9      3.49486       1   1   0            0.00754 
    143          B12          B10      3.02664       0   0   0           -0.07312 
    144          B12          B10      3.02664       0   1   0           -0.07312 
    145          B14          B10      3.02664       0   0   0           -0.07294 
    146          B14          B10      3.02664       1   0   0           -0.07297 
    147          B16          B10      3.02664       0   0   0           -0.07316 
    148          B16          B10      3.02664       1   1   0           -0.07318 
    149          B18          B10      1.74743       0   0   0           -6.82452 
    150          B20          B10      1.74743       0   0   0           -6.82321 
    151          B22          B10      1.74743       1   0   0           -6.82436 
    152          B24          B10      3.49486       0   0   0            0.00762 
    153          B24          B10      3.49486       1   0   0            0.00765 
    154          B24          B10      3.49486       1   1   0            0.00754 
    155          B12          B11      3.33637       0   0   0           -0.07065 
    156          B12          B11      3.33637       0   0   1           -0.07066 
    157          B13          B11      3.02664       0  -1   0           -0.07293 
    158          B13          B11      3.02664       1   0   0           -0.07297 
    159          B15          B11      3.02664       0   0   0           -0.07314 
    160          B15          B11      3.02664       1   0   0           -0.07315 
    161          B17          B11      1.74743       0  -1   0           -6.82454 
    162          B19          B11      1.74743       0   0   0           -6.82313 
    163          B21          B11      3.49486       0  -1   0            0.00763 
    164          B21          B11      3.49486       1  -1   0            0.00757 
    165          B21          B11      3.49486       1   0   0            0.00765 
    166          B23          B11      1.74743       1   0   0           -6.82468 
    167          B14          B12      3.02664       0  -1   0           -0.07292 
    168          B14          B12      3.02664       1   0   0           -0.07297 
    169          B16          B12      3.02664       0   0   0           -0.07313 
    170          B16          B12      3.02664       1   0   0           -0.07315 
    171          B18          B12      1.74743       0  -1   0           -6.82477 
    172          B20          B12      1.74743       0   0   0           -6.82333 
    173          B22          B12      3.49486       0  -1   0            0.00763 
    174          B22          B12      3.49486       1  -1   0            0.00757 
    175          B22          B12      3.49486       1   0   0            0.00766 
    176          B24          B12      1.74743       1   0   0           -6.82443 
    177          B14          B13      3.33637       0   0   0           -0.07059 
    178          B14          B13      3.33637       0   0   1           -0.07058 
    179          B15          B13      3.02664       0   0   0           -0.07293 
    180          B15          B13      3.02664       0   1   0           -0.07294 
    181          B17          B13      1.74743       0   0   0           -6.82354 
    182          B19          B13      3.49486      -1   0   0            0.00734 
    183          B19          B13      3.49486       0   0   0            0.00734 
    184          B19          B13      3.49486       0   1   0            0.00732 
    185          B21          B13      1.74743       0   0   0           -6.82316 
    186          B23          B13      1.74743       0   0   0           -6.82323 
    187          B16          B14      3.02664       0   0   0           -0.07296 
    188          B16          B14      3.02664       0   1   0           -0.07292 
    189          B18          B14      1.74743       0   0   0           -6.82332 
    190          B20          B14      3.49486      -1   0   0            0.00734 
    191          B20          B14      3.49486       0   0   0            0.00734 
    192          B20          B14      3.49486       0   1   0            0.00732 
    193          B22          B14      1.74743       0   0   0           -6.82330 
    194          B24          B14      1.74743       0   0   0           -6.82349 
    195          B16          B15      3.33637       0   0   0           -0.07066 
    196          B16          B15      3.33637       0   0   1           -0.07065 
    197          B17          B15      3.49486      -1  -1   0            0.00755 
    198          B17          B15      3.49486       0  -1   0            0.00763 
    199          B17          B15      3.49486       0   0   0            0.00763 
    200          B19          B15      1.74743       0   0   0           -6.82335 
    201          B21          B15      1.74743       0  -1   0           -6.82472 
    202          B23          B15      1.74743       0   0   0           -6.82433 
    203          B18          B16      3.49486      -1  -1   0            0.00755 
    204          B18          B16      3.49486       0  -1   0            0.00763 
    205          B18          B16      3.49486       0   0   0            0.00762 
    206          B20          B16      1.74743       0   0   0           -6.82339 
    207          B22          B16      1.74743       0  -1   0           -6.82465 
    208          B24          B16      1.74743       0   0   0           -6.82436 
    209          B18          B17      3.33637       0   0   0           -0.07068 
    210          B18          B17      3.33637       0   0   1           -0.07067 
    211          B19          B17      3.02664       0   0   0           -0.07296 
    212          B19          B17      3.02664       0   1   0           -0.07294 
    213          B21          B17      3.02664       0   0   0           -0.07314 
    214          B21          B17      3.02664       1   0   0           -0.07312 
    215          B23          B17      3.02664       0   0   0           -0.07317 
    216          B23          B17      3.02664       1   1   0           -0.07315 
    217          B20          B18      3.02664       0   0   0           -0.07295 
    218          B20          B18      3.02664       0   1   0           -0.07296 
    219          B22          B18      3.02664       0   0   0           -0.07311 
    220          B22          B18      3.02664       1   0   0           -0.07317 
    221          B24          B18      3.02664       0   0   0           -0.07315 
    222          B24          B18      3.02664       1   1   0           -0.07317 
    223          B20          B19      3.33637       0   0   0           -0.07060 
    224          B20          B19      3.33637       0   0   1           -0.07058 
    225          B21          B19      3.02664       0  -1   0           -0.07292 
    226          B21          B19      3.02664       1   0   0           -0.07299 
    227          B23          B19      3.02664       0   0   0           -0.07293 
    228          B23          B19      3.02664       1   0   0           -0.07298 
    229          B22          B20      3.02664       0  -1   0           -0.07293 
    230          B22          B20      3.02664       1   0   0           -0.07297 
    231          B24          B20      3.02664       0   0   0           -0.07297 
    232          B24          B20      3.02664       1   0   0           -0.07298 
    233          B22          B21      3.33637       0   0   0           -0.07069 
    234          B22          B21      3.33637       0   0   1           -0.07068 
    235          B23          B21      3.02664       0   0   0           -0.07312 
    236          B23          B21      3.02664       0   1   0           -0.07307 
    237          B24          B22      3.02664       0   0   0           -0.07312 
    238          B24          B22      3.02664       0   1   0           -0.07307 
    239          B24          B23      3.33637       0   0   0           -0.07071 
    240          B24          B23      3.33637       0   0   1           -0.07068 
