   75   75   85    1
  0.2082215E+02  0.1053953E-08  0.6141200E-09  0.2412750E-08  0.5000000E-15
   1.0000000000000000E-004
  CAR 
 Name                                    
    285     23    184

  0.3742002E-15  0.3742002E-15  0.1262379E-14  0.2222222E-01
    1      -13.863839   1.000000
    2      -12.723224   1.000000
    3      -12.710377   1.000000
    4      -12.662614   1.000000
    5      -11.708026   1.000000
    6      -11.682922   1.000000
    7      -11.535423   1.000000
    8      -11.477742   1.000000
    9      -11.297611   1.000000
   10      -11.287153   1.000000
   11      -11.189676   1.000000
   12      -10.985999   1.000000
   13      -10.932734   1.000000
   14      -10.612571   1.000000
   15      -10.553812   1.000000
   16      -10.509976   1.000000
   17      -10.290797   1.000000
   18      -10.075090   1.000000
   19      -10.072105   1.000000
   20       -9.951834   1.000000
   21       -9.660227   1.000000
   22       -9.606140   1.000000
   23       -9.541750   1.000000
   24       -9.399986   1.000000
   25       -9.134494   1.000000
   26       -8.910990   1.000000
   27       -8.794799   1.000000
   28       -8.622680   1.000000
   29       -8.354625   1.000000
   30       -8.306985   1.000000
   31       -8.085310   1.000000
   32       -7.765214   1.000000
   33       -7.747892   1.000000
   34       -7.743808   1.000000
   35       -7.645625   1.000000
   36       -7.163653   1.000000
   37       -7.135305   1.000000
   38       -6.995932   1.000000
   39       -6.840643   1.000000
   40       -6.671614   1.000000
   41       -6.665036   1.000000
   42       -6.586499   1.000000
   43       -6.553308   1.000000
   44       -6.524098   1.000000
   45       -6.459255   1.000000
   46       -6.397744   1.000000
   47       -6.331266   1.000000
   48       -6.246548   1.000000
   49       -6.135516   1.000000
   50       -6.120468   1.000000
   51       -5.980137   1.000000
   52       -5.946896   1.000000
   53       -5.779759   1.000000
   54       -5.724680   1.000000
   55       -5.637968   1.000000
   56       -5.551236   1.000000
   57       -5.486682   1.000000
   58       -5.455680   1.000000
   59       -5.373308   1.000000
   60       -5.267721   1.000000
   61       -5.248797   1.000000
   62       -5.168650   1.000000
   63       -5.097974   1.000000
   64       -4.901514   1.000000
   65       -4.684808   1.000000
   66       -4.638305   1.000000
   67       -4.626554   1.000000
   68       -4.606777   1.000000
   69       -4.532649   1.000000
   70       -4.503691   1.000000
   71       -4.468488   1.000000
   72       -4.357848   1.000000
   73       -4.289726   1.000000
   74       -4.174276   1.000000
   75       -4.054454   1.000000
   76       -3.990227   1.000000
   77       -3.978081   1.000000
   78       -3.921287   1.000000
   79       -3.904419   1.000000
   80       -3.860760   1.000000
   81       -3.842848   1.000000
   82       -3.842220   1.000000
   83       -3.801617   1.000000
   84       -3.784987   1.000000
   85       -3.745573   1.000000
   86       -3.688161   1.000000
   87       -3.564708   1.000000
   88       -3.525220   1.000000
   89       -3.486953   1.000000
   90       -3.479552   1.000000
   91       -3.356380   1.000000
   92       -3.127143   1.000000
   93       -3.121917   1.000000
   94       -3.051064   1.000000
   95       -2.984455   1.000000
   96       -2.971358   1.000000
   97       -2.946070   1.000000
   98       -2.819386   1.000000
   99       -2.749930   1.000000
  100       -2.674471   1.000000
  101       -2.635128   1.000000
  102       -2.551134   1.000000
  103       -2.419988   1.000000
  104       -2.337444   1.000000
  105       -2.324435   1.000000
  106       -2.291853   1.000000
  107       -2.271833   1.000000
  108       -2.147404   1.000000
  109       -2.104429   1.000000
  110       -2.056943   1.000000
  111       -2.031834   1.000000
  112       -2.013934   1.000000
  113       -2.007136   1.000000
  114       -1.825145   1.000000
  115       -1.820708   1.000000
  116       -1.636340   1.000000
  117       -1.611145   1.000000
  118       -1.538337   1.000000
  119       -1.517268   1.000000
  120       -1.378818   1.000000
  121       -1.340781   1.000000
  122       -1.200587   1.000000
  123       -0.963535   1.000000
  124       -0.953328   1.000000
  125       -0.897611   1.000000
  126       -0.755065   1.000000
  127       -0.664691   1.000000
  128       -0.431861   1.000000
  129       -0.378457   1.000000
  130       -0.294419   1.000000
  131       -0.151292   1.000000
  132       -0.113599   1.000000
  133       -0.089065   1.000000
  134       -0.020387   1.000000
  135        0.187088   1.000000
  136        0.274113   1.000095
  137        0.313318   1.000715
  138        0.337608   1.002097
  139        0.391970   1.013734
  140        0.403143   1.018257
  141        0.407052   1.019980
  142        0.496422   0.983064
  143        0.591772   0.350693
  144        0.637403   0.064522
  145        0.684805  -0.033096
  146        0.691469  -0.035076
  147        0.739830  -0.020313
  148        0.753875  -0.014407
  149        0.851735  -0.000304
  150        0.908490  -0.000012
  151        1.092888  -0.000000
  152        1.117689  -0.000000
  153        1.184687  -0.000000
  154        1.263797  -0.000000
  155        1.280899  -0.000000
  156        1.334802  -0.000000
  157        1.368708  -0.000000
  158        1.386073  -0.000000
  159        1.416324  -0.000000
  160        1.433602  -0.000000
  161        1.509543  -0.000000
  162        1.512421  -0.000000
  163        1.562651  -0.000000
  164        1.587216  -0.000000
  165        1.657912  -0.000000
  166        1.740039  -0.000000
  167        1.766023  -0.000000
  168        1.790165  -0.000000
  169        1.815758  -0.000000
  170        1.831644  -0.000000
  171        1.843765  -0.000000
  172        1.866888  -0.000000
  173        1.912682  -0.000000
  174        1.923979  -0.000000
  175        1.988508  -0.000000
  176        2.024299  -0.000000
  177        2.109765  -0.000000
  178        2.125577  -0.000000
  179        2.138463  -0.000000
  180        2.175603  -0.000000
  181        2.230488  -0.000000
  182        2.240783  -0.000000
  183        2.335987  -0.000000
  184        2.337927  -0.000000

  0.2000000E+00  0.3742002E-15  0.1262379E-14  0.4444444E-01
    1      -13.815428   1.000000
    2      -13.111137   1.000000
    3      -12.639117   1.000000
    4      -12.235605   1.000000
    5      -11.987396   1.000000
    6      -11.675643   1.000000
    7      -11.524821   1.000000
    8      -11.301450   1.000000
    9      -11.226775   1.000000
   10      -11.219009   1.000000
   11      -11.138824   1.000000
   12      -11.025446   1.000000
   13      -10.850428   1.000000
   14      -10.678409   1.000000
   15      -10.643811   1.000000
   16      -10.525982   1.000000
   17      -10.503111   1.000000
   18      -10.319615   1.000000
   19      -10.045961   1.000000
   20       -9.958753   1.000000
   21       -9.608565   1.000000
   22       -9.514242   1.000000
   23       -9.403167   1.000000
   24       -9.353259   1.000000
   25       -9.185950   1.000000
   26       -9.067530   1.000000
   27       -8.638254   1.000000
   28       -8.428091   1.000000
   29       -8.295246   1.000000
   30       -8.229941   1.000000
   31       -8.130028   1.000000
   32       -8.019466   1.000000
   33       -7.691363   1.000000
   34       -7.627500   1.000000
   35       -7.514915   1.000000
   36       -7.407002   1.000000
   37       -7.143895   1.000000
   38       -7.107201   1.000000
   39       -7.032604   1.000000
   40       -6.780130   1.000000
   41       -6.649711   1.000000
   42       -6.621835   1.000000
   43       -6.609033   1.000000
   44       -6.549531   1.000000
   45       -6.507966   1.000000
   46       -6.413790   1.000000
   47       -6.120910   1.000000
   48       -6.104598   1.000000
   49       -6.091803   1.000000
   50       -6.007128   1.000000
   51       -5.973983   1.000000
   52       -5.927883   1.000000
   53       -5.835461   1.000000
   54       -5.672327   1.000000
   55       -5.547433   1.000000
   56       -5.516380   1.000000
   57       -5.419860   1.000000
   58       -5.388173   1.000000
   59       -5.364798   1.000000
   60       -5.289424   1.000000
   61       -5.272184   1.000000
   62       -5.219336   1.000000
   63       -5.110413   1.000000
   64       -4.969646   1.000000
   65       -4.750954   1.000000
   66       -4.653280   1.000000
   67       -4.604908   1.000000
   68       -4.598178   1.000000
   69       -4.577153   1.000000
   70       -4.505681   1.000000
   71       -4.504709   1.000000
   72       -4.257539   1.000000
   73       -4.229950   1.000000
   74       -4.142511   1.000000
   75       -4.111573   1.000000
   76       -4.046296   1.000000
   77       -4.036536   1.000000
   78       -3.934684   1.000000
   79       -3.883857   1.000000
   80       -3.862181   1.000000
   81       -3.857813   1.000000
   82       -3.844883   1.000000
   83       -3.842236   1.000000
   84       -3.786977   1.000000
   85       -3.737203   1.000000
   86       -3.562724   1.000000
   87       -3.520253   1.000000
   88       -3.501697   1.000000
   89       -3.496668   1.000000
   90       -3.453948   1.000000
   91       -3.377344   1.000000
   92       -3.207246   1.000000
   93       -3.118885   1.000000
   94       -3.074932   1.000000
   95       -3.068093   1.000000
   96       -3.039236   1.000000
   97       -2.963124   1.000000
   98       -2.868215   1.000000
   99       -2.746077   1.000000
  100       -2.684849   1.000000
  101       -2.663723   1.000000
  102       -2.538889   1.000000
  103       -2.415256   1.000000
  104       -2.380779   1.000000
  105       -2.349782   1.000000
  106       -2.192898   1.000000
  107       -2.141603   1.000000
  108       -2.117426   1.000000
  109       -2.100694   1.000000
  110       -2.081150   1.000000
  111       -2.014548   1.000000
  112       -1.940528   1.000000
  113       -1.899660   1.000000
  114       -1.805407   1.000000
  115       -1.684172   1.000000
  116       -1.676080   1.000000
  117       -1.659744   1.000000
  118       -1.544970   1.000000
  119       -1.394221   1.000000
  120       -1.341942   1.000000
  121       -1.298985   1.000000
  122       -1.220398   1.000000
  123       -1.061817   1.000000
  124       -0.998373   1.000000
  125       -0.924540   1.000000
  126       -0.787174   1.000000
  127       -0.733740   1.000000
  128       -0.463876   1.000000
  129       -0.416892   1.000000
  130       -0.406765   1.000000
  131       -0.385604   1.000000
  132       -0.171754   1.000000
  133       -0.100926   1.000000
  134       -0.092288   1.000000
  135        0.080725   1.000000
  136        0.140472   1.000000
  137        0.234596   1.000009
  138        0.362799   1.005512
  139        0.384758   1.011202
  140        0.463915   1.032584
  141        0.493422   0.991039
  142        0.607348   0.233109
  143        0.689423  -0.034662
  144        0.733919  -0.023016
  145        0.745887  -0.017652
  146        0.749468  -0.016155
  147        0.763587  -0.010967
  148        0.784662  -0.005543
  149        0.791915  -0.004267
  150        0.858955  -0.000209
  151        1.052850  -0.000000
  152        1.199781  -0.000000
  153        1.260025  -0.000000
  154        1.284332  -0.000000
  155        1.314885  -0.000000
  156        1.357943  -0.000000
  157        1.378613  -0.000000
  158        1.389510  -0.000000
  159        1.428400  -0.000000
  160        1.491787  -0.000000
  161        1.562120  -0.000000
  162        1.575700  -0.000000
  163        1.590330  -0.000000
  164        1.611108  -0.000000
  165        1.672083  -0.000000
  166        1.723531  -0.000000
  167        1.757515  -0.000000
  168        1.784010  -0.000000
  169        1.824654  -0.000000
  170        1.834720  -0.000000
  171        1.889917  -0.000000
  172        1.929247  -0.000000
  173        1.938063  -0.000000
  174        1.991737  -0.000000
  175        1.998543  -0.000000
  176        2.039160  -0.000000
  177        2.058422  -0.000000
  178        2.101189  -0.000000
  179        2.135687  -0.000000
  180        2.144642  -0.000000
  181        2.220789  -0.000000
  182        2.268393  -0.000000
  183        2.291045  -0.000000
  184        2.349292  -0.000000

  0.4000000E+00  0.3742002E-15  0.1262379E-14  0.4444444E-01
    1      -13.671387   1.000000
    2      -13.434462   1.000000
    3      -12.510694   1.000000
    4      -12.285650   1.000000
    5      -11.694789   1.000000
    6      -11.644714   1.000000
    7      -11.592991   1.000000
    8      -11.236890   1.000000
    9      -11.192595   1.000000
   10      -11.164263   1.000000
   11      -11.067930   1.000000
   12      -10.991483   1.000000
   13      -10.959283   1.000000
   14      -10.829143   1.000000
   15      -10.721860   1.000000
   16      -10.593944   1.000000
   17      -10.555036   1.000000
   18      -10.353138   1.000000
   19      -10.198341   1.000000
   20       -9.971316   1.000000
   21       -9.753062   1.000000
   22       -9.479845   1.000000
   23       -9.423190   1.000000
   24       -9.218063   1.000000
   25       -9.153315   1.000000
   26       -8.874306   1.000000
   27       -8.442972   1.000000
   28       -8.399446   1.000000
   29       -8.273363   1.000000
   30       -8.128481   1.000000
   31       -8.072928   1.000000
   32       -7.826455   1.000000
   33       -7.788084   1.000000
   34       -7.668872   1.000000
   35       -7.639291   1.000000
   36       -7.514273   1.000000
   37       -7.365939   1.000000
   38       -7.313454   1.000000
   39       -7.126343   1.000000
   40       -6.997929   1.000000
   41       -6.774164   1.000000
   42       -6.538891   1.000000
   43       -6.481603   1.000000
   44       -6.470187   1.000000
   45       -6.445117   1.000000
   46       -6.357763   1.000000
   47       -6.252507   1.000000
   48       -6.081771   1.000000
   49       -6.007833   1.000000
   50       -5.937228   1.000000
   51       -5.880294   1.000000
   52       -5.785265   1.000000
   53       -5.783213   1.000000
   54       -5.662248   1.000000
   55       -5.608789   1.000000
   56       -5.588450   1.000000
   57       -5.486412   1.000000
   58       -5.361548   1.000000
   59       -5.278396   1.000000
   60       -5.257236   1.000000
   61       -5.235021   1.000000
   62       -5.054261   1.000000
   63       -4.980316   1.000000
   64       -4.886560   1.000000
   65       -4.800126   1.000000
   66       -4.791318   1.000000
   67       -4.688325   1.000000
   68       -4.674105   1.000000
   69       -4.610376   1.000000
   70       -4.542364   1.000000
   71       -4.405113   1.000000
   72       -4.322602   1.000000
   73       -4.244027   1.000000
   74       -4.159577   1.000000
   75       -4.091877   1.000000
   76       -4.051671   1.000000
   77       -4.023658   1.000000
   78       -3.999917   1.000000
   79       -3.961424   1.000000
   80       -3.879759   1.000000
   81       -3.859272   1.000000
   82       -3.843856   1.000000
   83       -3.817723   1.000000
   84       -3.715550   1.000000
   85       -3.653804   1.000000
   86       -3.612393   1.000000
   87       -3.553708   1.000000
   88       -3.505938   1.000000
   89       -3.371146   1.000000
   90       -3.351893   1.000000
   91       -3.295531   1.000000
   92       -3.274264   1.000000
   93       -3.229556   1.000000
   94       -3.204221   1.000000
   95       -3.122293   1.000000
   96       -3.090567   1.000000
   97       -3.025091   1.000000
   98       -2.890963   1.000000
   99       -2.836213   1.000000
  100       -2.763066   1.000000
  101       -2.722610   1.000000
  102       -2.478894   1.000000
  103       -2.455706   1.000000
  104       -2.390151   1.000000
  105       -2.227747   1.000000
  106       -2.199129   1.000000
  107       -2.170887   1.000000
  108       -2.047453   1.000000
  109       -1.997418   1.000000
  110       -1.932872   1.000000
  111       -1.865977   1.000000
  112       -1.798610   1.000000
  113       -1.756169   1.000000
  114       -1.728419   1.000000
  115       -1.714905   1.000000
  116       -1.705304   1.000000
  117       -1.624285   1.000000
  118       -1.431816   1.000000
  119       -1.343129   1.000000
  120       -1.289857   1.000000
  121       -1.275326   1.000000
  122       -1.133913   1.000000
  123       -1.128843   1.000000
  124       -1.072800   1.000000
  125       -0.978939   1.000000
  126       -0.885427   1.000000
  127       -0.825253   1.000000
  128       -0.797012   1.000000
  129       -0.764084   1.000000
  130       -0.560280   1.000000
  131       -0.391484   1.000000
  132       -0.378427   1.000000
  133       -0.141876   1.000000
  134       -0.087232   1.000000
  135        0.072117   1.000000
  136        0.099305   1.000000
  137        0.321222   1.001031
  138        0.336395   1.001994
  139        0.362655   1.005484
  140        0.383553   1.010811
  141        0.471586   1.027286
  142        0.592859   0.342009
  143        0.675047  -0.026362
  144        0.729341  -0.025134
  145        0.779400  -0.006646
  146        0.783773  -0.005719
  147        0.810277  -0.002075
  148        0.878895  -0.000070
  149        0.953047  -0.000001
  150        1.039906  -0.000000
  151        1.059624  -0.000000
  152        1.143496  -0.000000
  153        1.210359  -0.000000
  154        1.320118  -0.000000
  155        1.407415  -0.000000
  156        1.440456  -0.000000
  157        1.475435  -0.000000
  158        1.555027  -0.000000
  159        1.568719  -0.000000
  160        1.572117  -0.000000
  161        1.595078  -0.000000
  162        1.621358  -0.000000
  163        1.636846  -0.000000
  164        1.689605  -0.000000
  165        1.702739  -0.000000
  166        1.735759  -0.000000
  167        1.747159  -0.000000
  168        1.756475  -0.000000
  169        1.830020  -0.000000
  170        1.877474  -0.000000
  171        1.884602  -0.000000
  172        1.899405  -0.000000
  173        1.925869  -0.000000
  174        2.004248  -0.000000
  175        2.029993  -0.000000
  176        2.050945  -0.000000
  177        2.065634  -0.000000
  178        2.102615  -0.000000
  179        2.107407  -0.000000
  180        2.122507  -0.000000
  181        2.177843  -0.000000
  182        2.196141  -0.000000
  183        2.314957  -0.000000
  184        2.360935  -0.000000

  0.3742002E-15  0.1111111E+00  0.1262379E-14  0.4444444E-01
    1      -13.816984   1.000000
    2      -12.683530   1.000000
    3      -12.674667   1.000000
    4      -12.625946   1.000000
    5      -11.794462   1.000000
    6      -11.674616   1.000000
    7      -11.515261   1.000000
    8      -11.504566   1.000000
    9      -11.327346   1.000000
   10      -11.290578   1.000000
   11      -11.219455   1.000000
   12      -10.993703   1.000000
   13      -10.940450   1.000000
   14      -10.584522   1.000000
   15      -10.559650   1.000000
   16      -10.530884   1.000000
   17      -10.294440   1.000000
   18      -10.048163   1.000000
   19      -10.047884   1.000000
   20       -9.941275   1.000000
   21       -9.634138   1.000000
   22       -9.589689   1.000000
   23       -9.576471   1.000000
   24       -9.429598   1.000000
   25       -9.130288   1.000000
   26       -8.892942   1.000000
   27       -8.816751   1.000000
   28       -8.635936   1.000000
   29       -8.358901   1.000000
   30       -8.287502   1.000000
   31       -7.950675   1.000000
   32       -7.813794   1.000000
   33       -7.758302   1.000000
   34       -7.750328   1.000000
   35       -7.648712   1.000000
   36       -7.274434   1.000000
   37       -7.205664   1.000000
   38       -6.971760   1.000000
   39       -6.830033   1.000000
   40       -6.651212   1.000000
   41       -6.613549   1.000000
   42       -6.570939   1.000000
   43       -6.563215   1.000000
   44       -6.524714   1.000000
   45       -6.463492   1.000000
   46       -6.379492   1.000000
   47       -6.343246   1.000000
   48       -6.223587   1.000000
   49       -6.147110   1.000000
   50       -6.124771   1.000000
   51       -6.031855   1.000000
   52       -5.884663   1.000000
   53       -5.733324   1.000000
   54       -5.731081   1.000000
   55       -5.591266   1.000000
   56       -5.577666   1.000000
   57       -5.471131   1.000000
   58       -5.469460   1.000000
   59       -5.367868   1.000000
   60       -5.203342   1.000000
   61       -5.186774   1.000000
   62       -5.127327   1.000000
   63       -5.077763   1.000000
   64       -4.911763   1.000000
   65       -4.714428   1.000000
   66       -4.663751   1.000000
   67       -4.590742   1.000000
   68       -4.557695   1.000000
   69       -4.531805   1.000000
   70       -4.491674   1.000000
   71       -4.439720   1.000000
   72       -4.327924   1.000000
   73       -4.291914   1.000000
   74       -4.186396   1.000000
   75       -4.081814   1.000000
   76       -4.043324   1.000000
   77       -4.001064   1.000000
   78       -3.988641   1.000000
   79       -3.956918   1.000000
   80       -3.932700   1.000000
   81       -3.898932   1.000000
   82       -3.898893   1.000000
   83       -3.849129   1.000000
   84       -3.747154   1.000000
   85       -3.692539   1.000000
   86       -3.688892   1.000000
   87       -3.603568   1.000000
   88       -3.570344   1.000000
   89       -3.484376   1.000000
   90       -3.448820   1.000000
   91       -3.435829   1.000000
   92       -3.210499   1.000000
   93       -3.180710   1.000000
   94       -3.016844   1.000000
   95       -2.948395   1.000000
   96       -2.924561   1.000000
   97       -2.871613   1.000000
   98       -2.733359   1.000000
   99       -2.693783   1.000000
  100       -2.667307   1.000000
  101       -2.631010   1.000000
  102       -2.574062   1.000000
  103       -2.502095   1.000000
  104       -2.425861   1.000000
  105       -2.361065   1.000000
  106       -2.279911   1.000000
  107       -2.263064   1.000000
  108       -2.174859   1.000000
  109       -2.156752   1.000000
  110       -2.096158   1.000000
  111       -2.044569   1.000000
  112       -2.015787   1.000000
  113       -1.954524   1.000000
  114       -1.836959   1.000000
  115       -1.825481   1.000000
  116       -1.658122   1.000000
  117       -1.605316   1.000000
  118       -1.495368   1.000000
  119       -1.485132   1.000000
  120       -1.336908   1.000000
  121       -1.313955   1.000000
  122       -1.163953   1.000000
  123       -1.074781   1.000000
  124       -0.972965   1.000000
  125       -0.886368   1.000000
  126       -0.734697   1.000000
  127       -0.601059   1.000000
  128       -0.600177   1.000000
  129       -0.446613   1.000000
  130       -0.253513   1.000000
  131       -0.237068   1.000000
  132       -0.153852   1.000000
  133       -0.120799   1.000000
  134        0.026850   1.000000
  135        0.172629   1.000000
  136        0.173291   1.000000
  137        0.274238   1.000096
  138        0.297948   1.000338
  139        0.347517   1.003125
  140        0.389923   1.012982
  141        0.477558   1.020790
  142        0.490429   0.998202
  143        0.514201   0.918259
  144        0.665436  -0.014111
  145        0.675633  -0.026915
  146        0.703992  -0.034636
  147        0.788872  -0.004770
  148        0.861658  -0.000181
  149        0.872026  -0.000103
  150        1.075731  -0.000000
  151        1.108305  -0.000000
  152        1.165233  -0.000000
  153        1.203007  -0.000000
  154        1.212503  -0.000000
  155        1.307873  -0.000000
  156        1.343302  -0.000000
  157        1.379037  -0.000000
  158        1.389563  -0.000000
  159        1.395634  -0.000000
  160        1.518444  -0.000000
  161        1.528738  -0.000000
  162        1.552401  -0.000000
  163        1.563548  -0.000000
  164        1.574137  -0.000000
  165        1.669890  -0.000000
  166        1.709897  -0.000000
  167        1.736265  -0.000000
  168        1.771006  -0.000000
  169        1.834808  -0.000000
  170        1.855786  -0.000000
  171        1.863628  -0.000000
  172        1.894791  -0.000000
  173        1.902545  -0.000000
  174        1.961282  -0.000000
  175        1.971626  -0.000000
  176        1.995042  -0.000000
  177        2.031248  -0.000000
  178        2.081378  -0.000000
  179        2.088994  -0.000000
  180        2.129196  -0.000000
  181        2.133326  -0.000000
  182        2.186459  -0.000000
  183        2.275961  -0.000000
  184        2.321832  -0.000000

  0.2000000E+00  0.1111111E+00  0.1262379E-14  0.4444444E-01
    1      -13.768973   1.000000
    2      -13.070789   1.000000
    3      -12.600406   1.000000
    4      -12.203706   1.000000
    5      -11.956140   1.000000
    6      -11.776657   1.000000
    7      -11.579342   1.000000
    8      -11.280929   1.000000
    9      -11.253149   1.000000
   10      -11.241501   1.000000
   11      -11.128020   1.000000
   12      -11.045071   1.000000
   13      -10.849417   1.000000
   14      -10.662104   1.000000
   15      -10.634960   1.000000
   16      -10.545966   1.000000
   17      -10.479707   1.000000
   18      -10.324319   1.000000
   19      -10.045039   1.000000
   20       -9.945149   1.000000
   21       -9.596512   1.000000
   22       -9.499587   1.000000
   23       -9.431040   1.000000
   24       -9.343475   1.000000
   25       -9.184957   1.000000
   26       -9.067921   1.000000
   27       -8.650064   1.000000
   28       -8.431077   1.000000
   29       -8.298314   1.000000
   30       -8.229130   1.000000
   31       -8.124629   1.000000
   32       -7.885114   1.000000
   33       -7.740810   1.000000
   34       -7.651587   1.000000
   35       -7.519088   1.000000
   36       -7.479867   1.000000
   37       -7.177280   1.000000
   38       -7.025264   1.000000
   39       -7.010174   1.000000
   40       -6.763450   1.000000
   41       -6.706622   1.000000
   42       -6.618540   1.000000
   43       -6.594422   1.000000
   44       -6.539377   1.000000
   45       -6.514488   1.000000
   46       -6.499585   1.000000
   47       -6.235029   1.000000
   48       -6.127324   1.000000
   49       -6.074964   1.000000
   50       -5.990761   1.000000
   51       -5.877034   1.000000
   52       -5.843200   1.000000
   53       -5.808318   1.000000
   54       -5.690351   1.000000
   55       -5.563327   1.000000
   56       -5.468323   1.000000
   57       -5.421055   1.000000
   58       -5.401152   1.000000
   59       -5.359171   1.000000
   60       -5.249469   1.000000
   61       -5.203814   1.000000
   62       -5.173248   1.000000
   63       -5.086221   1.000000
   64       -4.948828   1.000000
   65       -4.742651   1.000000
   66       -4.654296   1.000000
   67       -4.626405   1.000000
   68       -4.564726   1.000000
   69       -4.506925   1.000000
   70       -4.486300   1.000000
   71       -4.472562   1.000000
   72       -4.281259   1.000000
   73       -4.252872   1.000000
   74       -4.159948   1.000000
   75       -4.084917   1.000000
   76       -4.067701   1.000000
   77       -4.050565   1.000000
   78       -4.038603   1.000000
   79       -3.978082   1.000000
   80       -3.943878   1.000000
   81       -3.930793   1.000000
   82       -3.877705   1.000000
   83       -3.802459   1.000000
   84       -3.758022   1.000000
   85       -3.747873   1.000000
   86       -3.601574   1.000000
   87       -3.568858   1.000000
   88       -3.526484   1.000000
   89       -3.519871   1.000000
   90       -3.437164   1.000000
   91       -3.357308   1.000000
   92       -3.238402   1.000000
   93       -3.150296   1.000000
   94       -3.097646   1.000000
   95       -3.035942   1.000000
   96       -2.943348   1.000000
   97       -2.897476   1.000000
   98       -2.879044   1.000000
   99       -2.763446   1.000000
  100       -2.710124   1.000000
  101       -2.664694   1.000000
  102       -2.537755   1.000000
  103       -2.447162   1.000000
  104       -2.427665   1.000000
  105       -2.384528   1.000000
  106       -2.242490   1.000000
  107       -2.172044   1.000000
  108       -2.132082   1.000000
  109       -2.074040   1.000000
  110       -2.049471   1.000000
  111       -1.996421   1.000000
  112       -1.933836   1.000000
  113       -1.896510   1.000000
  114       -1.812321   1.000000
  115       -1.796648   1.000000
  116       -1.674106   1.000000
  117       -1.649062   1.000000
  118       -1.571315   1.000000
  119       -1.372780   1.000000
  120       -1.329653   1.000000
  121       -1.261633   1.000000
  122       -1.225500   1.000000
  123       -1.170907   1.000000
  124       -0.976751   1.000000
  125       -0.938280   1.000000
  126       -0.828432   1.000000
  127       -0.708943   1.000000
  128       -0.628787   1.000000
  129       -0.421321   1.000000
  130       -0.353753   1.000000
  131       -0.214806   1.000000
  132       -0.170649   1.000000
  133       -0.097928   1.000000
  134        0.045073   1.000000
  135        0.079037   1.000000
  136        0.125795   1.000000
  137        0.188380   1.000000
  138        0.232224   1.000008
  139        0.294602   1.000285
  140        0.428470   1.029670
  141        0.535758   0.797645
  142        0.567281   0.555135
  143        0.591007   0.356843
  144        0.614968   0.182258
  145        0.718481  -0.029949
  146        0.726595  -0.026395
  147        0.758693  -0.012627
  148        0.931119  -0.000003
  149        0.953276  -0.000001
  150        0.990508  -0.000000
  151        1.119704  -0.000000
  152        1.150062  -0.000000
  153        1.203512  -0.000000
  154        1.301516  -0.000000
  155        1.374240  -0.000000
  156        1.409938  -0.000000
  157        1.417960  -0.000000