 running on   72 total cores
 distrk:  each k-point on   72 cores,    1 groups
 distr:  one band on    9 cores,    8 groups
 using from now: INCAR     
 vasp.5.4.4.18Apr17-6-g9f103f2a35 (build Dec  7 2020 12:43:57) complex           
 POSCAR found type information on POSCAR  Mo V  B  H 
 POSCAR found :  4 types and      75 ions
 scaLAPACK will be used
 LDA part: xc-table for Pade appr. of Perdew
 POSCAR, INCAR and KPOINTS ok, starting setup
 resort distribution
 resort distribution
 resort distribution
 resort distribution
 resort distribution
 resort distribution
 resort distribution
 resort distribution
 resort distribution
 resort distribution
 resort distribution
 resort distribution
 resort distribution
 resort distribution
 resort distribution
 resort distribution
 resort distribution
 resort distribution
 resort distribution
 resort distribution
 resort distribution
 resort distribution
 resort distribution
 resort distribution
 resort distribution
 resort distribution
 resort distribution
 resort distribution
 resort distribution
 resort distribution
 resort distribution
 resort distribution
 resort distribution
 resort distribution
 resort distribution
 resort distribution
 resort distribution
 resort distribution
 resort distribution
 resort distribution
 resort distribution
 resort distribution
 resort distribution
 resort distribution
 resort distribution
 resort distribution
 resort distribution
 resort distribution
 resort distribution
 resort distribution
 resort distribution
 resort distribution
 resort distribution
 resort distribution
 resort distribution
 resort distribution
 resort distribution
 resort distribution
 resort distribution
 resort distribution
 resort distribution
 resort distribution
 resort distribution
 resort distribution
 resort distribution
 resort distribution
 resort distribution
 resort distribution
 resort distribution
 resort distribution
 resort distribution
 resort distribution
 FFT: planning ...
 WAVECAR not read
 augmentation electrons   285.03527071027003     
 soft         electrons   0.0000000000000000     
 augmentation electrons   285.03527071027003     
 soft         electrons   0.0000000000000000     
 augmentation electrons   285.03527071027003     
 soft         electrons   0.0000000000000000     
 augmentation electrons   285.03527071027003     
 soft         electrons   0.0000000000000000     
 augmentation electrons   285.03527071027003     
 soft         electrons   0.0000000000000000     
 augmentation electrons   285.03527071027003     
 soft         electrons   0.0000000000000000     
 augmentation electrons   285.03527071027003     
 soft         electrons   0.0000000000000000     
 augmentation electrons   285.03527071027003     
 soft         electrons   0.0000000000000000     
 augmentation electrons   285.03527071027003     
 soft         electrons   0.0000000000000000     
 augmentation electrons   285.03527071027003     
 soft         electrons   0.0000000000000000     
 augmentation electrons   285.03527071027003     
 soft         electrons   0.0000000000000000     
 augmentation electrons   285.03527071027003     
 soft         electrons   0.0000000000000000     
 augmentation electrons   285.03527071027003     
 soft         electrons   0.0000000000000000     
 augmentation electrons   285.03527071027003     
 soft         electrons   0.0000000000000000     
 augmentation electrons   285.03527071027003     
 soft         electrons   0.0000000000000000     
 augmentation electrons   285.03527071027003     
 soft         electrons   0.0000000000000000     
 augmentation electrons   285.03527071027003     
 soft         electrons   0.0000000000000000     
 augmentation electrons   285.03527071027003     
 soft         electrons   0.0000000000000000     
 augmentation electrons   285.03527071027003     
 soft         electrons   0.0000000000000000     
 augmentation electrons   285.03527071027003     
 soft         electrons   0.0000000000000000     
 augmentation electrons   285.03527071027003     
 soft         electrons   0.0000000000000000     
 augmentation electrons   285.03527071027003     
 soft         electrons   0.0000000000000000     
 augmentation electrons   285.03527071027003     
 soft         electrons   0.0000000000000000     
 augmentation electrons   285.03527071027003     
 soft         electrons   0.0000000000000000     
 augmentation electrons   285.03527071027003     
 soft         electrons   0.0000000000000000     
 augmentation electrons   285.03527071027003     
 soft         electrons   0.0000000000000000     
 augmentation electrons   285.03527071027003     
 soft         electrons   0.0000000000000000     
 augmentation electrons   285.03527071027003     
 soft         electrons   0.0000000000000000     
 augmentation electrons   285.03527071027003     
 soft         electrons   0.0000000000000000     
 augmentation electrons   285.03527071027003     
 soft         electrons   0.0000000000000000     
 augmentation electrons   285.03527071027003     
 soft         electrons   0.0000000000000000     
 augmentation electrons   285.03527071027003     
 soft         electrons   0.0000000000000000     
 augmentation electrons   285.03527071027003     
 soft         electrons   0.0000000000000000     
 augmentation electrons   285.03527071027003     
 soft         electrons   0.0000000000000000     
 augmentation electrons   285.03527071027003     
 soft         electrons   0.0000000000000000     
 augmentation electrons   285.03527071027003     
 soft         electrons   0.0000000000000000     
 augmentation electrons   285.03527071027003     
 soft         electrons   0.0000000000000000     
 augmentation electrons   285.03527071027003     
 soft         electrons   0.0000000000000000     
 augmentation electrons   285.03527071027003     
 soft         electrons   0.0000000000000000     
 augmentation electrons   285.03527071027003     
 soft         electrons   0.0000000000000000     
 augmentation electrons   285.03527071027003     
 soft         electrons   0.0000000000000000     
 augmentation electrons   285.03527071027003     
 soft         electrons   0.0000000000000000     
 augmentation electrons   285.03527071027003     
 soft         electrons   0.0000000000000000     
 augmentation electrons   285.03527071027003     
 soft         electrons   0.0000000000000000     
 augmentation electrons   285.03527071027003     
 soft         electrons   0.0000000000000000     
 augmentation electrons   285.03527071027003     
 soft         electrons   0.0000000000000000     
 augmentation electrons   285.03527071027003     
 soft         electrons   0.0000000000000000     
 augmentation electrons   285.03527071027003     
 soft         electrons   0.0000000000000000     
 augmentation electrons   285.03527071027003     
 soft         electrons   0.0000000000000000     
 augmentation electrons   285.03527071027003     
 soft         electrons   0.0000000000000000     
 augmentation electrons   285.03527071027003     
 soft         electrons   0.0000000000000000     
 augmentation electrons   285.03527071027003     
 soft         electrons   0.0000000000000000     
 augmentation electrons   285.03527071027003     
 soft         electrons   0.0000000000000000     
 augmentation electrons   285.03527071027003     
 soft         electrons   0.0000000000000000     
 augmentation electrons   285.03527071027003     
 soft         electrons   0.0000000000000000     
 augmentation electrons   285.03527071027003     
 soft         electrons   0.0000000000000000     
 augmentation electrons   285.03527071027003     
 soft         electrons   0.0000000000000000     
 augmentation electrons   285.03527071027003     
 soft         electrons   0.0000000000000000     
 augmentation electrons   285.03527071027003     
 soft         electrons   0.0000000000000000     
 augmentation electrons   285.03527071027003     
 soft         electrons   0.0000000000000000     
 augmentation electrons   285.03527071027003     
 soft         electrons   0.0000000000000000     
 augmentation electrons   285.03527071027003     
 soft         electrons   0.0000000000000000     
 augmentation electrons   285.03527071027003     
 soft         electrons   0.0000000000000000     
 augmentation electrons   285.03527071027003     
 soft         electrons   0.0000000000000000     
 augmentation electrons   285.03527071027003     
 soft         electrons   0.0000000000000000     
 augmentation electrons   285.03527071027003     
 soft         electrons   0.0000000000000000     
 augmentation electrons   285.03527071027003     
 augmentation electrons   285.03527071027003     
 soft         electrons   0.0000000000000000     
 augmentation electrons   285.03527071027003     
 soft         electrons   0.0000000000000000     
 augmentation electrons   285.03527071027003     
 soft         electrons   0.0000000000000000     
 augmentation electrons   285.03527071027003     
 soft         electrons   0.0000000000000000     
 augmentation electrons   285.03527071027003     
 soft         electrons   0.0000000000000000     
 soft         electrons   0.0000000000000000     
 total        electrons   285.03527071027003     
 total        electrons   285.03527071027003     
 total        electrons   285.03527071027003     
 total        electrons   285.03527071027003     
 total        electrons   285.03527071027003     
 total        electrons   285.03527071027003     
 total        electrons   285.03527071027003     
 total        electrons   285.03527071027003     
 total        electrons   285.03527071027003     
 total        electrons   285.03527071027003     
 total        electrons   285.03527071027003     
 total        electrons   285.03527071027003     
 total        electrons   285.03527071027003     
 total        electrons   285.03527071027003     
 total        electrons   285.03527071027003     
 total        electrons   285.03527071027003     
 total        electrons   285.03527071027003     
 total        electrons   285.03527071027003     
 total        electrons   285.03527071027003     
 total        electrons   285.03527071027003     
 total        electrons   285.03527071027003     
 total        electrons   285.03527071027003     
 total        electrons   285.03527071027003     
 total        electrons   285.03527071027003     
 total        electrons   285.03527071027003     
 total        electrons   285.03527071027003     
 total        electrons   285.03527071027003     
 total        electrons   285.03527071027003     
 total        electrons   285.03527071027003     
 total        electrons   285.03527071027003     
 total        electrons   285.03527071027003     
 total        electrons   285.03527071027003     
 total        electrons   285.03527071027003     
 total        electrons   285.03527071027003     
 total        electrons   285.03527071027003     
 total        electrons   285.03527071027003     
 total        electrons   285.03527071027003     
 total        electrons   285.03527071027003     
 total        electrons   285.03527071027003     
 total        electrons   285.03527071027003     
 total        electrons   285.03527071027003     
 total        electrons   285.03527071027003     
 total        electrons   285.03527071027003     
 total        electrons   285.03527071027003     
 total        electrons   285.03527071027003     
 total        electrons   285.03527071027003     
 total        electrons   285.03527071027003     
 total        electrons   285.03527071027003     
 total        electrons   285.03527071027003     
 total        electrons   285.03527071027003     
 total        electrons   285.03527071027003     
 total        electrons   285.03527071027003     
 total        electrons   285.03527071027003     
 total        electrons   285.03527071027003     
 total        electrons   285.03527071027003     
 total        electrons   285.03527071027003     
 total        electrons   285.03527071027003     
 total        electrons   285.03527071027003     
 total        electrons   285.03527071027003     
 total        electrons   285.03527071027003     
 total        electrons   285.03527071027003     
 total        electrons   285.03527071027003     
 total        electrons   285.03527071027003     
 total        electrons   285.03527071027003     
 total        electrons   285.03527071027003     
 total        electrons   285.03527071027003     
 total        electrons   285.03527071027003     
 total        electrons   285.03527071027003     
 total        electrons   285.03527071027003     
 total        electrons   285.03527071027003     
 total        electrons   285.03527071027003     
 total        electrons   285.03527071027003     
 augmentation electrons   1046.9897952800966     
 soft         electrons   0.0000000000000000     
 total        electrons   1046.9897952800966     
 augmentation electrons   1046.9897952800966     
 soft         electrons   0.0000000000000000     
 total        electrons   1046.9897952800966     
 augmentation electrons   1046.9897952800966     
 soft         electrons   0.0000000000000000     
 total        electrons   1046.9897952800966     
 augmentation electrons   1046.9897952800966     
 soft         electrons   0.0000000000000000     
 total        electrons   1046.9897952800966     
 augmentation electrons   1046.9897952800966     
 soft         electrons   0.0000000000000000     
 total        electrons   1046.9897952800966     
 augmentation electrons   1046.9897952800966     
 soft         electrons   0.0000000000000000     
 total        electrons   1046.9897952800966     
 augmentation electrons   1046.9897952800966     
 soft         electrons   0.0000000000000000     
 augmentation electrons   1046.9897952800966     
 soft         electrons   0.0000000000000000     
 total        electrons   1046.9897952800966     
 augmentation electrons   1046.9897952800966     
 soft         electrons   0.0000000000000000     
 augmentation electrons   1046.9897952800966     
 soft         electrons   0.0000000000000000     
 total        electrons   1046.9897952800966     
 augmentation electrons   1046.9897952800966     
 soft         electrons   0.0000000000000000     
 total        electrons   1046.9897952800966     
 augmentation electrons   1046.9897952800966     
 soft         electrons   0.0000000000000000     
 total        electrons   1046.9897952800966     
 augmentation electrons   1046.9897952800966     
 soft         electrons   0.0000000000000000     
 total        electrons   1046.9897952800966     
 augmentation electrons   1046.9897952800966     
 soft         electrons   0.0000000000000000     
 total        electrons   1046.9897952800966     
 augmentation electrons   1046.9897952800966     
 soft         electrons   0.0000000000000000     
 total        electrons   1046.9897952800966     
 augmentation electrons   1046.9897952800966     
 soft         electrons   0.0000000000000000     
 total        electrons   1046.9897952800966     
 augmentation electrons   1046.9897952800966     
 soft         electrons   0.0000000000000000     
 total        electrons   1046.9897952800966     
 augmentation electrons   1046.9897952800966     
 soft         electrons   0.0000000000000000     
 total        electrons   1046.9897952800966     
 augmentation electrons   1046.9897952800966     
 soft         electrons   0.0000000000000000     
 total        electrons   1046.9897952800966     
 augmentation electrons   1046.9897952800966     
 soft         electrons   0.0000000000000000     
 total        electrons   1046.9897952800966     
 augmentation electrons   1046.9897952800966     
 soft         electrons   0.0000000000000000     
 total        electrons   1046.9897952800966     
 augmentation electrons   1046.9897952800966     
 soft         electrons   0.0000000000000000     
 total        electrons   1046.9897952800966     
 augmentation electrons   1046.9897952800966     
 soft         electrons   0.0000000000000000     
 total        electrons   1046.9897952800966     
 augmentation electrons   1046.9897952800966     
 soft         electrons   0.0000000000000000     
 total        electrons   1046.9897952800966     
 augmentation electrons   1046.9897952800966     
 soft         electrons   0.0000000000000000     
 total        electrons   1046.9897952800966     
 augmentation electrons   1046.9897952800966     
 soft         electrons   0.0000000000000000     
 total        electrons   1046.9897952800966     
 augmentation electrons   1046.9897952800966     
 soft         electrons   0.0000000000000000     
 total        electrons   1046.9897952800966     
 augmentation electrons   1046.9897952800966     
 soft         electrons   0.0000000000000000     
 augmentation electrons   1046.9897952800966     
 soft         electrons   0.0000000000000000     
 total        electrons   1046.9897952800966     
 augmentation electrons   1046.9897952800966     
 soft         electrons   0.0000000000000000     
 total        electrons   1046.9897952800966     
 augmentation electrons   1046.9897952800966     
 soft         electrons   0.0000000000000000     
 total        electrons   1046.9897952800966     
 augmentation electrons   1046.9897952800966     
 soft         electrons   0.0000000000000000     
 total        electrons   1046.9897952800966     
 augmentation electrons   1046.9897952800966     
 soft         electrons   0.0000000000000000     
 total        electrons   1046.9897952800966     
 augmentation electrons   1046.9897952800966     
 soft         electrons   0.0000000000000000     
 total        electrons   1046.9897952800966     
 augmentation electrons   1046.9897952800966     
 soft         electrons   0.0000000000000000     
 total        electrons   1046.9897952800966     
 augmentation electrons   1046.9897952800966     
 soft         electrons   0.0000000000000000     
 total        electrons   1046.9897952800966     
 augmentation electrons   1046.9897952800966     
 soft         electrons   0.0000000000000000     
 total        electrons   1046.9897952800966     
 augmentation electrons   1046.9897952800966     
 soft         electrons   0.0000000000000000     
 total        electrons   1046.9897952800966     
 augmentation electrons   1046.9897952800966     
 soft         electrons   0.0000000000000000     
 total        electrons   1046.9897952800966     
 augmentation electrons   1046.9897952800966     
 soft         electrons   0.0000000000000000     
 total        electrons   1046.9897952800966     
 augmentation electrons   1046.9897952800966     
 soft         electrons   0.0000000000000000     
 total        electrons   1046.9897952800966     
 augmentation electrons   1046.9897952800966     
 soft         electrons   0.0000000000000000     
 total        electrons   1046.9897952800966     
 augmentation electrons   1046.9897952800966     
 soft         electrons   0.0000000000000000     
 total        electrons   1046.9897952800966     
 augmentation electrons   1046.9897952800966     
 soft         electrons   0.0000000000000000     
 total        electrons   1046.9897952800966     
 augmentation electrons   1046.9897952800966     
 soft         electrons   0.0000000000000000     
 total        electrons   1046.9897952800966     
 augmentation electrons   1046.9897952800966     
 soft         electrons   0.0000000000000000     
 augmentation electrons   1046.9897952800966     
 soft         electrons   0.0000000000000000     
 total        electrons   1046.9897952800966     
 augmentation electrons   1046.9897952800966     
 soft         electrons   0.0000000000000000     
 total        electrons   1046.9897952800966     
 augmentation electrons   1046.9897952800966     
 soft         electrons   0.0000000000000000     
 total        electrons   1046.9897952800966     
 augmentation electrons   1046.9897952800966     
 soft         electrons   0.0000000000000000     
 total        electrons   1046.9897952800966     
 augmentation electrons   1046.9897952800966     
 soft         electrons   0.0000000000000000     
 total        electrons   1046.9897952800966     
 augmentation electrons   1046.9897952800966     
 soft         electrons   0.0000000000000000     
 total        electrons   1046.9897952800966     
 augmentation electrons   1046.9897952800966     
 soft         electrons   0.0000000000000000     
 total        electrons   1046.9897952800966     
 augmentation electrons   1046.9897952800966     
 soft         electrons   0.0000000000000000     
 total        electrons   1046.9897952800966     
 augmentation electrons   1046.9897952800966     
 soft         electrons   0.0000000000000000     
 total        electrons   1046.9897952800966     
 augmentation electrons   1046.9897952800966     
 soft         electrons   0.0000000000000000     
 total        electrons   1046.9897952800966     
 augmentation electrons   1046.9897952800966     
 soft         electrons   0.0000000000000000     
 total        electrons   1046.9897952800966     
 augmentation electrons   1046.9897952800966     
 soft         electrons   0.0000000000000000     
 total        electrons   1046.9897952800966     
 augmentation electrons   1046.9897952800966     
 soft         electrons   0.0000000000000000     
 total        electrons   1046.9897952800966     
 augmentation electrons   1046.9897952800966     
 soft         electrons   0.0000000000000000     
 total        electrons   1046.9897952800966     
 augmentation electrons   1046.9897952800966     
 soft         electrons   0.0000000000000000     
 total        electrons   1046.9897952800966     
 augmentation electrons   1046.9897952800966     
 soft         electrons   0.0000000000000000     
 total        electrons   1046.9897952800966     
 augmentation electrons   1046.9897952800966     
 soft         electrons   0.0000000000000000     
 total        electrons   1046.9897952800966     
 augmentation electrons   1046.9897952800966     
 soft         electrons   0.0000000000000000     
 total        electrons   1046.9897952800966     
 augmentation electrons   1046.9897952800966     
 soft         electrons   0.0000000000000000     
 augmentation electrons   1046.9897952800966     
 soft         electrons   0.0000000000000000     
 total        electrons   1046.9897952800966     
 augmentation electrons   1046.9897952800966     
 soft         electrons   0.0000000000000000     
 total        electrons   1046.9897952800966     
 augmentation electrons   1046.9897952800966     
 soft         electrons   0.0000000000000000     
 total        electrons   1046.9897952800966     
 augmentation electrons   1046.9897952800966     
 soft         electrons   0.0000000000000000     
 total        electrons   1046.9897952800966     
 augmentation electrons   1046.9897952800966     
 soft         electrons   0.0000000000000000     
 total        electrons   1046.9897952800966     
 augmentation electrons   1046.9897952800966     
 soft         electrons   0.0000000000000000     
 total        electrons   1046.9897952800966     
 augmentation electrons   1046.9897952800966     
 soft         electrons   0.0000000000000000     
 total        electrons   1046.9897952800966     
 total        electrons   1046.9897952800966     
 total        electrons   1046.9897952800966     
 total        electrons   1046.9897952800966     
 total        electrons   1046.9897952800966     
 total        electrons   1046.9897952800966     
 entering main loop
       N       E                     dE             d eps       ncg     rms          rms(c)
DAV:   1     0.247319170011E+04    0.24732E+04   -0.10376E+05  8464   0.127E+03
DAV:   2    -0.215684164192E+03   -0.26889E+04   -0.25009E+04  9696   0.315E+02
DAV:   3    -0.657023776837E+03   -0.44134E+03   -0.41893E+03 11952   0.147E+02
DAV:   4    -0.695178505060E+03   -0.38155E+02   -0.36275E+02 13728   0.469E+01
DAV:   5    -0.697778384363E+03   -0.25999E+01   -0.24971E+01 14432   0.113E+01    0.147E+02
RMM:   6    -0.647998988914E+03    0.49779E+02   -0.11765E+03 11626   0.884E+01    0.729E+01
RMM:   7    -0.722918949961E+03   -0.74920E+02   -0.37545E+02 11660   0.361E+01    0.534E+01
RMM:   8    -0.611479527075E+03    0.11144E+03   -0.80910E+01 10330   0.263E+01    0.316E+01
RMM:   9    -0.617368242528E+03   -0.58887E+01   -0.48588E+01 10719   0.165E+01    0.300E+01
RMM:  10    -0.594376031370E+03    0.22992E+02   -0.18806E+01 10462   0.111E+01    0.188E+01
RMM:  11    -0.594182548144E+03    0.19348E+00   -0.42032E+00 10240   0.518E+00    0.168E+01
RMM:  12    -0.594325573734E+03   -0.14303E+00   -0.16485E+00 11484   0.185E+00    0.157E+01
RMM:  13    -0.593715796403E+03    0.60978E+00   -0.18699E+00  8776   0.424E+00    0.133E+01
RMM:  14    -0.593810127958E+03   -0.94332E-01   -0.76850E+00  8544   0.955E+00    0.988E+00
RMM:  15    -0.593266017542E+03    0.54411E+00   -0.22424E+00 10878   0.314E+00    0.590E+00
RMM:  16    -0.593064488211E+03    0.20153E+00   -0.83724E-01 10366   0.222E+00    0.471E+00
RMM:  17    -0.592896207872E+03    0.16828E+00   -0.59712E-01 10698   0.184E+00    0.259E+00
RMM:  18    -0.592854495513E+03    0.41712E-01   -0.58604E-01 11587   0.127E+00    0.148E+00
RMM:  19    -0.592857172272E+03   -0.26768E-02   -0.11021E-01 10459   0.760E-01    0.137E+00
RMM:  20    -0.592851075414E+03    0.60969E-02   -0.33462E-02 10507   0.383E-01    0.123E+00
RMM:  21    -0.592832708410E+03    0.18367E-01   -0.72455E-02  9571   0.792E-01    0.852E-01
RMM:  22    -0.592829225023E+03    0.34834E-02   -0.40661E-02 11522   0.346E-01    0.504E-01
RMM:  23    -0.592827846213E+03    0.13788E-02   -0.11923E-02  9220   0.321E-01    0.284E-01
RMM:  24    -0.592827963599E+03   -0.11739E-03   -0.36077E-03  9550   0.157E-01    0.121E-01
RMM:  25    -0.592829794424E+03   -0.18308E-02   -0.33711E-03  9458   0.139E-01    0.225E-01
RMM:  26    -0.592830028629E+03   -0.23420E-03   -0.18206E-03  8486   0.148E-01    0.100E-01
RMM:  27    -0.592830771129E+03   -0.74250E-03   -0.89922E-04  9366   0.803E-02    0.952E-02
RMM:  28    -0.592831571199E+03   -0.80007E-03   -0.88367E-04 11171   0.375E-02    0.590E-02
RMM:  29    -0.592831796714E+03   -0.22552E-03   -0.27701E-04  9662   0.361E-02    0.372E-02
RMM:  30    -0.592831969094E+03   -0.17238E-03   -0.80861E-05  8625   0.284E-02    0.232E-02
RMM:  31    -0.592832070556E+03   -0.10146E-03   -0.62340E-05  9016   0.864E-03    0.108E-02
RMM:  32    -0.592832128377E+03   -0.57821E-04   -0.18231E-05  7265   0.749E-03    0.729E-03
RMM:  33    -0.592832237651E+03   -0.10927E-03   -0.14614E-05  7187   0.532E-03    0.792E-03
RMM:  34    -0.592832346703E+03   -0.10905E-03   -0.75078E-06  6488   0.673E-03    0.725E-03
RMM:  35    -0.592832474009E+03   -0.12731E-03   -0.10895E-05  6979   0.468E-03    0.626E-03
RMM:  36    -0.592832538819E+03   -0.64810E-04   -0.58233E-06  6121   0.470E-03    0.405E-03
RMM:  37    -0.592832580854E+03   -0.42034E-04   -0.49802E-06  6310   0.516E-03    0.705E-03
RMM:  38    -0.592832603905E+03   -0.23052E-04   -0.33773E-06  5884   0.512E-03    0.302E-03
RMM:  39    -0.592832606462E+03   -0.25567E-05   -0.73095E-07  5074   0.209E-03    0.165E-03
RMM:  40    -0.592832612104E+03   -0.56421E-05   -0.80473E-07  5170   0.268E-03    0.189E-03
RMM:  41    -0.592832613843E+03   -0.17393E-05   -0.46787E-07  4991   0.187E-03    0.305E-04
RMM:  42    -0.592832616007E+03   -0.21640E-05   -0.37115E-07  4113   0.127E-03    0.868E-04
RMM:  43    -0.592832616150E+03   -0.14313E-06   -0.17702E-07  3737   0.127E-03
   1 F= -.59283262E+03 E0= -.59283454E+03  d E =-.592833E+03
 curvature:   0.00 expect dE= 0.000E+00 dE for cont linesearch  0.000E+00
 trial: gam= 0.00000 g(F)=  0.339E-02 g(S)=  0.000E+00 ort = 0.000E+00 (trialstep = 0.100E+01)
 search vector abs. value=  0.339E-02
 bond charge predicted
       N       E                     dE             d eps       ncg     rms          rms(c)
DAV:   1    -0.592835666383E+03   -0.30504E-02   -0.51922E-02  9328   0.439E-01    0.486E-02
RMM:   2    -0.592835742292E+03   -0.75909E-04   -0.81411E-04 10709   0.684E-02    0.340E-02
RMM:   3    -0.592835799989E+03   -0.57697E-04   -0.23427E-04  9506   0.463E-02    0.644E-02
RMM:   4    -0.592835762220E+03    0.37769E-04   -0.79207E-05  8991   0.317E-02    0.275E-02
RMM:   5    -0.592835759929E+03    0.22906E-05   -0.34758E-05  8879   0.134E-02    0.233E-02
RMM:   6    -0.592835755218E+03    0.47116E-05   -0.12789E-05  7299   0.103E-02    0.153E-02
RMM:   7    -0.592835753209E+03    0.20086E-05   -0.59060E-06  6297   0.879E-03    0.803E-03
RMM:   8    -0.592835753070E+03    0.13889E-06   -0.32442E-06  5933   0.534E-03
   2 F= -.59283575E+03 E0= -.59283767E+03  d E =-.313692E-02
 ZBRENT: can't locate minimum, use default step
 trial-energy change:   -0.003137  1 .order   -0.003133   -0.003386   -0.002880
 step:   4.0000(harm=  6.6941)  dis= 0.04482  next Energy=  -592.843950 (dE=-0.113E-01)
 bond charge predicted
       N       E                     dE             d eps       ncg     rms          rms(c)
DAV:   1    -0.592841497721E+03   -0.57445E-02   -0.46975E-01  9040   0.132E+00    0.148E-01
RMM:   2    -0.592842155340E+03   -0.65762E-03   -0.71164E-03 10693   0.208E-01    0.101E-01
RMM:   3    -0.592842707814E+03   -0.55247E-03   -0.21407E-03  9534   0.140E-01    0.200E-01
RMM:   4    -0.592842386153E+03    0.32166E-03   -0.73100E-04  9050   0.968E-02    0.101E-01
RMM:   5    -0.592842301139E+03    0.85015E-04   -0.32856E-04 10259   0.432E-02    0.639E-02
RMM:   6    -0.592842281411E+03    0.19727E-04   -0.14405E-04 10036   0.316E-02    0.543E-02
RMM:   7    -0.592842254502E+03    0.26909E-04   -0.63980E-05  8825   0.254E-02    0.249E-02
RMM:   8    -0.592842252278E+03    0.22241E-05   -0.38632E-05  9058   0.148E-02    0.193E-02
RMM:   9    -0.592842248519E+03    0.37590E-05   -0.13824E-05  7214   0.940E-03    0.690E-03
RMM:  10    -0.592842249321E+03   -0.80194E-06   -0.65261E-06  6459   0.611E-03
   3 F= -.59284225E+03 E0= -.59284417E+03  d E =-.963317E-02
 curvature:  -2.60 expect dE=-0.809E-02 dE for cont linesearch -0.162E-02
 ZBRENT: increasing intervall
 opt :  10.0000  next Energy=  -592.842399 (dE=-0.978E-02)
 bond charge predicted
       N       E                     dE             d eps       ncg     rms          rms(c)
DAV:   1    -0.592840264862E+03    0.19837E-02   -0.18902E+00  8784   0.264E+00    0.303E-01
RMM:   2    -0.592842897203E+03   -0.26323E-02   -0.28649E-02 10787   0.417E-01    0.207E-01
RMM:   3    -0.592845175543E+03   -0.22783E-02   -0.91131E-03  9530   0.290E-01    0.405E-01
RMM:   4    -0.592843389623E+03    0.17859E-02   -0.29367E-03  8861   0.200E-01    0.122E-01
RMM:   5    -0.592843611429E+03   -0.22181E-03   -0.12667E-03 10416   0.827E-02    0.160E-01
RMM:   6    -0.592843357330E+03    0.25410E-03   -0.44762E-04 10325   0.552E-02    0.888E-02
RMM:   7    -0.592843291163E+03    0.66167E-04   -0.23491E-04  9098   0.453E-02    0.535E-02
RMM:   8    -0.592843275485E+03    0.15678E-04   -0.13796E-04 10319   0.274E-02    0.372E-02
RMM:   9    -0.592843262227E+03    0.13258E-04   -0.51107E-05  9195   0.186E-02    0.140E-02
RMM:  10    -0.592843265350E+03   -0.31229E-05   -0.26984E-05  8151   0.963E-03    0.146E-02
RMM:  11    -0.592843263572E+03    0.17776E-05   -0.68294E-06  6303   0.856E-03    0.587E-03
RMM:  12    -0.592843264334E+03   -0.76192E-06   -0.46754E-06  6218   0.444E-03
   4 F= -.59284326E+03 E0= -.59284519E+03  d E =-.106482E-01
 curvature:  -0.24 expect dE=-0.386E-02 dE for cont linesearch -0.762E-04
 ZBRENT: bracketing found
 ZBRENT: interpolating
 opt :   7.5039  next Energy=  -592.844556 (dE=-0.119E-01)
 bond charge predicted
       N       E                     dE             d eps       ncg     rms          rms(c)
DAV:   1    -0.592844105418E+03   -0.84185E-03   -0.32750E-01  8808   0.110E+00    0.127E-01
RMM:   2    -0.592844582863E+03   -0.47744E-03   -0.51836E-03 10812   0.176E-01    0.861E-02
RMM:   3    -0.592844979443E+03   -0.39658E-03   -0.15414E-03  9602   0.119E-01    0.167E-01
RMM:   4    -0.592844713800E+03    0.26564E-03   -0.51418E-04  8944   0.819E-02    0.768E-02
RMM:   5    -0.592844687992E+03    0.25808E-04   -0.20361E-04  9692   0.390E-02    0.568E-02
RMM:   6    -0.592844659862E+03    0.28130E-04   -0.97258E-05 10571   0.214E-02    0.340E-02
RMM:   7    -0.592844648506E+03    0.11357E-04   -0.38564E-05  8512   0.194E-02    0.216E-02
RMM:   8    -0.592844646660E+03    0.18456E-05   -0.22154E-05  8112   0.115E-02    0.164E-02
RMM:   9    -0.592844644125E+03    0.25349E-05   -0.72845E-06  6508   0.826E-03    0.644E-03
RMM:  10    -0.592844644581E+03   -0.45609E-06   -0.45721E-06  6106   0.544E-03
   5 F= -.59284464E+03 E0= -.59284657E+03  d E =-.120284E-01
 curvature:  -4.08 expect dE=-0.362E-01 dE for cont linesearch -0.364E-05
 trial: gam= 2.63372 g(F)=  0.886E-02 g(S)=  0.000E+00 ort =-0.549E-04 (trialstep = 0.243E+00)
 search vector abs. value=  0.321E-01
 bond charge predicted
       N       E                     dE             d eps       ncg     rms          rms(c)
DAV:   1    -0.592846658194E+03   -0.20141E-02   -0.29171E-02  8880   0.328E-01    0.357E-02
RMM:   2    -0.592846699897E+03   -0.41703E-04   -0.42772E-04  9846   0.566E-02    0.248E-02
RMM:   3    -0.592846735625E+03   -0.35729E-04   -0.13974E-04 10072   0.339E-02    0.464E-02
RMM:   4    -0.592846722156E+03    0.13469E-04   -0.42083E-05  8912   0.207E-02    0.353E-02
RMM:   5    -0.592846708656E+03    0.13500E-04   -0.20043E-05  7908   0.147E-02    0.131E-02
RMM:   6    -0.592846710234E+03   -0.15777E-05   -0.14049E-05  7544   0.856E-03    0.158E-02
RMM:   7    -0.592846707797E+03    0.24373E-05   -0.48194E-06  5998   0.782E-03    0.751E-03
RMM:   8    -0.592846707170E+03    0.62693E-06   -0.17094E-06  5423   0.451E-03
   6 F= -.59284671E+03 E0= -.59284863E+03  d E =-.206259E-02
 ZBRENT: can't locate minimum, use default step
 trial-energy change:   -0.002063  1 .order   -0.002062   -0.002119   -0.002006
 step:   0.9720(harm=  4.5861)  dis= 0.03414  next Energy=  -592.864637 (dE=-0.200E-01)
 bond charge predicted
       N       E                     dE             d eps       ncg     rms          rms(c)
DAV:   1    -0.592851790861E+03   -0.50831E-02   -0.26254E-01  8712   0.984E-01    0.106E-01
RMM:   2    -0.592852162040E+03   -0.37118E-03   -0.37430E-03 10650   0.160E-01    0.715E-02
RMM:   3    -0.592852625749E+03   -0.46371E-03   -0.12401E-03 10403   0.982E-02    0.164E-01
RMM:   4    -0.592852381608E+03    0.24414E-03   -0.39335E-04  9976   0.575E-02    0.109E-01
RMM:   5    -0.592852234896E+03    0.14671E-03   -0.20524E-04  8847   0.479E-02    0.298E-02
RMM:   6    -0.592852248015E+03   -0.13119E-04   -0.12512E-04 10649   0.221E-02    0.381E-02
RMM:   7    -0.592852235058E+03    0.12957E-04   -0.35734E-05  8191   0.182E-02    0.185E-02
RMM:   8    -0.592852232906E+03    0.21518E-05   -0.18116E-05  7655   0.954E-03    0.119E-02
RMM:   9    -0.592852231594E+03    0.13124E-05   -0.52384E-06  6161   0.654E-03    0.535E-03
RMM:  10    -0.592852231781E+03   -0.18767E-06   -0.19217E-06  5508   0.416E-03
   7 F= -.59285223E+03 E0= -.59285414E+03  d E =-.758720E-02
 curvature:  -2.59 expect dE=-0.133E-01 dE for cont linesearch -0.378E-02
 ZBRENT: increasing intervall
 opt :   2.4299  next Energy=  -592.860131 (dE=-0.155E-01)
 bond charge predicted
       N       E                     dE             d eps       ncg     rms          rms(c)
DAV:   1    -0.592858104827E+03   -0.58732E-02   -0.10432E+00  8496   0.196E+00    0.210E-01
RMM:   2    -0.592859608441E+03   -0.15036E-02   -0.15055E-02 10671   0.319E-01    0.147E-01
RMM:   3    -0.592861545248E+03   -0.19368E-02   -0.48654E-03 10285   0.199E-01    0.345E-01
RMM:   4    -0.592860580064E+03    0.96518E-03   -0.17601E-03 10094   0.117E-01    0.237E-01
RMM:   5    -0.592859866591E+03    0.71347E-03   -0.91395E-04  8847   0.101E-01    0.570E-02
RMM:   6    -0.592859926060E+03   -0.59469E-04   -0.54606E-04 10819   0.468E-02    0.785E-02
RMM:   7    -0.592859872938E+03    0.53122E-04   -0.14881E-04  9337   0.366E-02    0.372E-02
RMM:   8    -0.592859865483E+03    0.74549E-05   -0.81591E-05  9943   0.197E-02    0.242E-02
RMM:   9    -0.592859859630E+03    0.58524E-05   -0.25318E-05  7980   0.122E-02    0.100E-02
RMM:  10    -0.592859860677E+03   -0.10465E-05   -0.11016E-05  7145   0.683E-03    0.813E-03
RMM:  11    -0.592859860236E+03    0.44072E-06   -0.31003E-06  5687   0.581E-03
   8 F= -.59285986E+03 E0= -.59286175E+03  d E =-.152157E-01
 curvature:  -5.42 expect dE=-0.650E-02 dE for cont linesearch -0.201E-02
 ZBRENT: increasing intervall
 opt :   5.3458  next Energy=  -592.860017 (dE=-0.154E-01)
 bond charge predicted
       N       E                     dE             d eps       ncg     rms          rms(c)
DAV:   1    -0.592850411942E+03    0.94487E-02   -0.40829E+00  8488   0.389E+00    0.408E-01
RMM:   2    -0.592856503862E+03   -0.60919E-02   -0.60628E-02 10669   0.641E-01    0.289E-01
RMM:   3    -0.592863894853E+03   -0.73910E-02   -0.18722E-02 10527   0.378E-01    0.667E-01
RMM:   4    -0.592860251633E+03    0.36432E-02   -0.72138E-03 10129   0.232E-01    0.477E-01
RMM:   5    -0.592857517486E+03    0.27341E-02   -0.38820E-03  8819   0.208E-01    0.121E-01
RMM:   6    -0.592857721338E+03   -0.20385E-03   -0.22647E-03 10842   0.945E-02    0.152E-01
RMM:   7    -0.592857532699E+03    0.18864E-03   -0.63344E-04  9446   0.753E-02    0.845E-02
RMM:   8    -0.592857477943E+03    0.54756E-04   -0.32480E-04 10448   0.415E-02    0.483E-02
RMM:   9    -0.592857456380E+03    0.21564E-04   -0.11569E-04  9731   0.252E-02    0.218E-02
RMM:  10    -0.592857459878E+03   -0.34981E-05   -0.49358E-05  9594   0.142E-02    0.181E-02
RMM:  11    -0.592857457212E+03    0.26659E-05   -0.14851E-05  7496   0.101E-02    0.936E-03
RMM:  12    -0.592857458141E+03   -0.92934E-06   -0.95210E-06  6920   0.696E-03
   9 F= -.59285746E+03 E0= -.59285930E+03  d E =-.128136E-01
 curvature:  -0.42 expect dE=-0.196E-02 dE for cont linesearch -0.420E-03
 ZBRENT: bracketing found
 ZBRENT: interpolating
 opt :   3.5343  next Energy=  -592.861763 (dE=-0.171E-01)
 bond charge predicted
       N       E                     dE             d eps       ncg     rms          rms(c)
DAV:   1    -0.592859466092E+03   -0.20089E-02   -0.15987E+00  8472   0.243E+00    0.255E-01
RMM:   2    -0.592861649578E+03   -0.21835E-02   -0.21996E-02 10287   0.399E-01    0.179E-01
RMM:   3    -0.592864928284E+03   -0.32787E-02   -0.72816E-03 10755   0.230E-01    0.438E-01
RMM:   4    -0.592862865135E+03    0.20631E-02   -0.26754E-03 10007   0.146E-01    0.264E-01
RMM:   5    -0.592862038614E+03    0.82652E-03   -0.14996E-03  8803   0.128E-01    0.706E-02
RMM:   6    -0.592862123503E+03   -0.84888E-04   -0.80142E-04 10886   0.567E-02    0.915E-02
RMM:   7    -0.592862053062E+03    0.70441E-04   -0.23173E-04  9199   0.462E-02    0.509E-02
RMM:   8    -0.592862037513E+03    0.15549E-04   -0.12441E-04 10336   0.247E-02    0.308E-02
RMM:   9    -0.592862027969E+03    0.95435E-05   -0.41747E-05  8669   0.154E-02    0.131E-02
RMM:  10    -0.592862029145E+03   -0.11760E-05   -0.18782E-05  7898   0.917E-03    0.116E-02
RMM:  11    -0.592862027845E+03    0.13003E-05   -0.53924E-06  6186   0.693E-03    0.578E-03
RMM:  12    -0.592862028266E+03   -0.42129E-06   -0.34445E-06  5850   0.538E-03
  10 F= -.59286203E+03 E0= -.59286389E+03  d E =-.173837E-01
 curvature:  -1.91 expect dE=-0.696E-03 dE for cont linesearch -0.974E-05
 ZBRENT: interpolating
 opt :   3.6714  next Energy=  -592.862058 (dE=-0.174E-01)
 bond charge predicted
       N       E                     dE             d eps       ncg     rms          rms(c)
DAV:   1    -0.592862037162E+03   -0.93171E-05   -0.91569E-03  8816   0.185E-01    0.197E-02
RMM:   2    -0.592862050918E+03   -0.13756E-04   -0.13947E-04  9535   0.328E-02    0.136E-02
RMM:   3    -0.592862069741E+03   -0.18822E-04   -0.41701E-05 10272   0.155E-02    0.317E-02
RMM:   4    -0.592862056659E+03    0.13082E-04   -0.14078E-05  7419   0.112E-02    0.189E-02
RMM:   5    -0.592862053407E+03    0.32517E-05   -0.80274E-06  6645   0.106E-02    0.784E-03
RMM:   6    -0.592862053482E+03   -0.74337E-07   -0.31148E-06  5800   0.587E-03
  11 F= -.59286205E+03 E0= -.59286392E+03  d E =-.174089E-01
 curvature:  -5.80 expect dE=-0.245E-02 dE for cont linesearch -0.189E-06
 trial: gam= 0.09820 g(F)=  0.422E-03 g(S)=  0.000E+00 ort =-0.323E-04 (trialstep = 0.929E+00)
 search vector abs. value=  0.725E-03
 bond charge predicted
       N       E                     dE             d eps       ncg     rms          rms(c)
DAV:   1    -0.592862331267E+03   -0.27786E-03   -0.97537E-03  8720   0.198E-01    0.243E-02
RMM:   2    -0.592862353750E+03   -0.22483E-04   -0.23007E-04 10659   0.371E-02    0.235E-02
RMM:   3    -0.592862364170E+03   -0.10420E-04   -0.51468E-05  8905   0.232E-02    0.351E-02
RMM:   4    -0.592862361474E+03    0.26963E-05   -0.24126E-05  8487   0.135E-02    0.268E-02
RMM:   5    -0.592862354064E+03    0.74097E-05   -0.96904E-06  6698   0.109E-02    0.120E-02
RMM:   6    -0.592862354833E+03   -0.76836E-06   -0.88568E-06  6609   0.884E-03
  12 F= -.59286235E+03 E0= -.59286421E+03  d E =-.301351E-03
 trial-energy change:   -0.000301  1 .order   -0.000298   -0.000389   -0.000207
 step:   1.9854(harm=  1.9854)  dis= 0.00796  next Energy=  -592.862469 (dE=-0.416E-03)
 bond charge predicted
       N       E                     dE             d eps       ncg     rms          rms(c)
DAV:   1    -0.592862441549E+03   -0.87485E-04   -0.12610E-02  8696   0.226E-01    0.279E-02
RMM:   2    -0.592862472915E+03   -0.31366E-04   -0.31055E-04 10272   0.445E-02    0.250E-02
RMM:   3    -0.592862493326E+03   -0.20411E-04   -0.67488E-05  9916   0.233E-02    0.410E-02
RMM:   4    -0.592862483235E+03    0.10091E-04   -0.33328E-05  9335   0.164E-02    0.304E-02
RMM:   5    -0.592862473296E+03    0.99392E-05   -0.17842E-05  8015   0.144E-02    0.138E-02
RMM:   6    -0.592862473767E+03   -0.47072E-06   -0.10923E-05  7321   0.938E-03    0.130E-02
RMM:   7    -0.592862473008E+03    0.75858E-06   -0.53239E-06  6140   0.831E-03
  13 F= -.59286247E+03 E0= -.59286433E+03  d E =-.419526E-03
 curvature:  -1.72 expect dE=-0.877E-04 dE for cont linesearch -0.931E-12
 trial: gam= 0.10998 g(F)=  0.511E-04 g(S)=  0.000E+00 ort = 0.198E-07 (trialstep = 0.114E+01)
 search vector abs. value=  0.598E-04
 bond charge predicted
       N       E                     dE             d eps       ncg     rms          rms(c)
DAV:   1    -0.592862515404E+03   -0.41638E-04   -0.12561E-03  9568   0.725E-02    0.107E-02
RMM:   2    -0.592862520566E+03   -0.51621E-05   -0.44346E-05  9422   0.175E-02    0.159E-02
RMM:   3    -0.592862518513E+03    0.20530E-05   -0.90956E-06  6846   0.110E-02    0.102E-02
RMM:   4    -0.592862519582E+03   -0.10689E-05   -0.66608E-06  6635   0.754E-03    0.123E-02
RMM:   5    -0.592862518467E+03    0.11155E-05   -0.29645E-06  5817   0.711E-03    0.643E-03
RMM:   6    -0.592862518699E+03   -0.23183E-06   -0.14894E-06  5224   0.367E-03
  14 F= -.59286252E+03 E0= -.59286437E+03  d E =-.456903E-04
 trial-energy change:   -0.000046  1 .order   -0.000046   -0.000058   -0.000034
 step:   2.7008(harm=  2.7008)  dis= 0.00189  next Energy=  -592.862542 (dE=-0.689E-04)
 reached required accuracy - stopping structural energy minimisation
 augmentation electrons   31.521743853577853     
 soft         electrons   253.57074885914139     
 total        electrons   285.09249271271926     
 augmentation electrons   31.521743853577853     
 soft         electrons   253.57074885914139     
 total        electrons   285.09249271271926     
 augmentation electrons   31.521743853577853     
 soft         electrons   253.57074885914139     
 total        electrons   285.09249271271926     
 augmentation electrons   31.521743853577853     
 soft         electrons   253.57074885914139     
 total        electrons   285.09249271271926     
 augmentation electrons   31.521743853577853     
 soft         electrons   253.57074885914139     
 total        electrons   285.09249271271926     
 augmentation electrons   31.521743853577853     
 soft         electrons   253.57074885914139     
 total        electrons   285.09249271271926     
 augmentation electrons   31.521743853577853     
 soft         electrons   253.57074885914139     
 total        electrons   285.09249271271926     
 augmentation electrons   31.521743853577853     
 soft         electrons   253.57074885914139     
 total        electrons   285.09249271271926     
 augmentation electrons   31.521743853577853     
 soft         electrons   253.57074885914139     
 total        electrons   285.09249271271926     
 augmentation electrons   31.521743853577853     
 soft         electrons   253.57074885914139     
 total        electrons   285.09249271271926     
 augmentation electrons   31.521743853577853     
 soft         electrons   253.57074885914139     
 total        electrons   285.09249271271926     
 augmentation electrons   31.521743853577853     
 soft         electrons   253.57074885914139     
 total        electrons   285.09249271271926     
 augmentation electrons   31.521743853577853     
 soft         electrons   253.57074885914139     
 total        electrons   285.09249271271926     
 augmentation electrons   31.521743853577853     
 soft         electrons   253.57074885914139     
 total        electrons   285.09249271271926     
 augmentation electrons   31.521743853577853     
 soft         electrons   253.57074885914139     
 total        electrons   285.09249271271926     
 augmentation electrons   31.521743853577853     
 soft         electrons   253.57074885914139     
 total        electrons   285.09249271271926     
 augmentation electrons   31.521743853577853     
 soft         electrons   253.57074885914139     
 total        electrons   285.09249271271926     
 augmentation electrons   31.521743853577853     
 soft         electrons   253.57074885914139     
 total        electrons   285.09249271271926     
 augmentation electrons   31.521743853577853     
 soft         electrons   253.57074885914139     
 total        electrons   285.09249271271926     
 augmentation electrons   31.521743853577853     
 soft         electrons   253.57074885914139     
 total        electrons   285.09249271271926     
 augmentation electrons   31.521743853577853     
 soft         electrons   253.57074885914139     
 total        electrons   285.09249271271926     
 augmentation electrons   31.521743853577853     
 soft         electrons   253.57074885914139     
 total        electrons   285.09249271271926     
 augmentation electrons   31.521743853577853     
 soft         electrons   253.57074885914139     
 total        electrons   285.09249271271926     
 augmentation electrons   31.521743853577853     
 soft         electrons   253.57074885914139     
 total        electrons   285.09249271271926     
 augmentation electrons   31.521743853577853     
 soft         electrons   253.57074885914139     
 total        electrons   285.09249271271926     
 augmentation electrons   31.521743853577853     
 soft         electrons   253.57074885914139     
 total        electrons   285.09249271271926     
 augmentation electrons   31.521743853577853     
 soft         electrons   253.57074885914139     
 total        electrons   285.09249271271926     
 augmentation electrons   31.521743853577853     
 soft         electrons   253.57074885914139     
 total        electrons   285.09249271271926     
 augmentation electrons   31.521743853577853     
 soft         electrons   253.57074885914139     
 total        electrons   285.09249271271926     
 augmentation electrons   31.521743853577853     
 soft         electrons   253.57074885914139     
 total        electrons   285.09249271271926     
 augmentation electrons   31.521743853577853     
 soft         electrons   253.57074885914139     
 total        electrons   285.09249271271926     
 augmentation electrons   31.521743853577853     
 soft         electrons   253.57074885914139     
 total        electrons   285.09249271271926     
 augmentation electrons   31.521743853577853     
 soft         electrons   253.57074885914139     
 total        electrons   285.09249271271926     
 augmentation electrons   31.521743853577853     
 soft         electrons   253.57074885914139     
 total        electrons   285.09249271271926     
 augmentation electrons   31.521743853577853     
 soft         electrons   253.57074885914139     
 total        electrons   285.09249271271926     
 augmentation electrons   31.521743853577853     
 soft         electrons   253.57074885914139     
 total        electrons   285.09249271271926     
 augmentation electrons   31.521743853577853     
 soft         electrons   253.57074885914139     
 total        electrons   285.09249271271926     
 augmentation electrons   31.521743853577853     
 soft         electrons   253.57074885914139     
 total        electrons   285.09249271271926     
 augmentation electrons   31.521743853577853     
 soft         electrons   253.57074885914139     
 total        electrons   285.09249271271926     
 augmentation electrons   31.521743853577853     
 soft         electrons   253.57074885914139     
 total        electrons   285.09249271271926     
 augmentation electrons   31.521743853577853     
 soft         electrons   253.57074885914139     
 total        electrons   285.09249271271926     
 augmentation electrons   31.521743853577853     
 soft         electrons   253.57074885914139     
 total        electrons   285.09249271271926     
 augmentation electrons   31.521743853577853     
 soft         electrons   253.57074885914139     
 total        electrons   285.09249271271926     
 augmentation electrons   31.521743853577853     
 soft         electrons   253.57074885914139     
 total        electrons   285.09249271271926     
 augmentation electrons   31.521743853577853     
 soft         electrons   253.57074885914139     
 total        electrons   285.09249271271926     
 augmentation electrons   31.521743853577853     
 soft         electrons   253.57074885914139     
 total        electrons   285.09249271271926     
 augmentation electrons   31.521743853577853     
 soft         electrons   253.57074885914139     
 total        electrons   285.09249271271926     
 augmentation electrons   31.521743853577853     
 soft         electrons   253.57074885914139     
 total        electrons   285.09249271271926     
 augmentation electrons   31.521743853577853     
 soft         electrons   253.57074885914139     
 total        electrons   285.09249271271926     
 augmentation electrons   31.521743853577853     
 soft         electrons   253.57074885914139     
 total        electrons   285.09249271271926     
 augmentation electrons   31.521743853577853     
 soft         electrons   253.57074885914139     
 total        electrons   285.09249271271926     
 augmentation electrons   31.521743853577853     
 soft         electrons   253.57074885914139     
 total        electrons   285.09249271271926     
 augmentation electrons   31.521743853577853     
 soft         electrons   253.57074885914139     
 total        electrons   285.09249271271926     
 augmentation electrons   31.521743853577853     
 soft         electrons   253.57074885914139     
 total        electrons   285.09249271271926     
 augmentation electrons   31.521743853577853     
 soft         electrons   253.57074885914139     
 total        electrons   285.09249271271926     
 augmentation electrons   31.521743853577853     
 soft         electrons   253.57074885914139     
 total        electrons   285.09249271271926     
 augmentation electrons   31.521743853577853     
 soft         electrons   253.57074885914139     
 total        electrons   285.09249271271926     
 augmentation electrons   31.521743853577853     
 soft         electrons   253.57074885914139     
 total        electrons   285.09249271271926     
 augmentation electrons   31.521743853577853     
 soft         electrons   253.57074885914139     
 total        electrons   285.09249271271926     
 augmentation electrons   31.521743853577853     
 soft         electrons   253.57074885914139     
 total        electrons   285.09249271271926     
 augmentation electrons   31.521743853577853     
 soft         electrons   253.57074885914139     
 total        electrons   285.09249271271926     
 augmentation electrons   31.521743853577853     
 soft         electrons   253.57074885914139     
 total        electrons   285.09249271271926     
 augmentation electrons   31.521743853577853     
 soft         electrons   253.57074885914139     
 total        electrons   285.09249271271926     
 augmentation electrons   31.521743853577853     
 soft         electrons   253.57074885914139     
 total        electrons   285.09249271271926     
 augmentation electrons   31.521743853577853     
 soft         electrons   253.57074885914139     
 total        electrons   285.09249271271926     
 augmentation electrons   31.521743853577853     
 soft         electrons   253.57074885914139     
 total        electrons   285.09249271271926     
 augmentation electrons   31.521743853577853     
 soft         electrons   253.57074885914139     
 total        electrons   285.09249271271926     
 augmentation electrons   31.521743853577853     
 soft         electrons   253.57074885914139     
 total        electrons   285.09249271271926     
 augmentation electrons   31.521743853577853     
 soft         electrons   253.57074885914139     
 total        electrons   285.09249271271926     
 augmentation electrons   31.521743853577853     
 soft         electrons   253.57074885914139     
 total        electrons   285.09249271271926     
 augmentation electrons   31.521743853577853     
 soft         electrons   253.57074885914139     
 augmentation electrons   31.521743853577853     
 soft         electrons   253.57074885914139     
 total        electrons   285.09249271271926     
 total        electrons   285.09249271271926     
Note: The following floating-point exceptions are signalling: IEEE_OVERFLOW_FLAG
Note: The following floating-point exceptions are signalling: IEEE_OVERFLOW_FLAG
Note: The following floating-point exceptions are signalling: IEEE_OVERFLOW_FLAG
Note: The following floating-point exceptions are signalling: IEEE_OVERFLOW_FLAG
Note: The following floating-point exceptions are signalling: IEEE_OVERFLOW_FLAG
Note: The following floating-point exceptions are signalling: IEEE_OVERFLOW_FLAG
Note: The following floating-point exceptions are signalling: IEEE_OVERFLOW_FLAG
Note: The following floating-point exceptions are signalling: IEEE_OVERFLOW_FLAG
Note: The following floating-point exceptions are signalling: IEEE_OVERFLOW_FLAG
Note: The following floating-point exceptions are signalling: IEEE_OVERFLOW_FLAG
Note: The following floating-point exceptions are signalling: IEEE_OVERFLOW_FLAG
Note: The following floating-point exceptions are signalling: IEEE_OVERFLOW_FLAG
Note: The following floating-point exceptions are signalling: IEEE_OVERFLOW_FLAG
Note: The following floating-point exceptions are signalling: IEEE_OVERFLOW_FLAG
Note: The following floating-point exceptions are signalling: IEEE_OVERFLOW_FLAG
Note: The following floating-point exceptions are signalling: IEEE_OVERFLOW_FLAG
Note: The following floating-point exceptions are signalling: IEEE_OVERFLOW_FLAG
Note: The following floating-point exceptions are signalling: IEEE_OVERFLOW_FLAG
Note: The following floating-point exceptions are signalling: IEEE_OVERFLOW_FLAG
Note: The following floating-point exceptions are signalling: IEEE_OVERFLOW_FLAG
Note: The following floating-point exceptions are signalling: IEEE_OVERFLOW_FLAG
Note: The following floating-point exceptions are signalling: IEEE_OVERFLOW_FLAG
Note: The following floating-point exceptions are signalling: IEEE_OVERFLOW_FLAG
Note: The following floating-point exceptions are signalling: IEEE_OVERFLOW_FLAG
Note: The following floating-point exceptions are signalling: IEEE_OVERFLOW_FLAG
Note: The following floating-point exceptions are signalling: IEEE_OVERFLOW_FLAG
Note: The following floating-point exceptions are signalling: IEEE_OVERFLOW_FLAG
Note: The following floating-point exceptions are signalling: IEEE_OVERFLOW_FLAG
Note: The following floating-point exceptions are signalling: IEEE_OVERFLOW_FLAG
Note: The following floating-point exceptions are signalling: IEEE_OVERFLOW_FLAG
Note: The following floating-point exceptions are signalling: IEEE_OVERFLOW_FLAG
Note: The following floating-point exceptions are signalling: IEEE_OVERFLOW_FLAG
Note: The following floating-point exceptions are signalling: IEEE_OVERFLOW_FLAG
Note: The following floating-point exceptions are signalling: IEEE_OVERFLOW_FLAG
Note: The following floating-point exceptions are signalling: IEEE_OVERFLOW_FLAG
Note: The following floating-point exceptions are signalling: IEEE_OVERFLOW_FLAG
Note: The following floating-point exceptions are signalling: IEEE_OVERFLOW_FLAG
Note: The following floating-point exceptions are signalling: IEEE_OVERFLOW_FLAG
Note: The following floating-point exceptions are signalling: IEEE_OVERFLOW_FLAG
Note: The following floating-point exceptions are signalling: IEEE_OVERFLOW_FLAG
Note: The following floating-point exceptions are signalling: IEEE_OVERFLOW_FLAG
Note: The following floating-point exceptions are signalling: IEEE_OVERFLOW_FLAG
Note: The following floating-point exceptions are signalling: IEEE_OVERFLOW_FLAG
Note: The following floating-point exceptions are signalling: IEEE_OVERFLOW_FLAG
Note: The following floating-point exceptions are signalling: IEEE_OVERFLOW_FLAG
Note: The following floating-point exceptions are signalling: IEEE_OVERFLOW_FLAG
Note: The following floating-point exceptions are signalling: IEEE_OVERFLOW_FLAG
Note: The following floating-point exceptions are signalling: IEEE_OVERFLOW_FLAG
Note: The following floating-point exceptions are signalling: IEEE_OVERFLOW_FLAG
Note: The following floating-point exceptions are signalling: IEEE_OVERFLOW_FLAG
Note: The following floating-point exceptions are signalling: IEEE_OVERFLOW_FLAG
Note: The following floating-point exceptions are signalling: IEEE_OVERFLOW_FLAG
Note: The following floating-point exceptions are signalling: IEEE_OVERFLOW_FLAG
Note: The following floating-point exceptions are signalling: IEEE_OVERFLOW_FLAG
Note: The following floating-point exceptions are signalling: IEEE_OVERFLOW_FLAG
Note: The following floating-point exceptions are signalling: IEEE_OVERFLOW_FLAG
Note: The following floating-point exceptions are signalling: IEEE_OVERFLOW_FLAG
Note: The following floating-point exceptions are signalling: IEEE_OVERFLOW_FLAG
Note: The following floating-point exceptions are signalling: IEEE_OVERFLOW_FLAG
Note: The following floating-point exceptions are signalling: IEEE_OVERFLOW_FLAG
Note: The following floating-point exceptions are signalling: IEEE_OVERFLOW_FLAG
Note: The following floating-point exceptions are signalling: IEEE_OVERFLOW_FLAG
Note: The following floating-point exceptions are signalling: IEEE_OVERFLOW_FLAG
Note: The following floating-point exceptions are signalling: IEEE_OVERFLOW_FLAG
Note: The following floating-point exceptions are signalling: IEEE_OVERFLOW_FLAG
Note: The following floating-point exceptions are signalling: IEEE_OVERFLOW_FLAG
Note: The following floating-point exceptions are signalling: IEEE_OVERFLOW_FLAG
Note: The following floating-point exceptions are signalling: IEEE_OVERFLOW_FLAG
Note: The following floating-point exceptions are signalling: IEEE_OVERFLOW_FLAG
Note: The following floating-point exceptions are signalling: IEEE_OVERFLOW_FLAG
Note: The following floating-point exceptions are signalling: IEEE_OVERFLOW_FLAG
Note: The following floating-point exceptions are signalling: IEEE_OVERFLOW_FLAG
