   24   24    1    1
  0.7843603E+01  0.5992492E-09  0.5992492E-09  0.6053148E-09  0.5000000E-15
   1.0000000000000000E-004
  CAR 
 Name                                    
     88     96     60

  0.3742002E-15  0.3742002E-15  0.3742002E-15  0.7513148E-03
    1       -5.699246   1.000000
    2       -3.438939   1.000000
    3       -1.581170   1.000000
    4       -1.581169   1.000000
    5       -1.581145   1.000000
    6       -1.497636   1.000000
    7       -1.497604   1.000000
    8       -1.497601   1.000000
    9       -1.353122   1.000000
   10       -1.353121   1.000000
   11       -1.353098   1.000000
   12        0.203298   1.000000
   13        0.628819   1.000000
   14        0.628856   1.000000
   15        0.628859   1.000000
   16        3.235521   1.000000
   17        3.235522   1.000000
   18        3.235526   1.000000
   19        4.092697   1.000000
   20        4.092713   1.000000
   21        4.092715   1.000000
   22        4.705370   1.000000
   23        4.705371   1.000000
   24        4.705382   1.000000
   25        4.801701   1.000000
   26        4.801702   1.000000
   27        4.801714   1.000000
   28        5.137678   1.000000
   29        5.137697   1.000000
   30        5.187891   1.000000
   31        5.187893   1.000000
   32        5.187904   1.000000
   33        5.583319   1.000000
   34        5.583320   1.000000
   35        5.583321   1.000000
   36        5.854475   1.000000
   37        6.541207   1.000000
   38        7.277279   1.000000
   39        7.277294   1.000000
   40        7.788183   1.000000
   41        7.788213   1.000000
   42        8.100859   1.000000
   43        8.100865   1.000000
   44        8.973796   0.972085
   45        8.973802   0.972072
   46        8.973803   0.820457
   47        9.412320   0.000000
   48        9.412329   0.000000
   49        9.777960   0.000000
   50       10.037007   0.000000
   51       10.037008   0.000000
   52       10.080418   0.000000
   53       10.207800   0.000000
   54       10.207831   0.000000
   55       10.218037   0.000000
   56       10.245502   0.000000
   57       10.245523   0.000000
   58       10.545733   0.000000
   59       10.598704   0.000000
   60       10.598990   0.000000

  0.9090909E-01  0.3782312E-15  0.3742002E-15  0.4507889E-02
    1       -5.659380   1.000000
    2       -3.418852   1.000000
    3       -2.100518   1.000000
    4       -1.747024   1.000000
    5       -1.747015   1.000000
    6       -1.677496   1.000000
    7       -1.585195   1.000000
    8       -1.585173   1.000000
    9       -1.046799   1.000000
   10       -1.046798   1.000000
   11       -0.716312   1.000000
   12        0.254276   1.000000
   13        0.654008   1.000000
   14        0.654043   1.000000
   15        0.777355   1.000000
   16        3.201970   1.000000
   17        3.201974   1.000000
   18        3.273882   1.000000
   19        3.864446   1.000000
   20        4.050666   1.000000
   21        4.050680   1.000000
   22        4.416098   1.000000
   23        4.416108   1.000000
   24        4.754901   1.000000
   25        4.754909   1.000000
   26        4.813682   1.000000
   27        4.882288   1.000000
   28        5.032596   1.000000
   29        5.137222   1.000000
   30        5.201289   1.000000
   31        5.215643   1.000000
   32        5.215653   1.000000
   33        5.607776   1.000000
   34        5.866892   1.000000
   35        5.949360   1.000000
   36        5.949361   1.000000
   37        6.480742   1.000000
   38        6.779427   1.000000
   39        6.806955   1.000000
   40        8.017831   1.000000
   41        8.135028   1.000000
   42        8.233549   1.000000
   43        8.281803   1.000000
   44        8.857261   1.012567
   45        8.857268   1.028893
   46        8.982279   0.780246
   47        9.403007   0.000000
   48        9.514582   0.000000
   49        9.788643   0.000000
   50       10.004354   0.000000
   51       10.007031   0.000000
   52       10.038303   0.000000
   53       10.190768   0.000000
   54       10.202404   0.000000
   55       10.204262   0.000000
   56       10.240291   0.000000
   57       10.268684   0.000000
   58       10.317299   0.000000
   59       10.557167   0.000000
   60       10.561395   0.000000

  0.1818182E+00  0.3988619E-15  0.3742002E-15  0.4507889E-02
    1       -5.540323   1.000000
    2       -3.358538   1.000000
    3       -2.729440   1.000000
    4       -1.997306   1.000000
    5       -1.997300   1.000000
    6       -1.908868   1.000000
    7       -1.595797   1.000000
    8       -1.595778   1.000000
    9       -0.627934   1.000000
   10       -0.627931   1.000000
   11        0.013434   1.000000
   12        0.405764   1.000000
   13        0.724242   1.000000
   14        0.724273   1.000000
   15        1.164229   1.000000
   16        3.109250   1.000000
   17        3.109255   1.000000
   18        3.388725   1.000000
   19        3.425176   1.000000
   20        3.791274   1.000000
   21        3.791282   1.000000
   22        3.959938   1.000000
   23        3.959947   1.000000
   24        4.728007   1.000000
   25        4.847702   1.000000
   26        4.865722   1.000000
   27        4.865727   1.000000
   28        5.134227   1.000000
   29        5.184897   1.000000
   30        5.242258   1.000000
   31        5.294990   1.000000
   32        5.295000   1.000000
   33        5.676645   1.000000
   34        5.903840   1.000000
   35        6.054688   1.000000
   36        6.186129   1.000000
   37        6.324453   1.000000
   38        6.517355   1.000000
   39        6.517356   1.000000
   40        7.786849   1.000000
   41        8.236221   1.000000
   42        8.568073   1.000000
   43        8.568080   1.000000
   44        8.807712   1.058725
   45        8.968688   0.533509
   46        9.007103   0.263018
   47        9.375908   0.000000
   48        9.795624   0.000000
   49        9.814520   0.000000
   50        9.889239   0.000000
   51        9.889842   0.000000
   52       10.023750   0.000000
   53       10.026953   0.000000
   54       10.185776   0.000000
   55       10.194558   0.000000
   56       10.200826   0.000000
   57       10.334489   0.000000
   58       10.350348   0.000000
   59       10.452667   0.000000
   60       10.480040   0.000000

  0.2727273E+00  0.4195187E-15  0.3742002E-15  0.4507889E-02
    1       -5.343670   1.000000
    2       -3.312909   1.000000
    3       -3.257908   1.000000
    4       -2.187942   1.000000
    5       -2.187938   1.000000
    6       -2.187904   1.000000
    7       -1.609231   1.000000
    8       -1.609216   1.000000
    9       -0.165402   1.000000
   10       -0.165397   1.000000
   11        0.653315   1.000000
   12        0.761899   1.000000
   13        0.823482   1.000000
   14        0.823507   1.000000
   15        1.699167   1.000000
   16        2.918086   1.000000
   17        2.980625   1.000000
   18        2.980630   1.000000
   19        3.147702   1.000000
   20        3.147711   1.000000
   21        3.579329   1.000000
   22        3.867477   1.000000
   23        3.867484   1.000000
   24        4.257079   1.000000
   25        4.898548   1.000000
   26        4.984528   1.000000
   27        4.984531   1.000000
   28        5.124618   1.000000
   29        5.291382   1.000000
   30        5.312581   1.000000
   31        5.412441   1.000000
   32        5.412450   1.000000
   33        5.512079   1.000000
   34        5.598878   1.000000
   35        5.776086   1.000000
   36        5.955272   1.000000
   37        6.121401   1.000000
   38        7.072413   1.000000
   39        7.072414   1.000000
   40        7.451045   1.000000
   41        8.219145   1.000000
   42        8.219152   1.000000
   43        8.400409   1.000000
   44        9.046507   0.267959
   45        9.333525  -0.005437
   46        9.341001   0.000000
   47        9.655534   0.000000
   48        9.669166   0.000000
   49        9.669463   0.000000
   50        9.779909   0.000000
   51        9.859044   0.000000
   52       10.045570   0.000000
   53       10.155882   0.000000
   54       10.181527   0.000000
   55       10.185125   0.000000
   56       10.221686   0.000000
   57       10.343165   0.000000
   58       10.415955   0.000000
   59       10.418967   0.000000
   60       10.453385   0.000000

  0.3636364E+00  0.4089374E-15  0.3742002E-15  0.4507889E-02
    1       -5.071992   1.000000
    2       -3.844253   1.000000
    3       -3.117006   1.000000
    4       -2.464888   1.000000
    5       -2.315875   1.000000
    6       -2.315873   1.000000
    7       -1.621180   1.000000
    8       -1.621171   1.000000
    9        0.313280   1.000000
   10        0.313286   1.000000
   11        0.924287   1.000000
   12        0.924304   1.000000
   13        0.989206   1.000000
   14        1.517367   1.000000
   15        2.327355   1.000000
   16        2.390511   1.000000
   17        2.540691   1.000000
   18        2.540699   1.000000
   19        2.852910   1.000000
   20        2.852914   1.000000
   21        3.664031   1.000000
   22        3.797255   1.000000
   23        3.797259   1.000000
   24        3.844485   1.000000
   25        4.518177   1.000000
   26        4.958155   1.000000
   27        5.064035   1.000000
   28        5.078983   1.000000
   29        5.078984   1.000000
   30        5.103440   1.000000
   31        5.414453   1.000000
   32        5.539522   1.000000
   33        5.539529   1.000000
   34        5.863620   1.000000
   35        5.882936   1.000000
   36        5.910973   1.000000
   37        5.998833   1.000000
   38        7.057914   1.000000
   39        7.568186   1.000000
   40        7.568188   1.000000
   41        7.908601   1.000000
   42        7.908606   1.000000
   43        8.620545   1.000000
   44        9.097635  -0.093530
   45        9.279686   0.000000
   46        9.374725   0.000000
   47        9.374787   0.000000
   48        9.488398   0.000000
   49        9.908481   0.000000
   50        9.912196   0.000000
   51       10.063053   0.000000
   52       10.094707   0.000000
   53       10.102850   0.000000
   54       10.169226   0.000000
   55       10.189613   0.000000
   56       10.367127   0.000000
   57       10.372421   0.000000
   58       10.384369   0.000000
   59       10.503469   0.000000
   60       10.530395   0.000000

  0.4545455E+00  0.3642606E-15  0.3742002E-15  0.4507889E-02
    1       -4.728689   1.000000
    2       -4.317894   1.000000
    3       -2.936343   1.000000
    4       -2.717584   1.000000
    5       -2.380053   1.000000
    6       -2.380052   1.000000
    7       -1.628103   1.000000
    8       -1.628099   1.000000
    9        0.711096   1.000000
   10        0.711099   1.000000
   11        0.990085   1.000000
   12        0.990091   1.000000
   13        1.402104   1.000000
   14        1.876182   1.000000
   15        2.076785   1.000000
   16        2.076789   1.000000
   17        2.265980   1.000000
   18        2.771144   1.000000
   19        2.771146   1.000000
   20        2.989607   1.000000
   21        3.019172   1.000000
   22        3.755038   1.000000
   23        3.760017   1.000000
   24        3.760019   1.000000
   25        4.182291   1.000000
   26        4.590060   1.000000
   27        5.017279   1.000000
   28        5.067463   1.000000
   29        5.130623   1.000000
   30        5.130623   1.000000
   31        5.549273   1.000000
   32        5.627869   1.000000
   33        5.627872   1.000000
   34        5.716373   1.000000
   35        5.968341   1.000000
   36        6.008616   1.000000
   37        6.243272   1.000000
   38        6.646411   1.000000
   39        7.721077   1.000000
   40        7.721079   1.000000
   41        7.922009   1.000000
   42        7.922010   1.000000
   43        8.886043   1.018084
   44        9.113273  -0.000398
   45        9.113275   0.000000
   46        9.156663   0.000000
   47        9.182025   0.000000
   48        9.219020   0.000000
   49        9.976381   0.000000
   50       10.031969   0.000000
   51       10.044894   0.000000
   52       10.127483   0.000000
   53       10.155926   0.000000
   54       10.161736   0.000000
   55       10.172709   0.000000
   56       10.319805   0.000000
   57       10.348101   0.000000
   58       10.359079   0.000000
   59       10.539250   0.000000
   60       10.566779   0.000000

  0.9090909E-01  0.9090909E-01  0.3742002E-15  0.4507889E-02
    1       -5.579917   1.000000
    2       -3.378650   1.000000
    3       -2.393971   1.000000
    4       -2.393970   1.000000
    5       -1.763013   1.000000
    6       -1.763011   1.000000
    7       -1.494697   1.000000
    8       -1.372903   1.000000
    9       -1.284385   1.000000
   10       -0.333148   1.000000
   11       -0.333147   1.000000
   12        0.355519   1.000000
   13        0.573082   1.000000
   14        0.934920   1.000000
   15        0.934923   1.000000
   16        3.072627   1.000000
   17        3.277621   1.000000
   18        3.277622   1.000000
   19        3.682720   1.000000
   20        3.682721   1.000000
   21        3.764822   1.000000
   22        4.194714   1.000000
   23        4.454599   1.000000
   24        4.454601   1.000000
   25        4.684938   1.000000
   26        4.835154   1.000000
   27        5.023319   1.000000
   28        5.023320   1.000000
   29        5.125120   1.000000
   30        5.240425   1.000000
   31        5.240427   1.000000
   32        5.286373   1.000000
   33        5.894588   1.000000
   34        5.981072   1.000000
   35        5.981072   1.000000
   36        6.267991   1.000000
   37        6.336251   1.000000
   38        6.373073   1.000000
   39        6.509158   1.000000
   40        7.860899   1.000000
   41        8.202881   1.000000
   42        8.547412   1.000000
   43        8.658053   1.000000
   44        8.782654   1.000000
   45        8.880700   0.916348
   46        8.880701   0.890553
   47        9.382548   0.000000
   48        9.706777   0.000000
   49        9.806977   0.000000
   50        9.927284   0.000000
   51        9.979532   0.000000
   52        9.983742   0.000000
   53       10.150318   0.000000
   54       10.160839   0.000000
   55       10.195834   0.000000
   56       10.198170   0.000000
   57       10.222166   0.000000
   58       10.398019   0.000000
   59       10.479126   0.000000
   60       10.494131   0.000000

  0.1818182E+00  0.9090909E-01  0.3742002E-15  0.9015778E-02
    1       -5.422056   1.000000
    2       -3.298150   1.000000
    3       -3.000644   1.000000
    4       -2.624273   1.000000
    5       -2.028700   1.000000
    6       -1.835129   1.000000
    7       -1.544376   1.000000
    8       -1.415347   1.000000
    9       -0.866549   1.000000
   10        0.093794   1.000000
   11        0.404938   1.000000
   12        0.535920   1.000000
   13        0.555093   1.000000
   14        1.112622   1.000000
   15        1.404679   1.000000
   16        2.910209   1.000000
   17        3.081865   1.000000
   18        3.203907   1.000000
   19        3.218809   1.000000
   20        3.428439   1.000000
   21        3.527293   1.000000
   22        3.869238   1.000000
   23        4.231949   1.000000
   24        4.462008   1.000000
   25        4.527188   1.000000
   26        4.728496   1.000000
   27        5.089636   1.000000
   28        5.154462   1.000000
   29        5.291566   1.000000
   30        5.322243   1.000000
   31        5.335433   1.000000
   32        5.408633   1.000000
   33        5.585884   1.000000
   34        5.777375   1.000000
   35        5.953714   1.000000
   36        6.035748   1.000000
   37        6.196699   1.000000
   38        6.535998   1.000000
   39        7.074375   1.000000
   40        7.578416   1.000000
   41        8.153593   1.000000
   42        8.336109   1.000000
   43        8.627369   1.000000
   44        8.925173   1.028065
   45        9.154163  -0.024657
   46        9.341454  -0.048055
   47        9.419534   0.000000
   48        9.783075   0.000000
   49        9.808040   0.000000
   50        9.842753   0.000000
   51        9.938429   0.000000
   52        9.940045   0.000000
   53       10.054542   0.000000
   54       10.148576   0.000000
   55       10.182686   0.000000
   56       10.197781   0.000000
   57       10.292404   0.000000
   58       10.377088   0.000000
   59       10.433421   0.000000
   60       10.551550   0.000000

  0.2727273E+00  0.9090909E-01  0.3742002E-15  0.9015778E-02
    1       -5.187869   1.000000
    2       -3.558256   1.000000
    3       -3.177288   1.000000
    4       -2.789734   1.000000
    5       -2.311874   1.000000
    6       -1.889315   1.000000
    7       -1.698534   1.000000
    8       -1.354973   1.000000
    9       -0.368053   1.000000
   10        0.534314   1.000000
   11        0.546750   1.000000
   12        0.846978   1.000000
   13        1.154470   1.000000
   14        1.287755   1.000000
   15        1.988718   1.000000
   16        2.413476   1.000000
   17        2.684146   1.000000
   18        2.748992   1.000000
   19        3.120966   1.000000
   20        3.279373   1.000000
   21        3.409855   1.000000
   22        3.653297   1.000000
   23        3.944236   1.000000
   24        4.195698   1.000000
   25        4.625363   1.000000
   26        4.838911   1.000000
   27        4.847126   1.000000
   28        5.031466   1.000000
   29        5.239522   1.000000
   30        5.259598   1.000000
   31        5.371630   1.000000
   32        5.425585   1.000000
   33        5.565469   1.000000
   34        5.668542   1.000000
   35        5.995618   1.000000
   36        6.031280   1.000000
   37        6.096048   1.000000
   38        7.050991   1.000000
   39        7.216243   1.000000
   40        7.610864   1.000000
   41        7.764970   1.000000
   42        8.340610   1.000000
   43        8.529239   1.000000
   44        8.986399   0.728367
   45        9.283559   0.000000
   46        9.535076   0.000000
   47        9.549889   0.000000
   48        9.633159   0.000000
   49        9.666090   0.000000
   50        9.890820   0.000000
   51        9.896787   0.000000
   52       10.129774   0.000000
   53       10.136588   0.000000
   54       10.159226   0.000000
   55       10.182605   0.000000
   56       10.241373   0.000000
   57       10.256447   0.000000
   58       10.349084   0.000000
   59       10.435871   0.000000
   60       10.707311   0.000000

  0.3636364E+00  0.9090909E-01  0.3742002E-15  0.9015778E-02
    1       -4.880343   1.000000
    2       -4.060897   1.000000
    3       -3.016266   1.000000
    4       -2.889361   1.000000
    5       -2.579139   1.000000
    6       -1.922806   1.000000
    7       -1.791823   1.000000
    8       -1.317974   1.000000
    9        0.126596   1.000000
   10        0.549282   1.000000
   11        0.974369   1.000000
   12        1.221765   1.000000
   13        1.424692   1.000000
   14        1.813629   1.000000
   15        1.902385   1.000000
   16        2.161440   1.000000
   17        2.628395   1.000000
   18        2.646899   1.000000
   19        2.764273   1.000000
   20        3.026045   1.000000
   21        3.322276   1.000000
   22        3.337099   1.000000
   23        3.950387   1.000000
   24        4.095283   1.000000
   25        4.156589   1.000000
   26        4.737319   1.000000
   27        4.748849   1.000000
   28        4.930619   1.000000
   29        4.950505   1.000000
   30        5.327302   1.000000
   31        5.482994   1.000000
   32        5.516141   1.000000
   33        5.715865   1.000000
   34        5.800002   1.000000
   35        6.028230   1.000000
   36        6.102609   1.000000
   37        6.138656   1.000000
   38        6.817434   1.000000
   39        7.453904   1.000000
   40        7.462788   1.000000
   41        8.085611   1.000000
   42        8.119421   1.000000
   43        8.773640   1.027199
   44        9.058892   0.169201
   45        9.213491  -0.020909
   46        9.244626   0.000000
   47        9.266927   0.000000
   48        9.361824   0.000000
   49        9.894187   0.000000
   50        9.950403   0.000000
   51       10.075450   0.000000
   52       10.106554   0.000000
   53       10.131584   0.000000
   54       10.162164   0.000000
   55       10.186148   0.000000
   56       10.195975   0.000000
   57       10.234189   0.000000
   58       10.258855   0.000000
   59       10.435524   0.000000
   60       10.788306   0.000000

  0.4545455E+00  0.9090909E-01  0.3742002E-15  0.4507889E-02
    1       -4.503225   1.000000
    2       -4.503224   1.000000
    3       -2.922621   1.000000
    4       -2.816017   1.000000
    5       -2.816015   1.000000
    6       -1.934127   1.000000
    7       -1.823006   1.000000
    8       -1.305632   1.000000
    9        0.407561   1.000000
   10        0.557920   1.000000
   11        1.192497   1.000000
   12        1.478356   1.000000
   13        1.497057   1.000000
   14        1.666013   1.000000
   15        1.666014   1.000000
   16        2.516249   1.000000
   17        2.583295   1.000000
   18        2.632204   1.000000
   19        2.632208   1.000000
   20        2.985494   1.000000
   21        3.312498   1.000000
   22        3.355385   1.000000
   23        3.355391   1.000000
   24        4.141562   1.000000
   25        4.316929   1.000000
   26        4.316933   1.000000
   27        4.849730   1.000000
   28        4.849737   1.000000
   29        4.964701   1.000000
   30        5.350659   1.000000
   31        5.553144   1.000000
   32        5.626531   1.000000
   33        5.626533   1.000000
   34        5.783540   1.000000
   35        6.142841   1.000000
   36        6.142842   1.000000
   37        6.414492   1.000000
   38        6.414494   1.000000
   39        7.342625   1.000000
   40        7.622615   1.000000
   41        8.035877   1.000000
   42        8.342057   1.000000
   43        9.041267   0.788931
   44        9.056872   0.004560
   45        9.056873   0.007586
   46        9.136633   0.000000
   47        9.136635   0.000000
   48        9.141006   0.000000
   49        9.975447   0.000000
   50        9.978790   0.000000
   51       10.013182   0.000000
   52       10.013927   0.000000
   53       10.125836   0.000000
   54       10.159362   0.000000
   55       10.175921   0.000000
   56       10.246733   0.000000
   57       10.260607   0.000000
   58       10.302733   0.000000
   59       10.441816   0.000000
   60       10.563324   0.000000

  0.1818182E+00  0.1818182E+00  0.3742002E-15  0.4507889E-02
    1       -5.226648   1.000000
    2       -3.205549   1.000000
    3       -3.205548   1.000000
    4       -3.197352   1.000000
    5       -2.119923   1.000000
    6       -2.119922   1.000000
    7       -1.235664   1.000000
    8       -1.077074   1.000000
    9       -1.012626   1.000000
   10        0.373004   1.000000
   11        0.799129   1.000000
   12        0.828357   1.000000
   13        0.828359   1.000000
   14        1.641624   1.000000
   15        1.641626   1.000000
   16        2.372162   1.000000
   17        2.714335   1.000000
   18        3.030028   1.000000
   19        3.030029   1.000000
   20        3.400331   1.000000
   21        3.400332   1.000000
   22        3.994394   1.000000
   23        3.994396   1.000000
   24        4.068285   1.000000
   25        4.446772   1.000000
   26        4.647058   1.000000
   27        4.958582   1.000000
   28        4.988513   1.000000
   29        5.278769   1.000000
   30        5.371697   1.000000
   31        5.371698   1.000000
   32        5.461216   1.000000
   33        5.461216   1.000000
   34        5.576701   1.000000
   35        6.027686   1.000000
   36        6.060728   1.000000
   37        6.547926   1.000000
   38        6.547927   1.000000
   39        7.271406   1.000000
   40        7.619821   1.000000
   41        7.713633   1.000000
   42        8.499242   1.000000
   43        8.717885   1.000000
   44        8.717884   1.000000
   45        9.274646   0.000000
   46        9.555739   0.000000
   47        9.651753   0.000000
   48        9.713717   0.000000
   49        9.714578   0.000000
   50        9.883117   0.000000
   51        9.893207   0.000000
   52        9.894297   0.000000
   53       10.138489   0.000000
   54       10.162621   0.000000
   55       10.174669   0.000000
   56       10.183495   0.000000
   57       10.243909   0.000000
   58       10.404902   0.000000
   59       10.430186   0.000000
   60       10.753097   0.000000

  0.2727273E+00  0.1818182E+00  0.3742002E-15  0.9015778E-02
    1       -4.956573   1.000000
    2       -3.734761   1.000000
    3       -3.342819   1.000000
    4       -3.056126   1.000000
    5       -2.400334   1.000000
    6       -2.181230   1.000000
    7       -1.172429   1.000000
    8       -1.080217   1.000000
    9       -0.506695   1.000000
   10        0.243354   1.000000
   11        1.130346   1.000000
   12        1.252564   1.000000
   13        1.561783   1.000000
   14        1.695797   1.000000
   15        1.847490   1.000000
   16        2.254890   1.000000
   17        2.511422   1.000000
   18        2.557212   1.000000
   19        2.910698   1.000000
   20        3.330161   1.000000
   21        3.476859   1.000000
   22        3.557196   1.000000
   23        3.652134   1.000000
   24        4.159420   1.000000
   25        4.316933   1.000000
   26        4.474942   1.000000
   27        4.728226   1.000000
   28        4.772654   1.000000
   29        4.793764   1.000000
   30        5.447633   1.000000
   31        5.456371   1.000000
   32        5.551190   1.000000
   33        5.779748   1.000000
   34        5.790593   1.000000
   35        5.851273   1.000000
   36        6.202808   1.000000
   37        6.529517   1.000000
   38        6.907966   1.000000
   39        6.981955   1.000000
   40        7.310706   1.000000
   41        8.137860   1.000000
   42        8.501738   1.000000
   43        8.718776   1.000000
   44        8.829396   1.051906
   45        9.182172  -0.056579
   46        9.450258   0.000000
   47        9.463049   0.000000
   48        9.593874   0.000000
   49        9.679439   0.000000
   50        9.871065   0.000000
   51        9.935606   0.000000
   52        9.959142   0.000000
   53       10.004929   0.000000
   54       10.113267   0.000000
   55       10.148734   0.000000
   56       10.156559   0.000000
   57       10.244709   0.000000
   58       10.331743   0.000000
   59       10.417384   0.000000
   60       10.513347   0.000000

  0.3636364E+00  0.1818182E+00  0.3742002E-15  0.9015778E-02
    1       -4.615129   1.000000
    2       -4.206324   1.000000
    3       -3.411644   1.000000
    4       -2.874857   1.000000
    5       -2.654993   1.000000
    6       -2.212011   1.000000
    7       -1.232785   1.000000
    8       -0.984850   1.000000
    9       -0.029258   1.000000
   10        0.166329   1.000000
   11        1.143979   1.000000
   12        1.537475   1.000000
   13        1.580134   1.000000
   14        1.975564   1.000000
   15        2.004850   1.000000
   16        2.276543   1.000000
   17        2.469503   1.000000
   18        2.850083   1.000000
   19        2.921030   1.000000
   20        2.950567   1.000000
   21        3.099324   1.000000
   22        3.268146   1.000000
   23        3.616680   1.000000
   24        3.971460   1.000000
   25        4.353766   1.000000
   26        4.354171   1.000000
   27        4.445677   1.000000
   28        4.563772   1.000000
   29        4.819613   1.000000
   30        5.512127   1.000000
   31        5.553395   1.000000
   32        5.597948   1.000000
   33        5.689335   1.000000
   34        5.952954   1.000000
   35        6.146716   1.000000
   36        6.346847   1.000000
   37        6.462432   1.000000
   38        6.524357   1.000000
   39        7.032628   1.000000
   40        7.244865   1.000000
   41        8.367969   1.000000
   42        8.590248   1.000000
   43        8.950788   0.996796
   44        8.984589   0.823951
   45        9.071504   0.001647
   46        9.153727   0.000000
   47        9.282622   0.000000
   48        9.288699   0.000000
   49        9.746381   0.000000
   50        9.862900   0.000000
   51        9.909990   0.000000
   52        9.933029   0.000000
   53        9.995804   0.000000
   54       10.056891   0.000000
   55       10.144517   0.000000
   56       10.145403   0.000000
   57       10.308265   0.000000
   58       10.347366   0.000000
   59       10.405957   0.000000
   60       10.479547   0.000000

  0.2727273E+00  0.2727273E+00  0.3742002E-15  0.4507889E-02
    1       -4.652551   1.000000
    2       -3.841152   1.000000
    3       -3.841151   1.000000
    4       -2.894434   1.000000
    5       -2.453335   1.000000
    6       -2.453335   1.000000
    7       -0.805262   1.000000
    8       -0.728157   1.000000
    9       -0.495688   1.000000
   10       -0.037778   1.000000
   11        1.038575   1.000000
   12        1.494239   1.000000
   13        1.929355   1.000000
   14        1.929357   1.000000
   15        2.405709   1.000000
   16        2.405710   1.000000
   17        2.431515   1.000000
   18        2.459894   1.000000
   19        2.459897   1.000000
   20        3.095047   1.000000
   21        3.606504   1.000000
   22        3.606506   1.000000
   23        3.724730   1.000000
   24        3.739498   1.000000
   25        3.739501   1.000000
   26        4.348198   1.000000
   27        4.423181   1.000000
   28        4.645699   1.000000
   29        4.678727   1.000000
   30        5.512503   1.000000
   31        5.512504   1.000000
   32        5.713709   1.000000
   33        5.867790   1.000000
   34        5.867790   1.000000
   35        6.042055   1.000000