   51   51   85    1
  0.2316787E+02  0.8645320E-09  0.6085000E-09  0.2593596E-08  0.5000000E-15
   1.0000000000000000E-004
  CAR 
 Name                                    
    191    149    128

  0.3742002E-15  0.3742002E-15  0.3742002E-15  0.3367003E-02
    1      -13.960945   1.000000
    2      -12.701035   1.000000
    3      -12.459290   1.000000
    4      -11.952229   1.000000
    5      -11.684089   1.000000
    6      -11.161781   1.000000
    7      -11.131333   1.000000
    8      -11.115019   1.000000
    9      -11.014778   1.000000
   10      -10.709903   1.000000
   11      -10.664234   1.000000
   12      -10.360820   1.000000
   13      -10.266162   1.000000
   14      -10.236046   1.000000
   15       -9.783043   1.000000
   16       -9.771521   1.000000
   17       -9.196682   1.000000
   18       -9.157225   1.000000
   19       -8.964607   1.000000
   20       -8.617432   1.000000
   21       -8.498028   1.000000
   22       -8.456582   1.000000
   23       -8.421816   1.000000
   24       -8.158566   1.000000
   25       -8.009879   1.000000
   26       -7.994314   1.000000
   27       -7.606409   1.000000
   28       -7.296029   1.000000
   29       -7.041505   1.000000
   30       -6.591937   1.000000
   31       -6.503257   1.000000
   32       -6.483823   1.000000
   33       -6.151895   1.000000
   34       -6.054447   1.000000
   35       -6.004679   1.000000
   36       -5.806977   1.000000
   37       -5.759580   1.000000
   38       -5.518159   1.000000
   39       -5.439387   1.000000
   40       -5.393804   1.000000
   41       -5.207839   1.000000
   42       -5.176375   1.000000
   43       -5.112394   1.000000
   44       -5.058579   1.000000
   45       -4.933402   1.000000
   46       -4.827212   1.000000
   47       -4.726761   1.000000
   48       -4.676958   1.000000
   49       -4.626271   1.000000
   50       -4.604973   1.000000
   51       -4.581581   1.000000
   52       -4.555192   1.000000
   53       -4.460893   1.000000
   54       -4.381373   1.000000
   55       -4.307712   1.000000
   56       -4.179166   1.000000
   57       -4.146507   1.000000
   58       -4.084813   1.000000
   59       -4.028210   1.000000
   60       -3.978690   1.000000
   61       -3.906077   1.000000
   62       -3.779224   1.000000
   63       -3.556990   1.000000
   64       -3.492750   1.000000
   65       -3.473765   1.000000
   66       -3.430789   1.000000
   67       -3.394605   1.000000
   68       -3.362535   1.000000
   69       -3.258469   1.000000
   70       -3.230070   1.000000
   71       -3.168764   1.000000
   72       -3.151552   1.000000
   73       -2.996218   1.000000
   74       -2.750121   1.000000
   75       -2.540274   1.000000
   76       -2.406813   1.000000
   77       -2.285861   1.000000
   78       -2.194103   1.000000
   79       -2.090820   1.000000
   80       -1.967837   1.000000
   81       -1.786289   1.000000
   82       -1.725935   1.000000
   83       -1.719372   1.000000
   84       -1.416289   1.000000
   85       -1.269216   1.000000
   86       -1.143621   1.000000
   87       -1.026731   1.000000
   88       -0.980199   1.000000
   89       -0.926037   1.000000
   90       -0.397647   1.000000
   91       -0.223225   1.000136
   92       -0.081123   1.027137
   93        0.004311   0.944008
   94        0.023926   0.847920
   95        0.103933   0.230510
   96        0.134534   0.060773
   97        0.172959  -0.027911
   98        0.413220  -0.000007
   99        0.529883  -0.000000
  100        0.581872  -0.000000
  101        0.596026  -0.000000
  102        0.685740  -0.000000
  103        0.705972  -0.000000
  104        0.784526  -0.000000
  105        0.892017  -0.000000
  106        0.927874  -0.000000
  107        1.166278  -0.000000
  108        1.248650  -0.000000
  109        1.313215  -0.000000
  110        1.343671  -0.000000
  111        1.420080  -0.000000
  112        1.456698  -0.000000
  113        1.479711  -0.000000
  114        1.515473  -0.000000
  115        1.662976  -0.000000
  116        1.667776  -0.000000
  117        1.739797  -0.000000
  118        1.846913  -0.000000
  119        1.876134  -0.000000
  120        1.910040  -0.000000
  121        1.944378  -0.000000
  122        1.967027  -0.000000
  123        2.024963  -0.000000
  124        2.122292  -0.000000
  125        2.148673  -0.000000
  126        2.305032  -0.000000
  127        2.366957  -0.000000
  128        2.393906  -0.000000

  0.1111111E+00  0.3729374E-15  0.3860503E-15  0.6734007E-02
    1      -13.933993   1.000000
    2      -12.684884   1.000000
    3      -12.568083   1.000000
    4      -11.898011   1.000000
    5      -11.670585   1.000000
    6      -11.172139   1.000000
    7      -11.123923   1.000000
    8      -11.106302   1.000000
    9      -11.035378   1.000000
   10      -10.706935   1.000000
   11      -10.659681   1.000000
   12      -10.372549   1.000000
   13      -10.257553   1.000000
   14      -10.221501   1.000000
   15       -9.781558   1.000000
   16       -9.760444   1.000000
   17       -9.204183   1.000000
   18       -9.139181   1.000000
   19       -8.971263   1.000000
   20       -8.635281   1.000000
   21       -8.508044   1.000000
   22       -8.457073   1.000000
   23       -8.445368   1.000000
   24       -8.142350   1.000000
   25       -8.044830   1.000000
   26       -8.015402   1.000000
   27       -7.639909   1.000000
   28       -7.365834   1.000000
   29       -7.001361   1.000000
   30       -6.563489   1.000000
   31       -6.480089   1.000000
   32       -6.423424   1.000000
   33       -6.122178   1.000000
   34       -6.066886   1.000000
   35       -5.983425   1.000000
   36       -5.786629   1.000000
   37       -5.767594   1.000000
   38       -5.559458   1.000000
   39       -5.412302   1.000000
   40       -5.348643   1.000000
   41       -5.293389   1.000000
   42       -5.151098   1.000000
   43       -5.079280   1.000000
   44       -5.064315   1.000000
   45       -4.871902   1.000000
   46       -4.788795   1.000000
   47       -4.774528   1.000000
   48       -4.709749   1.000000
   49       -4.618008   1.000000
   50       -4.589626   1.000000
   51       -4.557967   1.000000
   52       -4.518453   1.000000
   53       -4.460007   1.000000
   54       -4.359818   1.000000
   55       -4.294872   1.000000
   56       -4.182306   1.000000
   57       -4.161292   1.000000
   58       -4.108975   1.000000
   59       -4.043419   1.000000
   60       -3.980294   1.000000
   61       -3.883309   1.000000
   62       -3.777027   1.000000
   63       -3.551781   1.000000
   64       -3.536393   1.000000
   65       -3.453446   1.000000
   66       -3.429295   1.000000
   67       -3.378964   1.000000
   68       -3.357653   1.000000
   69       -3.287011   1.000000
   70       -3.221018   1.000000
   71       -3.203051   1.000000
   72       -3.114037   1.000000
   73       -3.010800   1.000000
   74       -2.802485   1.000000
   75       -2.534712   1.000000
   76       -2.409112   1.000000
   77       -2.255840   1.000000
   78       -2.248350   1.000000
   79       -2.123282   1.000000
   80       -1.993157   1.000000
   81       -1.764139   1.000000
   82       -1.744923   1.000000
   83       -1.651812   1.000000
   84       -1.435781   1.000000
   85       -1.280813   1.000000
   86       -1.124471   1.000000
   87       -1.014494   1.000000
   88       -0.956628   1.000000
   89       -0.853594   1.000000
   90       -0.461456   1.000000
   91       -0.283912   1.000003
   92       -0.086315   1.024761
   93       -0.050097   1.035370
   94        0.023895   0.848100
   95        0.100640   0.253881
   96        0.135821   0.055664
   97        0.243170  -0.017198
   98        0.398602  -0.000017
   99        0.535016  -0.000000
  100        0.555941  -0.000000
  101        0.591894  -0.000000
  102        0.698178  -0.000000
  103        0.749594  -0.000000
  104        0.802567  -0.000000
  105        0.895962  -0.000000
  106        0.954115  -0.000000
  107        1.220430  -0.000000
  108        1.260115  -0.000000
  109        1.294402  -0.000000
  110        1.371396  -0.000000
  111        1.416562  -0.000000
  112        1.466356  -0.000000
  113        1.512189  -0.000000
  114        1.537226  -0.000000
  115        1.644329  -0.000000
  116        1.666330  -0.000000
  117        1.720833  -0.000000
  118        1.841587  -0.000000
  119        1.876431  -0.000000
  120        1.911351  -0.000000
  121        1.939238  -0.000000
  122        1.957302  -0.000000
  123        2.020525  -0.000000
  124        2.122331  -0.000000
  125        2.130568  -0.000000
  126        2.249184  -0.000000
  127        2.333549  -0.000000
  128        2.387842  -0.000000

  0.2222222E+00  0.3922785E-15  0.3630220E-15  0.6734007E-02
    1      -13.853926   1.000000
    2      -12.825402   1.000000
    3      -12.594373   1.000000
    4      -11.865010   1.000000
    5      -11.632640   1.000000
    6      -11.208073   1.000000
    7      -11.110298   1.000000
    8      -11.093843   1.000000
    9      -11.018999   1.000000
   10      -10.697790   1.000000
   11      -10.645982   1.000000
   12      -10.429488   1.000000
   13      -10.241431   1.000000
   14      -10.186057   1.000000
   15       -9.777591   1.000000
   16       -9.720847   1.000000
   17       -9.231763   1.000000
   18       -9.077105   1.000000
   19       -8.979958   1.000000
   20       -8.691008   1.000000
   21       -8.600564   1.000000
   22       -8.470121   1.000000
   23       -8.444153   1.000000
   24       -8.161837   1.000000
   25       -8.124597   1.000000
   26       -7.974772   1.000000
   27       -7.766478   1.000000
   28       -7.419143   1.000000
   29       -6.950880   1.000000
   30       -6.512420   1.000000
   31       -6.435405   1.000000
   32       -6.311880   1.000000
   33       -6.172253   1.000000
   34       -6.048998   1.000000
   35       -5.913743   1.000000
   36       -5.817516   1.000000
   37       -5.683238   1.000000
   38       -5.549665   1.000000
   39       -5.468612   1.000000
   40       -5.331416   1.000000
   41       -5.222677   1.000000
   42       -5.091539   1.000000
   43       -5.005264   1.000000
   44       -4.977077   1.000000
   45       -4.917988   1.000000
   46       -4.886919   1.000000
   47       -4.784118   1.000000
   48       -4.657297   1.000000
   49       -4.610355   1.000000
   50       -4.552510   1.000000
   51       -4.507311   1.000000
   52       -4.461566   1.000000
   53       -4.443948   1.000000
   54       -4.351298   1.000000
   55       -4.289942   1.000000
   56       -4.189376   1.000000
   57       -4.142668   1.000000
   58       -4.131183   1.000000
   59       -4.060230   1.000000
   60       -3.952000   1.000000
   61       -3.880055   1.000000
   62       -3.773069   1.000000
   63       -3.606719   1.000000
   64       -3.561727   1.000000
   65       -3.484801   1.000000
   66       -3.433780   1.000000
   67       -3.406369   1.000000
   68       -3.347725   1.000000
   69       -3.326041   1.000000
   70       -3.200083   1.000000
   71       -3.177239   1.000000
   72       -3.090489   1.000000
   73       -2.972043   1.000000
   74       -2.901482   1.000000
   75       -2.531335   1.000000
   76       -2.425400   1.000000
   77       -2.368329   1.000000
   78       -2.230372   1.000000
   79       -2.214051   1.000000
   80       -2.002636   1.000000
   81       -1.855224   1.000000
   82       -1.736584   1.000000
   83       -1.483528   1.000000
   84       -1.421814   1.000000
   85       -1.325792   1.000000
   86       -1.088003   1.000000
   87       -0.971389   1.000000
   88       -0.914733   1.000000
   89       -0.625259   1.000000
   90       -0.583961   1.000000
   91       -0.424728   1.000000
   92       -0.264474   1.000012
   93       -0.102660   1.017393
   94        0.045136   0.703560
   95        0.122458   0.116830
   96        0.205050  -0.033423
   97        0.292641  -0.003601
   98        0.402151  -0.000014
   99        0.489685  -0.000000
  100        0.540030  -0.000000
  101        0.593646  -0.000000
  102        0.731048  -0.000000
  103        0.773598  -0.000000
  104        0.857758  -0.000000
  105        0.938218  -0.000000
  106        1.107758  -0.000000
  107        1.211748  -0.000000
  108        1.300376  -0.000000
  109        1.352360  -0.000000
  110        1.399872  -0.000000
  111        1.433856  -0.000000
  112        1.483208  -0.000000
  113        1.552048  -0.000000
  114        1.578113  -0.000000
  115        1.618458  -0.000000
  116        1.662329  -0.000000
  117        1.703758  -0.000000
  118        1.823334  -0.000000
  119        1.862433  -0.000000
  120        1.893768  -0.000000
  121        1.922864  -0.000000
  122        1.940112  -0.000000
  123        2.005560  -0.000000
  124        2.094625  -0.000000
  125        2.122799  -0.000000
  126        2.151201  -0.000000
  127        2.254987  -0.000000
  128        2.275879  -0.000000

  0.3333333E+00  0.3713828E-15  0.3468587E-15  0.6734007E-02
    1      -13.723248   1.000000
    2      -13.080837   1.000000
    3      -12.489848   1.000000
    4      -11.943834   1.000000
    5      -11.584144   1.000000
    6      -11.229204   1.000000
    7      -11.097144   1.000000
    8      -11.084110   1.000000
    9      -10.941374   1.000000
   10      -10.683529   1.000000
   11      -10.626850   1.000000
   12      -10.537594   1.000000
   13      -10.231730   1.000000
   14      -10.150354   1.000000
   15       -9.769822   1.000000
   16       -9.642349   1.000000
   17       -9.252415   1.000000
   18       -9.131418   1.000000
   19       -8.867452   1.000000
   20       -8.740413   1.000000
   21       -8.731330   1.000000
   22       -8.468928   1.000000
   23       -8.451997   1.000000
   24       -8.250268   1.000000
   25       -8.204586   1.000000
   26       -8.022371   1.000000
   27       -7.762672   1.000000
   28       -7.351163   1.000000
   29       -6.958205   1.000000
   30       -6.486826   1.000000
   31       -6.418405   1.000000
   32       -6.376275   1.000000
   33       -6.245139   1.000000
   34       -6.000548   1.000000
   35       -5.812218   1.000000
   36       -5.787098   1.000000
   37       -5.571464   1.000000
   38       -5.473737   1.000000
   39       -5.408303   1.000000
   40       -5.254425   1.000000
   41       -5.191926   1.000000
   42       -5.124271   1.000000
   43       -5.067004   1.000000
   44       -4.947618   1.000000
   45       -4.913183   1.000000
   46       -4.825236   1.000000
   47       -4.750425   1.000000
   48       -4.635495   1.000000
   49       -4.602874   1.000000
   50       -4.543926   1.000000
   51       -4.491109   1.000000
   52       -4.436307   1.000000
   53       -4.384593   1.000000
   54       -4.327997   1.000000
   55       -4.251659   1.000000
   56       -4.224850   1.000000
   57       -4.150000   1.000000
   58       -4.089673   1.000000
   59       -4.033528   1.000000
   60       -3.935730   1.000000
   61       -3.887350   1.000000
   62       -3.769904   1.000000
   63       -3.720491   1.000000
   64       -3.632983   1.000000
   65       -3.540829   1.000000
   66       -3.450010   1.000000
   67       -3.429728   1.000000
   68       -3.364849   1.000000
   69       -3.289307   1.000000
   70       -3.211785   1.000000
   71       -3.178405   1.000000
   72       -3.023078   1.000000
   73       -2.924230   1.000000
   74       -2.854614   1.000000
   75       -2.586413   1.000000
   76       -2.501575   1.000000
   77       -2.460791   1.000000
   78       -2.328506   1.000000
   79       -2.247149   1.000000
   80       -2.003583   1.000000
   81       -1.920591   1.000000
   82       -1.720935   1.000000
   83       -1.531892   1.000000
   84       -1.400865   1.000000
   85       -1.176935   1.000000
   86       -1.034930   1.000000
   87       -0.884237   1.000000
   88       -0.799814   1.000000
   89       -0.736254   1.000000
   90       -0.569985   1.000000
   91       -0.467091   1.000000
   92       -0.296834   1.000001
   93       -0.253359   1.000024
   94        0.026900   0.830028
   95        0.131368   0.074044
   96        0.216997  -0.028978
   97        0.329428  -0.000753
   98        0.374037  -0.000074
   99        0.426097  -0.000003
  100        0.586343  -0.000000
  101        0.681194  -0.000000
  102        0.754068  -0.000000
  103        0.875873  -0.000000
  104        0.900980  -0.000000
  105        1.036363  -0.000000
  106        1.056876  -0.000000
  107        1.306699  -0.000000
  108        1.374964  -0.000000
  109        1.415118  -0.000000
  110        1.447609  -0.000000
  111        1.462522  -0.000000
  112        1.504240  -0.000000
  113        1.533536  -0.000000
  114        1.576105  -0.000000
  115        1.610524  -0.000000
  116        1.684097  -0.000000
  117        1.738933  -0.000000
  118        1.785542  -0.000000
  119        1.822217  -0.000000
  120        1.848272  -0.000000
  121        1.896915  -0.000000
  122        1.947909  -0.000000
  123        1.974199  -0.000000
  124        1.993184  -0.000000
  125        2.031573  -0.000000
  126        2.101797  -0.000000
  127        2.138674  -0.000000
  128        2.214689  -0.000000

  0.4444444E+00  0.3870091E-15  0.3932070E-15  0.6734007E-02
    1      -13.547235   1.000000
    2      -13.325623   1.000000
    3      -12.371884   1.000000
    4      -12.070510   1.000000
    5      -11.548547   1.000000
    6      -11.232505   1.000000
    7      -11.089051   1.000000
    8      -11.077206   1.000000
    9      -10.841561   1.000000
   10      -10.678313   1.000000
   11      -10.657326   1.000000
   12      -10.606705   1.000000
   13      -10.231820   1.000000
   14      -10.132243   1.000000
   15       -9.759957   1.000000
   16       -9.541289   1.000000
   17       -9.259767   1.000000
   18       -9.245489   1.000000
   19       -8.840493   1.000000
   20       -8.767012   1.000000
   21       -8.681041   1.000000
   22       -8.473344   1.000000
   23       -8.452527   1.000000
   24       -8.327203   1.000000
   25       -8.254139   1.000000
   26       -8.212888   1.000000
   27       -7.584781   1.000000
   28       -7.254480   1.000000
   29       -7.026888   1.000000
   30       -6.578714   1.000000
   31       -6.453406   1.000000
   32       -6.382141   1.000000
   33       -6.327937   1.000000
   34       -5.948750   1.000000
   35       -5.697088   1.000000
   36       -5.633852   1.000000
   37       -5.503870   1.000000
   38       -5.418587   1.000000
   39       -5.386608   1.000000
   40       -5.311823   1.000000
   41       -5.210357   1.000000
   42       -5.129286   1.000000
   43       -5.101869   1.000000
   44       -4.935594   1.000000
   45       -4.846496   1.000000
   46       -4.778636   1.000000
   47       -4.702759   1.000000
   48       -4.642121   1.000000
   49       -4.622107   1.000000
   50       -4.525356   1.000000
   51       -4.474788   1.000000
   52       -4.429119   1.000000
   53       -4.350260   1.000000
   54       -4.336561   1.000000
   55       -4.231366   1.000000
   56       -4.150820   1.000000
   57       -4.129862   1.000000
   58       -4.090342   1.000000
   59       -4.050741   1.000000
   60       -3.916914   1.000000
   61       -3.882245   1.000000
   62       -3.866430   1.000000
   63       -3.745938   1.000000
   64       -3.651487   1.000000
   65       -3.584555   1.000000
   66       -3.531622   1.000000
   67       -3.437771   1.000000
   68       -3.357522   1.000000
   69       -3.267571   1.000000
   70       -3.214356   1.000000
   71       -3.193387   1.000000
   72       -2.927141   1.000000
   73       -2.844816   1.000000
   74       -2.751132   1.000000
   75       -2.688822   1.000000
   76       -2.607186   1.000000
   77       -2.543721   1.000000
   78       -2.394581   1.000000
   79       -2.215665   1.000000
   80       -2.121119   1.000000
   81       -1.905524   1.000000
   82       -1.674872   1.000000
   83       -1.578024   1.000000
   84       -1.415134   1.000000
   85       -1.036827   1.000000
   86       -0.953971   1.000000
   87       -0.879725   1.000000
   88       -0.861433   1.000000
   89       -0.650017   1.000000
   90       -0.601322   1.000000
   91       -0.516176   1.000000
   92       -0.407791   1.000000
   93       -0.168579   1.001898
   94        0.006120   0.936763
   95        0.067221   0.523707
   96        0.209294  -0.032036
   97        0.301097  -0.002586
   98        0.377387  -0.000062
   99        0.576373  -0.000000
  100        0.611848  -0.000000
  101        0.644197  -0.000000
  102        0.737976  -0.000000
  103        0.821493  -0.000000
  104        0.915261  -0.000000
  105        1.201761  -0.000000
  106        1.209349  -0.000000
  107        1.328313  -0.000000
  108        1.426137  -0.000000
  109        1.455050  -0.000000
  110        1.469815  -0.000000
  111        1.495489  -0.000000
  112        1.524479  -0.000000
  113        1.531601  -0.000000
  114        1.589123  -0.000000
  115        1.597723  -0.000000
  116        1.614402  -0.000000
  117        1.720294  -0.000000
  118        1.748766  -0.000000
  119        1.760736  -0.000000
  120        1.791041  -0.000000
  121        1.827167  -0.000000
  122        1.850440  -0.000000
  123        1.952366  -0.000000
  124        2.038995  -0.000000
  125        2.078140  -0.000000
  126        2.110474  -0.000000
  127        2.139371  -0.000000
  128        2.205690  -0.000000

  0.3742002E-15  0.9090909E-01  0.3596334E-15  0.6734007E-02
    1      -13.927739   1.000000
    2      -12.672515   1.000000
    3      -12.463842   1.000000
    4      -11.920957   1.000000
    5      -11.663864   1.000000
    6      -11.324084   1.000000
    7      -11.274121   1.000000
    8      -11.116233   1.000000
    9      -11.026371   1.000000
   10      -10.716365   1.000000
   11      -10.648197   1.000000
   12      -10.343376   1.000000
   13      -10.244808   1.000000
   14      -10.146191   1.000000
   15       -9.823446   1.000000
   16       -9.728986   1.000000
   17       -9.206312   1.000000
   18       -9.128629   1.000000
   19       -8.981636   1.000000
   20       -8.704127   1.000000
   21       -8.566754   1.000000
   22       -8.507371   1.000000
   23       -8.185669   1.000000
   24       -8.043821   1.000000
   25       -7.865834   1.000000
   26       -7.835477   1.000000
   27       -7.597367   1.000000
   28       -7.333600   1.000000
   29       -7.008398   1.000000
   30       -6.621867   1.000000
   31       -6.508766   1.000000
   32       -6.463910   1.000000
   33       -6.153270   1.000000
   34       -6.074039   1.000000
   35       -5.982703   1.000000
   36       -5.784067   1.000000
   37       -5.748227   1.000000
   38       -5.571818   1.000000
   39       -5.461656   1.000000
   40       -5.328357   1.000000
   41       -5.265167   1.000000
   42       -5.195918   1.000000
   43       -5.163579   1.000000
   44       -5.088767   1.000000
   45       -4.981356   1.000000
   46       -4.849842   1.000000
   47       -4.790686   1.000000
   48       -4.736434   1.000000
   49       -4.683522   1.000000
   50       -4.633882   1.000000
   51       -4.583889   1.000000
   52       -4.560335   1.000000
   53       -4.446721   1.000000
   54       -4.386378   1.000000
   55       -4.335271   1.000000
   56       -4.217855   1.000000
   57       -4.152561   1.000000
   58       -4.098815   1.000000
   59       -4.005553   1.000000
   60       -3.967287   1.000000
   61       -3.925598   1.000000
   62       -3.782543   1.000000
   63       -3.561664   1.000000
   64       -3.528484   1.000000
   65       -3.474393   1.000000
   66       -3.426414   1.000000
   67       -3.361973   1.000000
   68       -3.328413   1.000000
   69       -3.254846   1.000000
   70       -3.238635   1.000000
   71       -3.138542   1.000000
   72       -3.082826   1.000000
   73       -3.004719   1.000000
   74       -2.933927   1.000000
   75       -2.472935   1.000000
   76       -2.385482   1.000000
   77       -2.267695   1.000000
   78       -2.190540   1.000000
   79       -2.079376   1.000000
   80       -1.983479   1.000000
   81       -1.829735   1.000000
   82       -1.756875   1.000000
   83       -1.602562   1.000000
   84       -1.414751   1.000000
   85       -1.295054   1.000000
   86       -1.139249   1.000000
   87       -1.044872   1.000000
   88       -1.015327   1.000000
   89       -0.959374   1.000000
   90       -0.537590   1.000000
   91       -0.304472   1.000001
   92       -0.159868   1.002711
   93       -0.091430   1.022395
   94        0.001563   0.954386
   95        0.034299   0.782002
   96        0.119244   0.134213
   97        0.171479  -0.026572
   98        0.348837  -0.000291
   99        0.426025  -0.000003
  100        0.536067  -0.000000
  101        0.682309  -0.000000
  102        0.733586  -0.000000
  103        0.799533  -0.000000
  104        0.917302  -0.000000
  105        0.956503  -0.000000
  106        0.992309  -0.000000
  107        1.174510  -0.000000
  108        1.208573  -0.000000
  109        1.336455  -0.000000
  110        1.361929  -0.000000
  111        1.416588  -0.000000
  112        1.432019  -0.000000
  113        1.515815  -0.000000
  114        1.532122  -0.000000
  115        1.628118  -0.000000
  116        1.689871  -0.000000
  117        1.730551  -0.000000
  118        1.783981  -0.000000
  119        1.843313  -0.000000
  120        1.922314  -0.000000
  121        1.965849  -0.000000
  122        2.015948  -0.000000
  123        2.039668  -0.000000
  124        2.094082  -0.000000
  125        2.161344  -0.000000
  126        2.243249  -0.000000
  127        2.328347  -0.000000
  128        2.370064  -0.000000

  0.1111111E+00  0.9090909E-01  0.4822234E-15  0.6734007E-02
    1      -13.878990   1.000000
    2      -12.678575   1.000000
    3      -12.596488   1.000000
    4      -11.855533   1.000000
    5      -11.639482   1.000000
    6      -11.370499   1.000000
    7      -11.223675   1.000000
    8      -11.136571   1.000000
    9      -11.029873   1.000000
   10      -10.707398   1.000000
   11      -10.599504   1.000000
   12      -10.371421   1.000000
   13      -10.255714   1.000000
   14      -10.160037   1.000000
   15       -9.813943   1.000000
   16       -9.697877   1.000000
   17       -9.218687   1.000000
   18       -9.083377   1.000000
   19       -8.973123   1.000000
   20       -8.761380   1.000000
   21       -8.596247   1.000000
   22       -8.538431   1.000000
   23       -8.202059   1.000000
   24       -8.023471   1.000000
   25       -7.900452   1.000000
   26       -7.859294   1.000000
   27       -7.673530   1.000000
   28       -7.396105   1.000000
   29       -6.959575   1.000000
   30       -6.643544   1.000000
   31       -6.421775   1.000000
   32       -6.368628   1.000000
   33       -6.134651   1.000000
   34       -6.087989   1.000000
   35       -5.958579   1.000000
   36       -5.798175   1.000000
   37       -5.730569   1.000000
   38       -5.558506   1.000000
   39       -5.415981   1.000000
   40       -5.389392   1.000000
   41       -5.249491   1.000000
   42       -5.174026   1.000000
   43       -5.123197   1.000000
   44       -5.078604   1.000000
   45       -4.976370   1.000000
   46       -4.854284   1.000000
   47       -4.778935   1.000000
   48       -4.686700   1.000000
   49       -4.658834   1.000000
   50       -4.614146   1.000000
   51       -4.536203   1.000000
   52       -4.496558   1.000000
   53       -4.458630   1.000000
   54       -4.411111   1.000000
   55       -4.308012   1.000000
   56       -4.236660   1.000000
   57       -4.192661   1.000000
   58       -4.127759   1.000000
   59       -3.988796   1.000000
   60       -3.963702   1.000000
   61       -3.894027   1.000000
   62       -3.763418   1.000000
   63       -3.584508   1.000000
   64       -3.559207   1.000000
   65       -3.523678   1.000000
   66       -3.459491   1.000000
   67       -3.343557   1.000000
   68       -3.314438   1.000000
   69       -3.235284   1.000000
   70       -3.203343   1.000000
   71       -3.159921   1.000000
   72       -3.115387   1.000000
   73       -3.015273   1.000000
   74       -2.954707   1.000000
   75       -2.502843   1.000000
   76       -2.407848   1.000000
   77       -2.277792   1.000000
   78       -2.241182   1.000000
   79       -2.084186   1.000000
   80       -2.023191   1.000000
   81       -1.857928   1.000000
   82       -1.761767   1.000000
   83       -1.522317   1.000000
   84       -1.419460   1.000000
   85       -1.370902   1.000000
   86       -1.116348   1.000000
   87       -0.990213   1.000000
   88       -0.931114   1.000000
   89       -0.843932   1.000000
   90       -0.619524   1.000000
   91       -0.314954   1.000000
   92       -0.228215   1.000103
   93       -0.104572   1.016592
   94       -0.028449   1.023469
   95        0.054834   0.626917
   96        0.176728  -0.030759
   97        0.210005  -0.031779
   98        0.300934  -0.002603
   99        0.383681  -0.000043
  100        0.572099  -0.000000
  101        0.686395  -0.000000
  102        0.750161  -0.000000
  103        0.816837  -0.000000
  104        0.911870  -0.000000
  105        0.985661  -0.000000
  106        1.008688  -0.000000
  107        1.234478  -0.000000
  108        1.262009  -0.000000
  109        1.297711  -0.000000
  110        1.357267  -0.000000
  111        1.433532  -0.000000
  112        1.458643  -0.000000
  113        1.548753  -0.000000
  114        1.576271  -0.000000
  115        1.634722  -0.000000
  116        1.663758  -0.000000
  117        1.688607  -0.000000
  118        1.789926  -0.000000
  119        1.844375  -0.000000
  120        1.888578  -0.000000
  121        1.960111  -0.000000
  122        1.980158  -0.000000