    3    3   60    1
  0.8144830E+01  0.3039000E-09  0.3039000E-09  0.3055000E-09  0.5000000E-15
   1.0000000000000000E-004
  CAR 
 Name                                    
     12    216     10

  0.3742002E-15  0.3742002E-15  0.3742002E-15  0.2962963E-03
    1       -5.896215   1.000000
    2        2.593050   1.000000
    3        4.212039   1.000000
    4        4.839781   1.000000
    5        4.839783   1.000000
    6        9.486206  -0.000000
    7        9.486206  -0.000000
    8       10.231983  -0.000000
    9       10.231987  -0.000000
   10       14.086960   0.000000

  0.6666667E-01  0.3766815E-15  0.3742002E-15  0.1777778E-02
    1       -5.809061   1.000000
    2        2.689611   1.000000
    3        4.130634   1.000000
    4        4.613289   1.000000
    5        4.874926   1.000000
    6        9.441203  -0.000000
    7        9.637641  -0.000000
    8        9.917505  -0.000000
    9       10.012489  -0.000000
   10       14.055688   0.000000

  0.1333333E+00  0.3754153E-15  0.3742002E-15  0.1777778E-02
    1       -5.550881   1.000000
    2        2.947710   1.000000
    3        3.924342   1.000000
    4        4.007507   1.000000
    5        4.955158   1.000000
    6        9.239841  -0.000000
    7        9.316933  -0.000000
    8        9.610988  -0.000000
    9       10.022544  -0.000000
   10       13.992449   0.000000

  0.2000000E+00  0.3870416E-15  0.3742002E-15  0.1777778E-02
    1       -5.130873   1.000000
    2        3.062368   1.000000
    3        3.370301   1.000000
    4        3.669149   1.000000
    5        5.015078   1.000000
    6        8.624635  -0.000000
    7        9.141135  -0.000000
    8        9.355580  -0.000000
    9       10.453165  -0.000000
   10       13.927221   0.000000

  0.2666667E+00  0.4120044E-15  0.3742002E-15  0.1777778E-02
    1       -4.562225   1.000000
    2        2.122758   1.000000
    3        3.427712   1.000000
    4        3.560427   1.000000
    5        4.995301   1.000000
    6        8.399186  -0.000005
    7        8.949041  -0.000000
    8        9.381173  -0.000000
    9       10.671752  -0.000000
   10       13.866757   0.000000

  0.3333333E+00  0.4025434E-15  0.3742002E-15  0.1777778E-02
    1       -3.860785   1.000000
    2        1.065149   1.000000
    3        3.235146   1.000000
    4        3.595711   1.000000
    5        4.900559   1.000000
    6        8.706703  -0.000000
    7        8.773881  -0.000000
    8        9.649901  -0.000000
    9       10.562866  -0.000000
   10       13.816503   0.000000

  0.4000000E+00  0.3732510E-15  0.3742002E-15  0.1777778E-02
    1       -3.045784   1.000000
    2       -0.008500   1.000000
    3        3.105625   1.000000
    4        3.498448   1.000000
    5        4.789599   1.000000
    6        8.642304  -0.000000
    7        9.367302  -0.000000
    8       10.003725  -0.000000
    9       10.313699  -0.000000
   10       13.783519   0.000000

  0.4666667E+00  0.3915456E-15  0.3742002E-15  0.1777778E-02
    1       -2.162013   1.000000
    2       -1.027991   1.000000
    3        3.041543   1.000000
    4        3.410381   1.000000
    5        4.719427   1.000000
    6        8.572145  -0.000000
    7        9.941228  -0.000000
    8       10.140172  -0.000000
    9       10.249398  -0.000000
   10       13.771827   0.000000

  0.6666667E-01  0.6666667E-01  0.3742002E-15  0.1777778E-02
    1       -5.636376   1.000000
    2        2.867844   1.000000
    3        3.988375   1.000000
    4        4.211775   1.000000
    5        4.915559   1.000000
    6        9.329335  -0.000000
    7        9.463463  -0.000000
    8        9.678489  -0.000000
    9        9.933920  -0.000000
   10       14.085697   0.000000

  0.1333333E+00  0.6666667E-01  0.3742002E-15  0.3555556E-02
    1       -5.297181   1.000000
    2        3.146215   1.000000
    3        3.531255   1.000000
    4        3.766043   1.000000
    5        4.945597   1.000000
    6        8.827176  -0.000000
    7        9.104464  -0.000000
    8        9.395144  -0.000000
    9       10.428594  -0.000000
   10       14.092326   0.000000

  0.2000000E+00  0.6666667E-01  0.3742002E-15  0.3555556E-02
    1       -4.802572   1.000000
    2        2.610915   1.000000
    3        3.430711   1.000000
    4        3.534193   1.000000
    5        4.966392   1.000000
    6        8.333991  -0.000228
    7        8.807829  -0.000000
    8        9.402958  -0.000000
    9       10.901905   0.000000
   10       14.049565   0.000000

  0.2666667E+00  0.6666667E-01  0.3742002E-15  0.3555556E-02
    1       -4.166812   1.000000
    2        1.615562   1.000000
    3        3.338999   1.000000
    4        3.457550   1.000000
    5        5.010082   1.000000
    6        8.254602  -0.006991
    7        8.485526  -0.000000
    8        9.685173  -0.000000
    9       11.112824   0.000000
   10       14.000984   0.000000

  0.3333333E+00  0.6666667E-01  0.3742002E-15  0.3555556E-02
    1       -3.406723   1.000000
    2        0.561939   1.000000
    3        3.200395   1.000000
    4        3.314947   1.000000
    5        5.008736   1.000000
    6        8.191684  -0.031339
    7        8.669534  -0.000000
    8       10.055842  -0.000000
    9       11.049639   0.000000
   10       13.992307   0.000000

  0.4000000E+00  0.6666667E-01  0.3742002E-15  0.3555556E-02
    1       -2.546142   1.000000
    2       -0.489824   1.000000
    3        3.120836   1.000000
    4        3.165786   1.000000
    5        4.958538   1.000000
    6        7.983967   0.947259
    7        9.362619  -0.000000
    8       10.230800  -0.000000
    9       10.919824   0.000000
   10       14.073152   0.000000

  0.4666667E+00  0.6666667E-01  0.3742002E-15  0.1777778E-02
    1       -1.795133   1.000000
    2       -1.307133   1.000000
    3        3.095362   1.000000
    4        3.107008   1.000000
    5        4.931549   1.000000
    6        7.908736   1.031101
    7        9.963405  -0.000000
    8       10.000593  -0.000000
    9       10.863941   0.000000
   10       14.158651   0.000000

  0.1333333E+00  0.1333333E+00  0.3742002E-15  0.1777778E-02
    1       -4.883175   1.000000
    2        2.877475   1.000000
    3        3.313913   1.000000
    4        3.582235   1.000000
    5        4.903190   1.000000
    6        8.311413  -0.000702
    7        8.676394  -0.000000
    8        9.433387  -0.000000
    9       11.082701   0.000000
   10       14.252768   0.000000

  0.2000000E+00  0.1333333E+00  0.3742002E-15  0.3555556E-02
    1       -4.320670   1.000000
    2        2.087283   1.000000
    3        3.184799   1.000000
    4        3.428968   1.000000
    5        5.081342   1.000000
    6        7.901402   1.028043
    7        8.145522  -0.019132
    8        9.786562  -0.000000
    9       11.734798   0.000000
   10       14.621159   0.000000

  0.2666667E+00  0.1333333E+00  0.3742002E-15  0.3555556E-02
    1       -3.624333   1.000000
    2        1.158597   1.000000
    3        2.875033   1.000000
    4        3.332379   1.000000
    5        5.358146   1.000000
    6        7.616428   1.000000
    7        7.881525   1.018987
    8       10.191046  -0.000000
    9       12.099797   0.000000
   10       14.854461   0.000000

  0.3333333E+00  0.1333333E+00  0.3742002E-15  0.3555556E-02
    1       -2.812233   1.000000
    2        0.148998   1.000000
    3        2.604316   1.000000
    4        3.290262   1.000000
    5        5.456953   1.000000
    6        7.188619   1.000000
    7        8.377905  -0.000019
    8       10.303519  -0.000000
    9       12.158459   0.000000
   10       14.644480   0.000000

  0.4000000E+00  0.1333333E+00  0.3742002E-15  0.3555556E-02
    1       -1.919458   1.000000
    2       -0.856657   1.000000
    3        2.457607   1.000000
    4        3.280445   1.000000
    5        5.444340   1.000000
    6        6.947908   1.000000
    7        9.138674  -0.000000
    8        9.951198  -0.000000
    9       12.129979   0.000000
   10       15.003363   0.000000

  0.2000000E+00  0.2000000E+00  0.3742002E-15  0.1777778E-02
    1       -3.696986   1.000000
    2        1.512812   1.000000
    3        2.565524   1.000000
    4        3.396308   1.000000
    5        5.552396   1.000000
    6        7.390670   1.000000
    7        7.521760   1.000000
    8       10.243217  -0.000000
    9       12.671829   0.000000
   10       14.483716   0.000000

  0.2666667E+00  0.2000000E+00  0.3742002E-15  0.3555556E-02
    1       -2.946619   1.000000
    2        0.770783   1.000000
    3        1.996548   1.000000
    4        3.444101   1.000000
    5        6.022779   1.000000
    6        6.695353   1.000000
    7        7.508704   1.000000
    8       10.353266  -0.000000
    9       13.301147   0.000000
   10       14.788256   0.000000

  0.3333333E+00  0.2000000E+00  0.3742002E-15  0.3555556E-02
    1       -2.089991   1.000000
    2       -0.154877   1.000000
    3        1.684319   1.000000
    4        3.535308   1.000000
    5        6.143327   1.000000
    6        6.185395   1.000000
    7        8.105192   0.105333
    8        9.939489  -0.000000
    9       13.440588   0.000000
   10       15.517911   0.000000

  0.4000000E+00  0.2000000E+00  0.3742002E-15  0.1777778E-02
    1       -1.253762   1.000000
    2       -1.029156   1.000000
    3        1.589031   1.000000
    4        3.584999   1.000000
    5        5.991481   1.000000
    6        6.134062   1.000000
    7        8.742693  -0.000000
    8        9.391890  -0.000000
    9       13.447872   0.000000
   10       15.909121   0.000000

  0.2666667E+00  0.2666667E+00  0.3742002E-15  0.1777778E-02
    1       -2.150485   1.000000
    2        0.377921   1.000000
    3        1.124200   1.000000
    4        3.676637   1.000000
    5        5.870395   1.000000
    6        6.814787   1.000000
    7        7.304279   1.000000
    8        9.935620  -0.000000
    9       14.469490   0.000000
   10       14.792628   0.000000

  0.3333333E+00  0.2666667E+00  0.3742002E-15  0.3555556E-02
    1       -1.262169   1.000000
    2       -0.341159   1.000000
    3        0.701941   1.000000
    4        3.949663   1.000000
    5        5.287710   1.000000
    6        6.982192   1.000000
    7        7.918360   1.034195
    8        9.164676  -0.000000
    9       14.651851   0.000000
   10       15.511837   0.000000

  0.3333333E+00  0.3333333E+00  0.3742002E-15  0.5925926E-03
    1       -0.469689   1.000000
    2       -0.469686   1.000000
    3       -0.081494   1.000000
    4        4.536090   1.000000
    5        4.536091   1.000000
    6        7.728375   1.000026
    7        7.728375   1.000026
    8        8.541772  -0.000000
    9       15.370609   0.000000
   10       15.370610   0.000000

  0.3742002E-15  0.3742002E-15  0.6666667E-01  0.5925926E-03
    1       -5.845239   1.000000
    2        2.421800   1.000000
    3        4.313241   1.000000
    4        4.879419   1.000000
    5        4.879421   1.000000
    6        9.370294  -0.000000
    7        9.370295  -0.000000
    8       10.137902  -0.000000
    9       10.137905  -0.000000
   10       14.290348   0.000000

  0.6666667E-01  0.3766815E-15  0.6666667E-01  0.3555556E-02
    1       -5.758845   1.000000
    2        2.512593   1.000000
    3        4.237031   1.000000
    4        4.653004   1.000000
    5        4.911506   1.000000
    6        9.242514  -0.000000
    7        9.374773  -0.000000
    8       10.006602  -0.000000
    9       10.052291  -0.000000
   10       14.206766   0.000000

  0.1333333E+00  0.3754153E-15  0.6666667E-01  0.3555556E-02
    1       -5.502985   1.000000
    2        2.753892   1.000000
    3        3.926344   1.000000
    4        4.169441   1.000000
    5        4.979940   1.000000
    6        8.968229  -0.000000
    7        8.993688  -0.000000
    8        9.886792  -0.000000
    9       10.148934  -0.000000
   10       14.086043   0.000000

  0.2000000E+00  0.3870416E-15  0.6666667E-01  0.3555556E-02
    1       -5.086837   1.000000
    2        3.040000   1.000000
    3        3.105586   1.000000
    4        3.931685   1.000000
    5        5.014868   1.000000
    6        8.474124  -0.000000
    7        8.771686  -0.000000
    8        9.729169  -0.000000
    9       10.509843  -0.000000
   10       14.018892   0.000000

  0.2666667E+00  0.4120044E-15  0.6666667E-01  0.3555556E-02
    1       -4.523606   1.000000
    2        2.106382   1.000000
    3        3.208053   1.000000
    4        3.786017   1.000000
    5        4.959296   1.000000
    6        8.279867  -0.002771
    7        8.751750  -0.000000
    8        9.650267  -0.000000
    9       10.697160  -0.000000
   10       14.054405   0.000000

  0.3333333E+00  0.4025434E-15  0.6666667E-01  0.3555556E-02
    1       -3.828684   1.000000
    2        1.044061   1.000000
    3        3.206803   1.000000
    4        3.661870   1.000000
    5        4.831062   1.000000
    6        8.553350  -0.000000
    7        8.788538  -0.000000
    8        9.760119  -0.000000
    9       10.623073  -0.000000
   10       14.013463   0.000000

  0.4000000E+00  0.3732510E-15  0.6666667E-01  0.3555556E-02
    1       -3.019877   1.000000
    2       -0.028407   1.000000
    3        3.154819   1.000000
    4        3.516255   1.000000
    5        4.697858   1.000000
    6        8.770032  -0.000000
    7        9.055153  -0.000000
    8       10.034810  -0.000000
    9       10.554888  -0.000000
   10       13.836680   0.000000

  0.4666667E+00  0.3915456E-15  0.6666667E-01  0.3555556E-02
    1       -2.131984   1.000000
    2       -1.053882   1.000000
    3        3.121193   1.000000
    4        3.414618   1.000000
    5        4.617246   1.000000
    6        8.740052  -0.000000
    7        9.327634  -0.000000
    8       10.256413  -0.000000
    9       10.724812  -0.000000
   10       13.653401   0.000000

  0.6666667E-01  0.6666667E-01  0.6666667E-01  0.3555556E-02
    1       -5.587699   1.000000
    2        2.679265   1.000000
    3        4.099667   1.000000
    4        4.244272   1.000000
    5        4.960882   1.000000
    6        8.904350  -0.000000
    7        9.351238  -0.000000
    8        9.772971  -0.000000
    9       10.146828  -0.000000
   10       14.203327   0.000000

  0.1333333E+00  0.6666667E-01  0.6666667E-01  0.7111111E-02
    1       -5.251615   1.000000
    2        2.946819   1.000000
    3        3.516151   1.000000
    4        3.913095   1.000000
    5        5.007685   1.000000
    6        8.399220  -0.000005
    7        9.120668  -0.000000
    8        9.602936  -0.000000
    9       10.494921  -0.000000
   10       14.202052   0.000000

  0.2000000E+00  0.6666667E-01  0.6666667E-01  0.7111111E-02
    1       -4.761684   1.000000
    2        2.610850   1.000000
    3        3.173965   1.000000
    4        3.718330   1.000000
    5        5.023286   1.000000
    6        7.979709   0.962676
    7        8.971856  -0.000000
    8        9.517935  -0.000000
    9       10.895116   0.000000
   10       14.206434   0.000000

  0.2666667E+00  0.6666667E-01  0.6666667E-01  0.7111111E-02
    1       -4.132021   1.000000
    2        1.600269   1.000000
    3        3.242118   1.000000
    4        3.532745   1.000000
    5        5.009494   1.000000
    6        7.888907   1.022321
    7        8.864300  -0.000000
    8        9.669582  -0.000000
    9       11.089198   0.000000
   10       14.232206   0.000000

  0.3333333E+00  0.6666667E-01  0.6666667E-01  0.7111111E-02
    1       -3.378744   1.000000
    2        0.543431   1.000000
    3        3.215552   1.000000
    4        3.335568   1.000000
    5        4.932461   1.000000
    6        8.063139   0.394153
    7        8.895833  -0.000000
    8        9.956766  -0.000000
    9       11.108509   0.000000
   10       14.103445   0.000000

  0.4000000E+00  0.6666667E-01  0.6666667E-01  0.7111111E-02
    1       -2.522590   1.000000
    2       -0.508174   1.000000
    3        3.173044   1.000000
    4        3.188177   1.000000
    5        4.833784   1.000000
    6        8.086125   0.218818
    7        9.337364  -0.000000
    8       10.079323  -0.000000
    9       11.140189   0.000000
   10       14.001453   0.000000

  0.4666667E+00  0.6666667E-01  0.6666667E-01  0.3555556E-02
    1       -1.739243   1.000000
    2       -1.358953   1.000000
    3        3.115835   1.000000
    4        3.174491   1.000000
    5        4.791207   1.000000
    6        8.056321   0.451006
    7        9.694724  -0.000000
    8       10.012746  -0.000000
    9       11.161386   0.000000
   10       13.973304   0.000000

  0.1333333E+00  0.1333333E+00  0.6666667E-01  0.3555556E-02
    1       -4.841553   1.000000
    2        2.898177   1.000000
    3        3.156333   1.000000
    4        3.582543   1.000000
    5        5.052965   1.000000
    6        7.801984   1.001236
    7        9.170448  -0.000000
    8        9.355468  -0.000000
    9       11.045886   0.000000
   10       14.435089   0.000000

  0.2000000E+00  0.1333333E+00  0.6666667E-01  0.7111111E-02
    1       -4.284545   1.000000
    2        2.093699   1.000000
    3        3.202483   1.000000
    4        3.289512   1.000000
    5        5.221119   1.000000
    6        7.336987   1.000000
    7        8.740853  -0.000000
    8        9.729056  -0.000000
    9       11.615536   0.000000
   10       14.534036   0.000000

  0.2666667E+00  0.1333333E+00  0.6666667E-01  0.7111111E-02
    1       -3.595014   1.000000
    2        1.149850   1.000000
    3        2.872522   1.000000
    4        3.305638   1.000000
    5        5.364274   1.000000
    6        7.210748   1.000000
    7        8.423390  -0.000001
    8       10.113967  -0.000000
    9       11.987045   0.000000
   10       14.453908   0.000000

  0.3333333E+00  0.1333333E+00  0.6666667E-01  0.7111111E-02
    1       -2.789909   1.000000
    2        0.135455   1.000000
    3        2.609902   1.000000
    4        3.323867   1.000000
    5        5.296387   1.000000
    6        7.273003   1.000000
    7        8.554650  -0.000000
    8       10.208531  -0.000000
    9       12.149582   0.000000
   10       14.527367   0.000000

  0.4000000E+00  0.1333333E+00  0.6666667E-01  0.7111111E-02
    1       -1.896773   1.000000
    2       -0.874789   1.000000
    3        2.469782   1.000000
    4        3.343000   1.000000
    5        5.189767   1.000000
    6        7.223785   1.000000
    7        9.174451  -0.000000
    8        9.877670  -0.000000
    9       12.186393   0.000000
   10       14.711043   0.000000

  0.2000000E+00  0.2000000E+00  0.6666667E-01  0.3555556E-02
    1       -3.667191   1.000000
    2        1.520747   1.000000
    3        2.538604   1.000000
    4        3.347215   1.000000
    5        5.688026   1.000000
    6        6.730307   1.000000
    7        8.230328  -0.014506
    8       10.177780  -0.000000
    9       12.446486   0.000000
   10       14.432549   0.000000

  0.2666667E+00  0.2000000E+00  0.6666667E-01  0.7111111E-02
    1       -2.924456   1.000000
    2        0.766757   1.000000
    3        1.987202   1.000000
    4        3.444549   1.000000
    5        5.896867   1.000000
    6        6.566120   1.000000
    7        7.926818   1.035435
    8       10.286686  -0.000000
    9       13.110841   0.000000
   10       14.602952   0.000000

  0.3333333E+00  0.2000000E+00  0.6666667E-01  0.7111111E-02
    1       -2.075199   1.000000
    2       -0.163982   1.000000
    3        1.692703   1.000000
    4        3.565585   1.000000
    5        5.561942   1.000000
    6        6.770288   1.000000
    7        8.233082  -0.013466
    8        9.897142  -0.000000
    9       13.376217   0.000000
   10       15.081759   0.000000

  0.4000000E+00  0.2000000E+00  0.6666667E-01  0.3555556E-02
    1       -1.208936   1.000000
    2       -1.071176   1.000000
    3        1.602584   1.000000
    4        3.628629   1.000000
    5        5.403022   1.000000
    6        6.774908   1.000000
    7        8.799314  -0.000000
    8        9.370100  -0.000000
    9       13.415540   0.000000
   10       15.383282   0.000000

  0.2666667E+00  0.2666667E+00  0.6666667E-01  0.3555556E-02
    1       -2.137024   1.000000
    2        0.370103   1.000000
    3        1.130688   1.000000
    4        3.683335   1.000000
    5        5.622846   1.000000
    6        6.902386   1.000000
    7        7.631840   1.000000
    8        9.900466  -0.000000
    9       14.224259   0.000000
   10       14.732032   0.000000

  0.3333333E+00  0.2666667E+00  0.6666667E-01  0.7111111E-02
    1       -1.258952   1.000000
    2       -0.348300   1.000000
    3        0.720838   1.000000
    4        3.957193   1.000000
    5        5.121738   1.000000
    6        7.202111   1.000000
    7        8.025533   0.704319
    8        9.159913  -0.000000
    9       14.563750   0.000000
   10       15.310827   0.000000

  0.3333333E+00  0.3333333E+00  0.6666667E-01  0.1185185E-02
    1       -0.495399   1.000000
    2       -0.495397   1.000000
    3       -0.014789   1.000000
    4        4.492272   1.000000
    5        4.492274   1.000000
    6        7.868537   1.013681
    7        7.868538   1.013681
    8        8.526894  -0.000000
    9       15.256916   0.000000
   10       15.256916   0.000000

  0.3742002E-15  0.3742002E-15  0.1333333E+00  0.5925926E-03
    1       -5.695691   1.000000
    2        1.996726   1.000000
    3        4.541914   1.000000
    4        4.997797   1.000000
    5        4.997799   1.000000
    6        9.080957  -0.000000
    7        9.080958  -0.000000
    8        9.869882  -0.000000
    9        9.869886  -0.000000
   10       15.097966   0.000000

  0.6666667E-01  0.3766815E-15  0.1333333E+00  0.3555556E-02
    1       -5.611651   1.000000
    2        2.082733   1.000000
    3        4.468901   1.000000
    4        4.772407   1.000000
    5        5.020276   1.000000
    6        8.841850  -0.000000
    7        8.924641  -0.000000
    8        9.967845  -0.000000
    9       10.006616  -0.000000
   10       14.647589   0.000000

  0.1333333E+00  0.3754153E-15  0.1333333E+00  0.3555556E-02
    1       -5.362896   1.000000
    2        2.314133   1.000000
    3        4.007333   1.000000
    4        4.454392   1.000000
    5        5.052173   1.000000
    6        8.497661  -0.000000
    7        8.503498  -0.000000
    8       10.133800  -0.000000
    9       10.272998  -0.000000
   10       14.363677   0.000000

  0.2000000E+00  0.3870416E-15  0.1333333E+00  0.3555556E-02
    1       -4.958748   1.000000
    2        2.586890   1.000000
    3        3.161963   1.000000
    4        4.269295   1.000000
    5        5.011402   1.000000
    6        8.084531   0.229806
    7        8.365299  -0.000040
    8       10.137688  -0.000000
    9       10.625991  -0.000000
   10       14.152692   0.000000

  0.2666667E+00  0.4120044E-15  0.1333333E+00  0.3555556E-02
    1       -4.412263   1.000000
    2        2.045847   1.000000
    3        2.967593   1.000000
    4        4.062942   1.000000
    5        4.858123   1.000000
    6        7.947986   1.027561
    7        8.517624  -0.000000
    8       10.082545  -0.000000
    9       10.805242   0.000000
   10       14.164273   0.000000

  0.3333333E+00  0.4025434E-15  0.1333333E+00  0.3555556E-02
    1       -3.737972   1.000000
    2        0.996639   1.000000
    3        3.141833   1.000000
    4        3.821562   1.000000
    5        4.648678   1.000000
    6        8.167711  -0.034996
    7        8.829724  -0.000000
    8       10.059759  -0.000000
    9       10.804631   0.000000
   10       14.221379   0.000000

  0.4000000E+00  0.3732510E-15  0.1333333E+00  0.3555556E-02
    1       -2.950573   1.000000
    2       -0.065567   1.000000
    3        3.250562   1.000000
    4        3.591802   1.000000
    5        4.465627   1.000000
    6        8.498955  -0.000000
    7        9.085157  -0.000000
    8       10.147377  -0.000000
    9       10.939634   0.000000
   10       13.811039   0.000000

  0.4666667E+00  0.3915456E-15  0.1333333E+00  0.3555556E-02
    1       -2.066325   1.000000
    2       -1.092810   1.000000
    3        3.322934   1.000000
    4        3.432588   1.000000
    5        4.362579   1.000000
    6        8.657427  -0.000000
    7        9.185404  -0.000000
    8       10.279211  -0.000000
    9       11.316501   0.000000
   10       13.356266   0.000000

  0.6666667E-01  0.6666667E-01  0.1333333E+00  0.3555556E-02
    1       -5.445250   1.000000
    2        2.242342   1.000000
    3        4.325104   1.000000
    4        4.340821   1.000000
    5        5.090848   1.000000
    6        8.376503  -0.000020
    7        8.866975  -0.000000
    8        9.953827  -0.000000
    9       10.288785  -0.000000
   10       14.556083   0.000000

  0.1333333E+00  0.6666667E-01  0.1333333E+00  0.7111111E-02
    1       -5.118759   1.000000
    2        2.509025   1.000000
    3        3.577464   1.000000
    4        4.122649   1.000000
    5        5.168485   1.000000
    6        7.835324   1.004746
    7        8.780393  -0.000000
    8        9.967716  -0.000000
    9       10.615675  -0.000000
   10       14.461611   0.000000

  0.2000000E+00  0.6666667E-01  0.1333333E+00  0.7111111E-02
    1       -4.643301   1.000000
    2        2.536716   1.000000
    3        2.902908   1.000000
    4        3.887684   1.000000
    5        5.149957   1.000000
    6        7.482680   1.000000
    7        8.836672  -0.000000
    8        9.921780  -0.000000
    9       10.926458   0.000000
   10       14.325190   0.000000

  0.2666667E+00  0.6666667E-01  0.1333333E+00  0.7111111E-02
    1       -4.032633   1.000000
    2        1.560351   1.000000
    3        3.086361   1.000000
    4        3.632250   1.000000
    5        4.989502   1.000000
    6        7.512160   1.000000
    7        9.063056  -0.000000
    8        9.844440  -0.000000
    9       11.106011   0.000000
   10       14.305362   0.000000

  0.3333333E+00  0.6666667E-01  0.1333333E+00  0.7111111E-02
    1       -3.301304   1.000000
    2        0.505704   1.000000
    3        3.232607   1.000000
    4        3.397422   1.000000
    5        4.744682   1.000000
    6        7.860911   1.011021
    7        9.254898  -0.000000
    8        9.865032  -0.000000
    9       11.247481   0.000000
   10       14.104299   0.000000

  0.4000000E+00  0.6666667E-01  0.1333333E+00  0.7111111E-02
    1       -2.464378   1.000000
    2       -0.537653   1.000000
    3        3.194399   1.000000
    4        3.358904   1.000000
    5        4.536439   1.000000
    6        8.176382  -0.035289
    7        9.381766  -0.000000
    8        9.976356  -0.000000
    9       11.488833   0.000000
   10       13.758730   0.000000

  0.4666667E+00  0.6666667E-01  0.1333333E+00  0.3555556E-02
    1       -1.575582   1.000000
    2       -1.497196   1.000000
    3        3.136059   1.000000
    4        3.390936   1.000000
    5        4.454936   1.000000
    6        8.265577  -0.004770
    7        9.454317  -0.000000
    8       10.048923  -0.000000
    9       11.640268   0.000000
   10       13.564882   0.000000

  0.1333333E+00  0.1333333E+00  0.1333333E+00  0.3555556E-02
    1       -4.720859   1.000000
    2        2.763850   1.000000
    3        2.959141   1.000000
    4        3.638758   1.000000
    5        5.368551   1.000000
    6        7.173516   1.000000
    7        9.113815  -0.000000
    8        9.730291  -0.000000
    9       11.016124   0.000000
   10       14.733659   0.000000

  0.2000000E+00  0.1333333E+00  0.1333333E+00  0.7111111E-02
    1       -4.180883   1.000000
    2        2.107422   1.000000
    3        2.988439   1.000000
    4        3.253152   1.000000
    5        5.501456   1.000000
    6        6.757523   1.000000
    7        9.350462  -0.000000
    8        9.606943  -0.000000
    9       11.438051   0.000000
   10       14.395047   0.000000

  0.2666667E+00  0.1333333E+00  0.1333333E+00  0.7111111E-02
    1       -3.512607   1.000000
    2        1.131096   1.000000
    3        2.860471   1.000000
    4        3.247076   1.000000
    5        5.304561   1.000000
    6        6.937362   1.000000
    7        9.126142  -0.000000
    8        9.901004  -0.000000
    9       11.814929   0.000000
   10       14.284442   0.000000

  0.3333333E+00  0.1333333E+00  0.1333333E+00  0.7111111E-02
    1       -2.730890   1.000000
    2        0.111369   1.000000
    3        2.629902   1.000000
    4        3.397612   1.000000
    5        4.952796   1.000000
    6        7.424720   1.000000
    7        9.030561  -0.000000
    8        9.982515  -0.000000
    9       12.142367   0.000000
   10       14.219365   0.000000

  0.4000000E+00  0.1333333E+00  0.1333333E+00  0.7111111E-02
    1       -1.852034   1.000000
    2       -0.895746   1.000000
    3        2.504149   1.000000
    4        3.509235   1.000000
    5        4.710872   1.000000
    6        7.706442   1.000006
    7        9.305395  -0.000000
    8        9.743969  -0.000000
    9       12.321250   0.000000
   10       14.192431   0.000000

  0.2000000E+00  0.2000000E+00  0.1333333E+00  0.3555556E-02
    1       -3.583144   1.000000
    2        1.543516   1.000000
    3        2.459530   1.000000
    4        3.256823   1.000000
    5        6.023310   1.000000
    6        6.079390   1.000000
    7        9.013537  -0.000000
    8        9.975763  -0.000000
    9       12.092934   0.000000
   10       14.313245   0.000000

  0.2666667E+00  0.2000000E+00  0.1333333E+00  0.7111111E-02
    1       -2.864218   1.000000
    2        0.758959   1.000000
    3        1.973045   1.000000
    4        3.443610   1.000000
    5        5.478021   1.000000
    6        6.702633   1.000000
    7        8.660371  -0.000000
    8       10.098975  -0.000000
    9       12.767371   0.000000
   10       14.384125   0.000000
