 running on    4 total cores
 distrk:  each k-point on    4 cores,    1 groups
 distr:  one band on    2 cores,    2 groups
 using from now: INCAR     
 vasp.5.4.4.18Apr17-6-g9f103f2a35 (build Dec  7 2020 12:43:57) complex           
 POSCAR found type information on POSCAR  Mo B 
 POSCAR found :  2 types and       3 ions
 scaLAPACK will be used
 LDA part: xc-table for Pade appr. of Perdew
 POSCAR, INCAR and KPOINTS ok, starting setup
 FFT: planning ...
 WAVECAR not read
 augmentation electrons   12.018373587906812     
 soft         electrons   0.0000000000000000     
 augmentation electrons   12.018373587906812     
 soft         electrons   0.0000000000000000     
 augmentation electrons   12.018373587906812     
 soft         electrons   0.0000000000000000     
 augmentation electrons   12.018373587906812     
 soft         electrons   0.0000000000000000     
 total        electrons   12.018373587906812     
 total        electrons   12.018373587906812     
 total        electrons   12.018373587906812     
 total        electrons   12.018373587906812     
 augmentation electrons   169.75791458332097     
 soft         electrons   0.0000000000000000     
 augmentation electrons   169.75791458332097     
 soft         electrons   0.0000000000000000     
 augmentation electrons   169.75791458332097     
 soft         electrons   0.0000000000000000     
 augmentation electrons   169.75791458332097     
 soft         electrons   0.0000000000000000     
 total        electrons   169.75791458332097     
 total        electrons   169.75791458332097     
 total        electrons   169.75791458332097     
 total        electrons   169.75791458332097     
 entering main loop
       N       E                     dE             d eps       ncg     rms          rms(c)
DAV:   1     0.360768888148E+02    0.36077E+02   -0.57109E+03  4320   0.105E+03
DAV:   2    -0.206131979684E+02   -0.56690E+02   -0.53773E+02  5160   0.219E+02
DAV:   3    -0.228085429276E+02   -0.21953E+01   -0.21003E+01  6078   0.379E+01
DAV:   4    -0.228357860132E+02   -0.27243E-01   -0.26647E-01  5544   0.318E+00
DAV:   5    -0.228361938946E+02   -0.40788E-03   -0.40736E-03  5636   0.294E-01    0.347E+01
RMM:   6    -0.186854605857E+02    0.41507E+01   -0.14145E+01  4336   0.241E+01    0.817E+00
RMM:   7    -0.187472465266E+02   -0.61786E-01   -0.53420E-01  4332   0.490E+00    0.496E+00
RMM:   8    -0.188401540223E+02   -0.92907E-01   -0.65172E-01  4320   0.982E+00    0.357E+00
RMM:   9    -0.187838950458E+02    0.56259E-01   -0.14403E-01  4320   0.277E+00    0.632E-01
RMM:  10    -0.187826637117E+02    0.12313E-02   -0.81419E-03  4357   0.942E-01    0.389E-01
RMM:  11    -0.187814199472E+02    0.12438E-02   -0.36207E-03  4320   0.570E-01    0.105E-01
RMM:  12    -0.187818124577E+02   -0.39251E-03   -0.11735E-03  4325   0.441E-01    0.288E-02
RMM:  13    -0.187818407528E+02   -0.28295E-04   -0.14445E-04  4348   0.908E-02    0.445E-02
RMM:  14    -0.187818212295E+02    0.19523E-04   -0.85604E-05  4319   0.741E-02    0.881E-03
RMM:  15    -0.187818197045E+02    0.15249E-05   -0.14998E-06  3009   0.125E-02    0.564E-03
RMM:  16    -0.187818191892E+02    0.51536E-06   -0.91770E-07  2731   0.904E-03
   1 F= -.18781819E+02 E0= -.18781491E+02  d E =-.187818E+02
 curvature:   0.00 expect dE= 0.000E+00 dE for cont linesearch  0.000E+00
 trial: gam= 0.00000 g(F)=  0.233E-43 g(S)=  0.102E+01 ort = 0.000E+00 (trialstep = 0.100E+01)
 search vector abs. value=  0.102E+01
 bond charge predicted
       N       E                     dE             d eps       ncg     rms          rms(c)
DAV:   1    -0.191978854267E+02   -0.41607E+00   -0.24988E+01  4364   0.478E+01    0.150E+01
RMM:   2    -0.186990597823E+02    0.49883E+00   -0.13511E+00  4320   0.802E+00    0.578E+00
RMM:   3    -0.186328156682E+02    0.66244E-01   -0.11322E-01  4320   0.264E+00    0.384E+00
RMM:   4    -0.186288351836E+02    0.39805E-02   -0.81097E-02  4320   0.236E+00    0.589E-01
RMM:   5    -0.186304780722E+02   -0.16429E-02   -0.93099E-03  4339   0.676E-01    0.199E-01
RMM:   6    -0.186295266807E+02    0.95139E-03   -0.40166E-03  4320   0.586E-01    0.583E-02
RMM:   7    -0.186296770435E+02   -0.15036E-03   -0.39503E-04  4341   0.162E-01    0.322E-02
RMM:   8    -0.186297019154E+02   -0.24872E-04   -0.65591E-05  4329   0.762E-02    0.193E-02
RMM:   9    -0.186297497466E+02   -0.47831E-04   -0.19860E-04  4320   0.178E-01    0.111E-02
RMM:  10    -0.186297482022E+02    0.15444E-05   -0.84897E-06  3732   0.189E-02    0.524E-03
RMM:  11    -0.186297472219E+02    0.98034E-06   -0.64335E-06  3989   0.261E-02
   2 F= -.18629747E+02 E0= -.18629656E+02  d E =0.152072E+00
 trial-energy change:    0.152072  1 .order    0.072944   -1.021121    1.167009
 step:   0.4140(harm=  0.4667)  dis= 0.00000  next Energy=   -18.987588 (dE=-0.206E+00)
 bond charge predicted
       N       E                     dE             d eps       ncg     rms          rms(c)
DAV:   1    -0.191612047616E+02   -0.53146E+00   -0.89067E+00  4350   0.301E+01    0.825E+00
RMM:   2    -0.189970281911E+02    0.16418E+00   -0.26546E-01  4320   0.389E+00    0.286E+00
RMM:   3    -0.189778500925E+02    0.19178E-01   -0.34971E-02  4320   0.145E+00    0.140E+00
RMM:   4    -0.189768395200E+02    0.10106E-02   -0.20235E-02  4320   0.121E+00    0.304E-01
RMM:   5    -0.189775969442E+02   -0.75742E-03   -0.16343E-03  4357   0.468E-01    0.690E-02
RMM:   6    -0.189775759087E+02    0.21035E-04   -0.13163E-03  4322   0.369E-01    0.723E-02
RMM:   7    -0.189775325005E+02    0.43408E-04   -0.15356E-04  4320   0.140E-01    0.241E-02
RMM:   8    -0.189775354069E+02   -0.29064E-05   -0.25857E-05  4311   0.433E-02    0.766E-03
RMM:   9    -0.189775403627E+02   -0.49559E-05   -0.11522E-05  4028   0.458E-02    0.211E-03
RMM:  10    -0.189775404427E+02   -0.79974E-07   -0.11774E-06  2898   0.877E-03
   3 F= -.18977540E+02 E0= -.18977308E+02  d E =-.195721E+00
 curvature:  -0.23 expect dE=-0.718E-02 dE for cont linesearch -0.158E-03
 ZBRENT: interpolating
 opt :   0.4036  next Energy=   -18.977679 (dE=-0.196E+00)
 bond charge predicted
       N       E                     dE             d eps       ncg     rms          rms(c)
DAV:   1    -0.189777552203E+02   -0.21486E-03   -0.28300E-03  4678   0.534E-01    0.168E-01
RMM:   2    -0.189777072056E+02    0.48015E-04   -0.89475E-05  4319   0.701E-02    0.633E-02
RMM:   3    -0.189777037223E+02    0.34833E-05   -0.11287E-05  4320   0.272E-02    0.329E-02
RMM:   4    -0.189777055255E+02   -0.18032E-05   -0.65820E-06  4270   0.229E-02    0.603E-03
RMM:   5    -0.189777058906E+02   -0.36508E-06   -0.44443E-07  2439   0.870E-03
   4 F= -.18977706E+02 E0= -.18977469E+02  d E =-.195887E+00
 curvature:  -0.20 expect dE=-0.585E-02 dE for cont linesearch -0.130E-05
 trial: gam= 0.03092 g(F)=  0.777E-44 g(S)=  0.290E-01 ort =-0.257E-02 (trialstep = 0.881E+00)
 search vector abs. value=  0.298E-01
 bond charge predicted
       N       E                     dE             d eps       ncg     rms          rms(c)
DAV:   1    -0.189993486520E+02   -0.21643E-01   -0.74049E-01  4368   0.726E+00    0.414E-01
RMM:   2    -0.189962128490E+02    0.31358E-02   -0.17474E-02  4326   0.118E+00    0.413E-01
RMM:   3    -0.189959459438E+02    0.26691E-03   -0.64666E-04  4357   0.182E-01    0.247E-01
RMM:   4    -0.189960435090E+02   -0.97565E-04   -0.48546E-04  4320   0.233E-01    0.477E-02
RMM:   5    -0.189961848349E+02   -0.14133E-03   -0.30910E-04  4320   0.181E-01    0.694E-02
RMM:   6    -0.189962194743E+02   -0.34639E-04   -0.70351E-05  4320   0.951E-02    0.233E-02
RMM:   7    -0.189962514776E+02   -0.32003E-04   -0.67939E-05  4322   0.113E-01    0.112E-02
RMM:   8    -0.189962518623E+02   -0.38466E-06   -0.11129E-05  4020   0.345E-02    0.506E-03
RMM:   9    -0.189962518475E+02    0.14802E-07   -0.57029E-07  2756   0.633E-03
   5 F= -.18996252E+02 E0= -.18996271E+02  d E =-.185460E-01
 trial-energy change:   -0.018546  1 .order   -0.018963   -0.025476   -0.012451
 step:   1.7226(harm=  1.7226)  dis= 0.00000  next Energy=   -19.002620 (dE=-0.249E-01)
 bond charge predicted
       N       E                     dE             d eps       ncg     rms          rms(c)
DAV:   1    -0.190054160708E+02   -0.91642E-02   -0.67943E-01  4382   0.692E+00    0.376E-01
RMM:   2    -0.190035440152E+02    0.18721E-02   -0.14507E-02  4325   0.109E+00    0.377E-01
RMM:   3    -0.190037237948E+02   -0.17978E-03   -0.57558E-04  4366   0.198E-01    0.233E-01
RMM:   4    -0.190045348686E+02   -0.81107E-03   -0.60520E-04  4320   0.318E-01    0.856E-02
RMM:   5    -0.190053036487E+02   -0.76878E-03   -0.11686E-03  4320   0.419E-01    0.106E-01
RMM:   6    -0.190055277874E+02   -0.22414E-03   -0.41545E-04  4322   0.249E-01    0.372E-02
RMM:   7    -0.190056706624E+02   -0.14287E-03   -0.52821E-04  4320   0.313E-01    0.147E-02
RMM:   8    -0.190056738639E+02   -0.32015E-05   -0.30620E-05  4248   0.483E-02    0.802E-03
RMM:   9    -0.190056739659E+02   -0.10197E-06   -0.25860E-06  3185   0.134E-02
   6 F= -.19005674E+02 E0= -.19005682E+02  d E =-.279681E-01
 curvature:  -0.89 expect dE=-0.569E-02 dE for cont linesearch -0.463E-02
 ZBRENT: increasing intervall
 opt :   3.4064  next Energy=   -19.023886 (dE=-0.462E-01)
 bond charge predicted
       N       E                     dE             d eps       ncg     rms          rms(c)
DAV:   1    -0.190144976953E+02   -0.88238E-02   -0.27451E+00  4352   0.138E+01    0.752E-01
RMM:   2    -0.190084301727E+02    0.60675E-02   -0.55102E-02  4326   0.215E+00    0.751E-01
RMM:   3    -0.190095487476E+02   -0.11186E-02   -0.23788E-03  4360   0.451E-01    0.462E-01
RMM:   4    -0.190141076456E+02   -0.45589E-02   -0.35210E-03  4320   0.776E-01    0.198E-01
RMM:   5    -0.190183324895E+02   -0.42248E-02   -0.58443E-03  4320   0.963E-01    0.208E-01
RMM:   6    -0.190210577547E+02   -0.27253E-02   -0.55018E-03  4320   0.101E+00    0.856E-02
RMM:   7    -0.190224182293E+02   -0.13605E-02   -0.11664E-02  4320   0.147E+00    0.358E-02
RMM:   8    -0.190224529246E+02   -0.34695E-04   -0.30173E-04  4317   0.104E-01    0.205E-02
RMM:   9    -0.190224462408E+02    0.66838E-05   -0.31989E-05  4311   0.456E-02    0.109E-02
RMM:  10    -0.190224469198E+02   -0.67905E-06   -0.48263E-06  3509   0.166E-02
   7 F= -.19022447E+02 E0= -.19022241E+02  d E =-.447410E-01
 curvature:  -3.49 expect dE=-0.970E-01 dE for cont linesearch -0.130E-01
 ZBRENT: increasing intervall
 opt :   6.7739  next Energy=   -19.051414 (dE=-0.737E-01)
 bond charge predicted
       N       E                     dE             d eps       ncg     rms          rms(c)
DAV:   1    -0.189769765853E+02    0.45470E-01   -0.10909E+01  4356   0.276E+01    0.168E+00
RMM:   2    -0.189551769954E+02    0.21800E-01   -0.21605E-01  4320   0.440E+00    0.151E+00
RMM:   3    -0.189654945342E+02   -0.10318E-01   -0.14118E-02  4360   0.124E+00    0.916E-01
RMM:   4    -0.189947402718E+02   -0.29246E-01   -0.19010E-02  4320   0.181E+00    0.578E-01
RMM:   5    -0.190273091576E+02   -0.32569E-01   -0.32166E-02  4320   0.237E+00    0.431E-01
RMM:   6    -0.190481046169E+02   -0.20795E-01   -0.83459E-02  4320   0.384E+00    0.267E-01
RMM:   7    -0.190450548262E+02    0.30498E-02   -0.14095E-02  4320   0.158E+00    0.241E-01
RMM:   8    -0.190480485290E+02   -0.29937E-02   -0.84686E-03  4320   0.123E+00    0.602E-02
RMM:   9    -0.190483613829E+02   -0.31285E-03   -0.19678E-03  4322   0.541E-01    0.153E-02
RMM:  10    -0.190483702580E+02   -0.88751E-05   -0.65905E-05  4007   0.367E-02    0.958E-03
RMM:  11    -0.190483745322E+02   -0.42741E-05   -0.79318E-06  3711   0.345E-02    0.436E-03
RMM:  12    -0.190483771231E+02   -0.25909E-05   -0.12178E-05  3876   0.445E-02    0.101E-03
RMM:  13    -0.190483771806E+02   -0.57534E-07   -0.59709E-07  2586   0.642E-03
   8 F= -.19048377E+02 E0= -.19048228E+02  d E =-.706713E-01
 curvature:  -7.78 expect dE=-0.265E+01 dE for cont linesearch -0.307E+00
 ZBRENT: bracketing found
 ZBRENT: interpolating
 opt :   4.1976  next Energy=   -19.026616 (dE=-0.489E-01)
 bond charge predicted
       N       E                     dE             d eps       ncg     rms          rms(c)
DAV:   1    -0.190709443449E+02   -0.22567E-01   -0.66851E+00  4364   0.219E+01    0.139E+00
RMM:   2    -0.190446983619E+02    0.26246E-01   -0.13514E-01  4322   0.338E+00    0.121E+00
RMM:   3    -0.190411862610E+02    0.35121E-02   -0.83598E-03  4338   0.687E-01    0.684E-01
RMM:   4    -0.190401470235E+02    0.10392E-02   -0.62062E-03  4328   0.769E-01    0.103E-01
RMM:   5    -0.190402503071E+02   -0.10328E-03   -0.41971E-04  4325   0.175E-01    0.584E-02
RMM:   6    -0.190402960375E+02   -0.45730E-04   -0.99072E-05  4320   0.118E-01    0.249E-02
RMM:   7    -0.190403330390E+02   -0.37002E-04   -0.46270E-05  4315   0.911E-02    0.165E-02
RMM:   8    -0.190403503432E+02   -0.17304E-04   -0.25434E-05  4159   0.674E-02    0.154E-02
RMM:   9    -0.190403611837E+02   -0.10841E-04   -0.44326E-05  4314   0.883E-02    0.381E-03
RMM:  10    -0.190403632979E+02   -0.21141E-05   -0.95398E-06  3739   0.372E-02    0.282E-03
RMM:  11    -0.190403635270E+02   -0.22910E-06   -0.28172E-06  3028   0.206E-02
   9 F= -.19040364E+02 E0= -.19040411E+02  d E =-.626576E-01
 curvature:  -0.11 expect dE=-0.244E-01 dE for cont linesearch -0.832E-02
 ZBRENT: interpolating
 opt :   5.7062  next Energy=   -19.066698 (dE=-0.890E-01)
 bond charge predicted
       N       E                     dE             d eps       ncg     rms          rms(c)
DAV:   1    -0.190822828795E+02   -0.41920E-01   -0.22893E+00  4352   0.126E+01    0.779E-01
RMM:   2    -0.190739350956E+02    0.83478E-02   -0.42915E-02  4320   0.188E+00    0.731E-01
RMM:   3    -0.190725214797E+02    0.14136E-02   -0.28017E-03  4330   0.411E-01    0.416E-01
RMM:   4    -0.190721050777E+02    0.41640E-03   -0.23317E-03  4326   0.463E-01    0.609E-02
RMM:   5    -0.190721325540E+02   -0.27476E-04   -0.12357E-04  4322   0.931E-02    0.334E-02
RMM:   6    -0.190721489890E+02   -0.16435E-04   -0.29714E-05  4321   0.679E-02    0.129E-02
RMM:   7    -0.190721542276E+02   -0.52385E-05   -0.88128E-06  4095   0.358E-02    0.641E-03
RMM:   8    -0.190721564283E+02   -0.22007E-05   -0.46511E-06  3384   0.284E-02    0.615E-03
RMM:   9    -0.190721566724E+02   -0.24408E-06   -0.15645E-06  2828   0.151E-02
  10 F= -.19072157E+02 E0= -.19072046E+02  d E =-.944508E-01
 curvature:  -0.23 expect dE=-0.516E-01 dE for cont linesearch -0.373E-04
 trial: gam= 8.07443 g(F)=  0.306E-43 g(S)=  0.222E+00 ort = 0.219E-02 (trialstep = 0.250E-01)
 search vector abs. value=  0.220E+01
 bond charge predicted
       N       E                     dE             d eps       ncg     rms          rms(c)
DAV:   1    -0.190774526560E+02   -0.52962E-02   -0.49083E-02  4462   0.187E+00    0.256E-01
RMM:   2    -0.190773472885E+02    0.10537E-03   -0.54011E-04  4320   0.229E-01    0.172E-01
RMM:   3    -0.190773009090E+02    0.46380E-04   -0.15781E-04  4326   0.114E-01    0.197E-02
RMM:   4    -0.190773028468E+02   -0.19378E-05   -0.12277E-05  4235   0.275E-02    0.115E-02
RMM:   5    -0.190773060121E+02   -0.31652E-05   -0.49593E-06  3662   0.287E-02    0.564E-03
RMM:   6    -0.190773066119E+02   -0.59985E-06   -0.49827E-07  2549   0.927E-03
  11 F= -.19077307E+02 E0= -.19077133E+02  d E =-.514994E-02
 trial-energy change:   -0.005150  1 .order   -0.005174   -0.005988   -0.004361
 step:   0.0920(harm=  0.0920)  dis= 0.00000  next Energy=   -19.083173 (dE=-0.110E-01)
 bond charge predicted
       N       E                     dE             d eps       ncg     rms          rms(c)
DAV:   1    -0.190842489497E+02   -0.69429E-02   -0.34799E-01  4408   0.498E+00    0.668E-01
RMM:   2    -0.190834959776E+02    0.75297E-03   -0.38031E-03  4320   0.613E-01    0.444E-01
RMM:   3    -0.190832056847E+02    0.29029E-03   -0.12247E-03  4326   0.327E-01    0.508E-02
RMM:   4    -0.190832343606E+02   -0.28676E-04   -0.92312E-05  4322   0.797E-02    0.345E-02
RMM:   5    -0.190832810616E+02   -0.46701E-04   -0.59863E-05  4318   0.103E-01    0.177E-02
RMM:   6    -0.190832922812E+02   -0.11220E-04   -0.96018E-06  3935   0.398E-02    0.126E-02
RMM:   7    -0.190833074906E+02   -0.15209E-04   -0.52066E-05  4211   0.100E-01    0.237E-03
RMM:   8    -0.190833074512E+02    0.39375E-07   -0.99282E-07  2746   0.589E-03
  12 F= -.19083307E+02 E0= -.19083125E+02  d E =-.111508E-01
 curvature:  -0.42 expect dE=-0.756E-01 dE for cont linesearch -0.332E-04
 trial: gam=-0.04372 g(F)=  0.169E-43 g(S)=  0.179E+00 ort = 0.132E-01 (trialstep = 0.384E-01)
 search vector abs. value=  0.182E+00
 bond charge predicted
       N       E                     dE             d eps       ncg     rms          rms(c)
DAV:   1    -0.190899926484E+02   -0.66852E-02   -0.74120E-03  4460   0.850E-01    0.209E-01
RMM:   2    -0.190898516797E+02    0.14097E-03   -0.27396E-04  4320   0.128E-01    0.653E-02
RMM:   3    -0.190898355605E+02    0.16119E-04   -0.28488E-05  4326   0.409E-02    0.393E-02
RMM:   4    -0.190898332257E+02    0.23348E-05   -0.17267E-05  4319   0.360E-02    0.723E-03
RMM:   5    -0.190898342521E+02   -0.10264E-05   -0.20219E-06  2870   0.205E-02    0.313E-03
RMM:   6    -0.190898348480E+02   -0.59592E-06   -0.10258E-06  2523   0.112E-02
  13 F= -.19089835E+02 E0= -.19089653E+02  d E =-.652740E-02
 ZBRENT: can't locate minimum, use default step
 trial-energy change:   -0.006527  1 .order   -0.006539   -0.006843   -0.006236
 step:   0.1536(harm=  0.4325)  dis= 0.00000  next Energy=   -19.121845 (dE=-0.385E-01)
 bond charge predicted
       N       E                     dE             d eps       ncg     rms          rms(c)
DAV:   1    -0.191071390850E+02   -0.17305E-01   -0.66245E-02  4320   0.254E+00    0.617E-01
RMM:   2    -0.191058754043E+02    0.12637E-02   -0.25186E-03  4320   0.388E-01    0.191E-01
RMM:   3    -0.191057456826E+02    0.12972E-03   -0.25572E-04  4326   0.122E-01    0.116E-01
RMM:   4    -0.191057413963E+02    0.42862E-05   -0.15800E-04  4320   0.109E-01    0.216E-02
RMM:   5    -0.191057562085E+02   -0.14812E-04   -0.20232E-05  4308   0.623E-02    0.104E-02
RMM:   6    -0.191057605383E+02   -0.43297E-05   -0.10315E-05  4032   0.346E-02    0.828E-03
RMM:   7    -0.191057628646E+02   -0.23264E-05   -0.53302E-06  3649   0.273E-02    0.715E-03
RMM:   8    -0.191057631595E+02   -0.29490E-06   -0.22383E-06  2829   0.173E-02
  14 F= -.19105763E+02 E0= -.19105580E+02  d E =-.224557E-01
 curvature:  -0.11 expect dE=-0.834E-02 dE for cont linesearch -0.810E-02
 ZBRENT: increasing intervall
 opt :   0.3840  next Energy=   -19.121644 (dE=-0.383E-01)
 bond charge predicted
       N       E                     dE             d eps       ncg     rms          rms(c)
DAV:   1    -0.191273688982E+02   -0.21606E-01   -0.26319E-01  4320   0.503E+00    0.120E+00
RMM:   2    -0.191222530178E+02    0.51159E-02   -0.10499E-02  4320   0.789E-01    0.367E-01
RMM:   3    -0.191217448083E+02    0.50821E-03   -0.10209E-03  4328   0.241E-01    0.225E-01
RMM:   4    -0.191217415225E+02    0.32858E-05   -0.65083E-04  4320   0.220E-01    0.418E-02
RMM:   5    -0.191218052285E+02   -0.63706E-04   -0.79959E-05  4327   0.122E-01    0.211E-02
RMM:   6    -0.191218231682E+02   -0.17940E-04   -0.50090E-05  4319   0.750E-02    0.173E-02
RMM:   7    -0.191218303139E+02   -0.71457E-05   -0.21670E-05  4302   0.526E-02    0.130E-02
RMM:   8    -0.191218322562E+02   -0.19423E-05   -0.98038E-06  3859   0.363E-02    0.288E-03
RMM:   9    -0.191218328976E+02   -0.64136E-06   -0.34781E-06  3100   0.228E-02
  15 F= -.19121833E+02 E0= -.19121636E+02  d E =-.385254E-01
 curvature:  -0.22 expect dE=-0.903E-03 dE for cont linesearch -0.822E-03
 ZBRENT: extrapolating
 opt :   0.4519  next Energy=   -19.122725 (dE=-0.394E-01)
 bond charge predicted
       N       E                     dE             d eps       ncg     rms          rms(c)
DAV:   1    -0.191232219317E+02   -0.13897E-02   -0.22754E-02  4336   0.148E+00    0.344E-01
RMM:   2    -0.191227752281E+02    0.44670E-03   -0.90169E-04  4320   0.233E-01    0.104E-01
RMM:   3    -0.191227292282E+02    0.46000E-04   -0.88475E-05  4329   0.713E-02    0.626E-02
RMM:   4    -0.191227263347E+02    0.28934E-05   -0.57010E-05  4320   0.656E-02    0.119E-02
RMM:   5    -0.191227313576E+02   -0.50228E-05   -0.74891E-06  4183   0.372E-02    0.629E-03
RMM:   6    -0.191227333444E+02   -0.19869E-05   -0.46581E-06  3443   0.239E-02    0.511E-03
RMM:   7    -0.191227342919E+02   -0.94750E-06   -0.24526E-06  3066   0.184E-02
  16 F= -.19122734E+02 E0= -.19122540E+02  d E =-.394268E-01
 curvature:  -0.23 expect dE=-0.295E-04 dE for cont linesearch -0.770E-06
 ZBRENT: extrapolating
 opt :   0.4540  next Energy=   -19.122735 (dE=-0.394E-01)
 bond charge predicted
       N       E                     dE             d eps       ncg     rms          rms(c)
DAV:   1    -0.191227361065E+02   -0.27621E-05   -0.26181E-05  4914   0.481E-02    0.112E-02
RMM:   2    -0.191227355614E+02    0.54508E-06   -0.99022E-07  2389   0.917E-03    0.278E-03
RMM:   3    -0.191227354342E+02    0.12721E-06   -0.16488E-07  2171   0.433E-03    0.223E-03
RMM:   4    -0.191227353449E+02    0.89304E-07   -0.16492E-07  2155   0.437E-03    0.780E-04
RMM:   5    -0.191227353656E+02   -0.20714E-07   -0.19710E-08  1184   0.185E-03
  17 F= -.19122735E+02 E0= -.19122542E+02  d E =-.394279E-01
 curvature:  -0.24 expect dE=-0.291E-04 dE for cont linesearch -0.102E-06
 ZBRENT: extrapolating
 opt :   0.4551  next Energy=   -19.122736 (dE=-0.394E-01)
 bond charge predicted
       N       E                     dE             d eps       ncg     rms          rms(c)
DAV:   1    -0.191227356252E+02   -0.28026E-06   -0.70492E-06  4344   0.258E-02    0.604E-03
RMM:   2    -0.191227354302E+02    0.19494E-06   -0.26069E-07  2122   0.433E-03    0.161E-03
RMM:   3    -0.191227353499E+02    0.80343E-07   -0.29400E-08  1532   0.214E-03    0.122E-03
RMM:   4    -0.191227352714E+02    0.78493E-07   -0.64662E-08  1429   0.243E-03    0.322E-04
RMM:   5    -0.191227352841E+02   -0.12766E-07   -0.12266E-11   153   0.907E-04
  18 F= -.19122735E+02 E0= -.19122542E+02  d E =-.394278E-01
 curvature:  -0.38 expect dE=-0.448E-04 dE for cont linesearch -0.377E-07
 ZBRENT: bracketing found
 ZBRENT: interpolating
 opt :   0.4547  next Energy=   -19.122735 (dE=-0.394E-01)
 bond charge predicted
       N       E                     dE             d eps       ncg     rms          rms(c)
DAV:   1    -0.191227353048E+02   -0.33426E-07   -0.70145E-07  2178   0.849E-03    0.214E-03
RMM:   2    -0.191227353177E+02   -0.12879E-07   -0.43344E-08  1782   0.277E-03    0.501E-04
RMM:   3    -0.191227353418E+02   -0.24083E-07    0.31324-309   172   0.768E-04    0.311E-04
RMM:   4    -0.191227353726E+02   -0.30856E-07    0.14320-261    35   0.898E-04    0.328E-05
RMM:   5    -0.191227353758E+02   -0.31572E-08    0.00000E+00    23   0.910E-04
  19 F= -.19122735E+02 E0= -.19122542E+02  d E =-.394279E-01
 curvature:  -0.26 expect dE=-0.307E-04 dE for cont linesearch -0.147E-09
 trial: gam=-0.00331 g(F)=  0.175E-42 g(S)=  0.119E-03 ort = 0.102E-04 (trialstep = 0.122E+00)
 search vector abs. value=  0.121E-03
 bond charge predicted
       N       E                     dE             d eps       ncg     rms          rms(c)
DAV:   1    -0.191227491195E+02   -0.13747E-04   -0.64973E-05  4422   0.680E-02    0.875E-03
RMM:   2    -0.191227488897E+02    0.22990E-06   -0.65249E-07  2471   0.828E-03    0.564E-03
RMM:   3    -0.191227487497E+02    0.13995E-06   -0.25455E-07  2173   0.462E-03    0.579E-04
RMM:   4    -0.191227487409E+02    0.87709E-08   -0.23122E-08   784   0.146E-03    0.327E-04
RMM:   5    -0.191227487413E+02   -0.35197E-09   -0.11529E-08   741   0.161E-03
  20 F= -.19122749E+02 E0= -.19122557E+02  d E =-.133655E-04
 ZBRENT: can't locate minimum, use default step
 trial-energy change:   -0.000013  1 .order   -0.000013   -0.000014   -0.000013
 step:   0.4867(harm=  0.9258)  dis= 0.00000  next Energy=   -19.122790 (dE=-0.550E-04)
 bond charge predicted
       N       E                     dE             d eps       ncg     rms          rms(c)
DAV:   1    -0.191227798060E+02   -0.31065E-04   -0.58250E-04  4428   0.203E-01    0.260E-02
RMM:   2    -0.191227782989E+02    0.15072E-05   -0.63338E-06  3696   0.249E-02    0.168E-02
RMM:   3    -0.191227775290E+02    0.76990E-06   -0.22467E-06  2713   0.139E-02    0.184E-03
RMM:   4    -0.191227775267E+02    0.22187E-08   -0.18250E-07  2319   0.390E-03    0.113E-03
RMM:   5    -0.191227775574E+02   -0.30638E-07   -0.48927E-08  1729   0.240E-03
  21 F= -.19122778E+02 E0= -.19122589E+02  d E =-.421816E-04
 curvature:  -0.33 expect dE=-0.869E-05 dE for cont linesearch -0.861E-05
 trial: gam=-0.24890 g(F)=  0.432E-43 g(S)=  0.263E-04 ort = 0.561E-04 (trialstep = 0.195E+00)
 search vector abs. value=  0.587E-05
 reached required accuracy - stopping structural energy minimisation
 writing wavefunctions
 augmentation electrons   1.1624213971035542     
 soft         electrons   10.862128109275346     
 augmentation electrons   1.1624213971035542     
 soft         electrons   10.862128109275346     
 augmentation electrons   1.1624213971035542     
 soft         electrons   10.862128109275346     
 augmentation electrons   1.1624213971035542     
 soft         electrons   10.862128109275346     
 total        electrons   12.024549506378900     
 total        electrons   12.024549506378900     
 total        electrons   12.024549506378900     
 total        electrons   12.024549506378900     
