   74   74   85    1
  0.2110353E+02  0.1053953E-08  0.6141200E-09  0.2412750E-08  0.5000000E-15
   1.0000000000000000E-004
  CAR 
 Name                                    
    284     23    184

  0.3742002E-15  0.3742002E-15  0.1262379E-14  0.2222222E-01
    1      -13.976824   1.000000
    2      -12.848826   1.000000
    3      -12.792854   1.000000
    4      -12.746175   1.000000
    5      -11.805719   1.000000
    6      -11.688134   1.000000
    7      -11.644466   1.000000
    8      -11.588230   1.000000
    9      -11.419097   1.000000
   10      -11.262995   1.000000
   11      -11.193374   1.000000
   12      -11.085400   1.000000
   13      -11.049094   1.000000
   14      -10.733833   1.000000
   15      -10.510870   1.000000
   16      -10.309418   1.000000
   17      -10.169683   1.000000
   18      -10.153185   1.000000
   19       -9.871248   1.000000
   20       -9.698770   1.000000
   21       -9.664994   1.000000
   22       -9.585702   1.000000
   23       -9.446611   1.000000
   24       -9.416354   1.000000
   25       -8.908875   1.000000
   26       -8.891013   1.000000
   27       -8.683019   1.000000
   28       -8.501239   1.000000
   29       -8.457787   1.000000
   30       -8.284387   1.000000
   31       -8.203341   1.000000
   32       -7.931490   1.000000
   33       -7.751638   1.000000
   34       -7.479967   1.000000
   35       -7.320200   1.000000
   36       -7.271255   1.000000
   37       -7.110198   1.000000
   38       -7.031486   1.000000
   39       -6.975926   1.000000
   40       -6.969976   1.000000
   41       -6.799492   1.000000
   42       -6.779909   1.000000
   43       -6.657753   1.000000
   44       -6.615779   1.000000
   45       -6.523098   1.000000
   46       -6.468699   1.000000
   47       -6.402621   1.000000
   48       -6.284256   1.000000
   49       -6.226287   1.000000
   50       -6.130176   1.000000
   51       -5.895907   1.000000
   52       -5.860866   1.000000
   53       -5.815371   1.000000
   54       -5.775261   1.000000
   55       -5.659376   1.000000
   56       -5.593334   1.000000
   57       -5.580155   1.000000
   58       -5.407085   1.000000
   59       -5.398062   1.000000
   60       -5.378406   1.000000
   61       -5.257347   1.000000
   62       -5.246831   1.000000
   63       -5.011179   1.000000
   64       -4.900526   1.000000
   65       -4.770402   1.000000
   66       -4.724589   1.000000
   67       -4.723303   1.000000
   68       -4.678048   1.000000
   69       -4.554397   1.000000
   70       -4.497190   1.000000
   71       -4.427215   1.000000
   72       -4.389548   1.000000
   73       -4.273002   1.000000
   74       -4.248318   1.000000
   75       -4.215238   1.000000
   76       -4.201105   1.000000
   77       -4.168326   1.000000
   78       -4.095005   1.000000
   79       -3.995551   1.000000
   80       -3.991246   1.000000
   81       -3.966629   1.000000
   82       -3.936283   1.000000
   83       -3.907133   1.000000
   84       -3.894190   1.000000
   85       -3.829023   1.000000
   86       -3.808369   1.000000
   87       -3.710220   1.000000
   88       -3.664585   1.000000
   89       -3.635682   1.000000
   90       -3.574627   1.000000
   91       -3.545649   1.000000
   92       -3.535935   1.000000
   93       -3.372447   1.000000
   94       -3.275357   1.000000
   95       -3.179617   1.000000
   96       -3.142567   1.000000
   97       -2.999286   1.000000
   98       -2.927227   1.000000
   99       -2.851923   1.000000
  100       -2.793476   1.000000
  101       -2.705002   1.000000
  102       -2.599690   1.000000
  103       -2.577837   1.000000
  104       -2.427499   1.000000
  105       -2.413134   1.000000
  106       -2.399802   1.000000
  107       -2.342264   1.000000
  108       -2.226201   1.000000
  109       -2.153096   1.000000
  110       -2.123487   1.000000
  111       -2.013738   1.000000
  112       -1.946280   1.000000
  113       -1.939580   1.000000
  114       -1.878339   1.000000
  115       -1.845637   1.000000
  116       -1.830168   1.000000
  117       -1.791220   1.000000
  118       -1.748334   1.000000
  119       -1.687017   1.000000
  120       -1.678417   1.000000
  121       -1.388211   1.000000
  122       -1.055755   1.000000
  123       -1.050779   1.000000
  124       -1.042476   1.000000
  125       -0.822267   1.000000
  126       -0.815549   1.000000
  127       -0.738545   1.000000
  128       -0.564721   1.000000
  129       -0.457692   1.000000
  130       -0.392180   1.000000
  131       -0.250568   1.000000
  132       -0.218047   1.000000
  133       -0.151313   1.000000
  134       -0.063667   1.000000
  135        0.156698   1.000367
  136        0.167307   1.000617
  137        0.234259   1.008894
  138        0.270198   1.022736
  139        0.279740   1.027125
  140        0.307727   1.035450
  141        0.380723   0.871138
  142        0.404740   0.713306
  143        0.482652   0.120500
  144        0.514783   0.000703
  145        0.551085  -0.035374
  146        0.591496  -0.022797
  147        0.611399  -0.014246
  148        0.672767  -0.001653
  149        0.752168  -0.000027
  150        0.773535  -0.000007
  151        0.962372  -0.000000
  152        1.059745  -0.000000
  153        1.081778  -0.000000
  154        1.122030  -0.000000
  155        1.167530  -0.000000
  156        1.221404  -0.000000
  157        1.283471  -0.000000
  158        1.285802  -0.000000
  159        1.324729  -0.000000
  160        1.371450  -0.000000
  161        1.382077  -0.000000
  162        1.403435  -0.000000
  163        1.471523  -0.000000
  164        1.548228  -0.000000
  165        1.566097  -0.000000
  166        1.619377  -0.000000
  167        1.655034  -0.000000
  168        1.696058  -0.000000
  169        1.714967  -0.000000
  170        1.724768  -0.000000
  171        1.733584  -0.000000
  172        1.744570  -0.000000
  173        1.748011  -0.000000
  174        1.809132  -0.000000
  175        1.853522  -0.000000
  176        1.874993  -0.000000
  177        1.935854  -0.000000
  178        2.038646  -0.000000
  179        2.193896  -0.000000
  180        2.312628  -0.000000
  181        2.355097  -0.000000
  182        2.440874  -0.000000
  183        2.501004  -0.000000
  184        2.590685  -0.000000

  0.2000000E+00  0.3742002E-15  0.1262379E-14  0.4444444E-01
    1      -13.928361   1.000000
    2      -13.222843   1.000000
    3      -12.711542   1.000000
    4      -12.336954   1.000000
    5      -12.048207   1.000000
    6      -11.795497   1.000000
    7      -11.640059   1.000000
    8      -11.347470   1.000000
    9      -11.260766   1.000000
   10      -11.231924   1.000000
   11      -11.137571   1.000000
   12      -11.125218   1.000000
   13      -10.969414   1.000000
   14      -10.800239   1.000000
   15      -10.608223   1.000000
   16      -10.565085   1.000000
   17      -10.563887   1.000000
   18       -9.883334   1.000000
   19       -9.848653   1.000000
   20       -9.679575   1.000000
   21       -9.559340   1.000000
   22       -9.526702   1.000000
   23       -9.452109   1.000000
   24       -9.421784   1.000000
   25       -9.128541   1.000000
   26       -8.879724   1.000000
   27       -8.434969   1.000000
   28       -8.386902   1.000000
   29       -8.292842   1.000000
   30       -8.203176   1.000000
   31       -8.162739   1.000000
   32       -8.131025   1.000000
   33       -7.656235   1.000000
   34       -7.533598   1.000000
   35       -7.508480   1.000000
   36       -7.350865   1.000000
   37       -7.230995   1.000000
   38       -7.149314   1.000000
   39       -7.074697   1.000000
   40       -6.988752   1.000000
   41       -6.867036   1.000000
   42       -6.725685   1.000000
   43       -6.712577   1.000000
   44       -6.577472   1.000000
   45       -6.571385   1.000000
   46       -6.390982   1.000000
   47       -6.238252   1.000000
   48       -6.231233   1.000000
   49       -6.118768   1.000000
   50       -6.067411   1.000000
   51       -5.979835   1.000000
   52       -5.934505   1.000000
   53       -5.721606   1.000000
   54       -5.693047   1.000000
   55       -5.638487   1.000000
   56       -5.567108   1.000000
   57       -5.488068   1.000000
   58       -5.457212   1.000000
   59       -5.403213   1.000000
   60       -5.296231   1.000000
   61       -5.259567   1.000000
   62       -5.239280   1.000000
   63       -5.135719   1.000000
   64       -4.911475   1.000000
   65       -4.820866   1.000000
   66       -4.783574   1.000000
   67       -4.743710   1.000000
   68       -4.642817   1.000000
   69       -4.571589   1.000000
   70       -4.536202   1.000000
   71       -4.380535   1.000000
   72       -4.353729   1.000000
   73       -4.246480   1.000000
   74       -4.243119   1.000000
   75       -4.228711   1.000000
   76       -4.203566   1.000000
   77       -4.115184   1.000000
   78       -4.080677   1.000000
   79       -3.995162   1.000000
   80       -3.983668   1.000000
   81       -3.969383   1.000000
   82       -3.955835   1.000000
   83       -3.948616   1.000000
   84       -3.929702   1.000000
   85       -3.776215   1.000000
   86       -3.738588   1.000000
   87       -3.684036   1.000000
   88       -3.628626   1.000000
   89       -3.622289   1.000000
   90       -3.583662   1.000000
   91       -3.566247   1.000000
   92       -3.555735   1.000000
   93       -3.537911   1.000000
   94       -3.251331   1.000000
   95       -3.221087   1.000000
   96       -3.208774   1.000000
   97       -3.004050   1.000000
   98       -2.980327   1.000000
   99       -2.908955   1.000000
  100       -2.805058   1.000000
  101       -2.782038   1.000000
  102       -2.748222   1.000000
  103       -2.412006   1.000000
  104       -2.361794   1.000000
  105       -2.336940   1.000000
  106       -2.301102   1.000000
  107       -2.265146   1.000000
  108       -2.228641   1.000000
  109       -2.186891   1.000000
  110       -2.060217   1.000000
  111       -2.016282   1.000000
  112       -1.999783   1.000000
  113       -1.942027   1.000000
  114       -1.826768   1.000000
  115       -1.779822   1.000000
  116       -1.764271   1.000000
  117       -1.755984   1.000000
  118       -1.713727   1.000000
  119       -1.641129   1.000000
  120       -1.553350   1.000000
  121       -1.347176   1.000000
  122       -1.150441   1.000000
  123       -1.081463   1.000000
  124       -1.061309   1.000000
  125       -0.936454   1.000000
  126       -0.823354   1.000000
  127       -0.817964   1.000000
  128       -0.594628   1.000000
  129       -0.582447   1.000000
  130       -0.474689   1.000000
  131       -0.420590   1.000000
  132       -0.328294   1.000000
  133       -0.222768   1.000000
  134       -0.136626   1.000000
  135        0.009865   1.000000
  136        0.087700   1.000007
  137        0.249897   1.014044
  138        0.262181   1.019103
  139        0.333908   1.021733
  140        0.377988   0.885739
  141        0.465795   0.223773
  142        0.502129   0.035952
  143        0.526979  -0.020548
  144        0.566530  -0.033247
  145        0.589589  -0.023678
  146        0.616051  -0.012536
  147        0.652602  -0.003731
  148        0.669898  -0.001867
  149        0.709321  -0.000297
  150        0.803196  -0.000001
  151        1.026948  -0.000000
  152        1.087024  -0.000000
  153        1.122327  -0.000000
  154        1.209834  -0.000000
  155        1.229832  -0.000000
  156        1.239261  -0.000000
  157        1.252121  -0.000000
  158        1.287452  -0.000000
  159        1.370121  -0.000000
  160        1.424343  -0.000000
  161        1.436641  -0.000000
  162        1.470711  -0.000000
  163        1.503805  -0.000000
  164        1.537280  -0.000000
  165        1.560389  -0.000000
  166        1.589505  -0.000000
  167        1.632972  -0.000000
  168        1.657071  -0.000000
  169        1.700926  -0.000000
  170        1.748996  -0.000000
  171        1.781560  -0.000000
  172        1.789291  -0.000000
  173        1.822863  -0.000000
  174        1.850196  -0.000000
  175        1.886748  -0.000000
  176        1.910483  -0.000000
  177        1.987552  -0.000000
  178        2.066549  -0.000000
  179        2.097767  -0.000000
  180        2.152274  -0.000000
  181        2.219184  -0.000000
  182        2.304295  -0.000000
  183        2.477566  -0.000000
  184        2.557408  -0.000000

  0.4000000E+00  0.3742002E-15  0.1262379E-14  0.4444444E-01
    1      -13.784200   1.000000
    2      -13.546656   1.000000
    3      -12.580105   1.000000
    4      -12.350025   1.000000
    5      -11.798444   1.000000
    6      -11.764597   1.000000
    7      -11.710931   1.000000
    8      -11.264863   1.000000
    9      -11.252722   1.000000
   10      -11.212835   1.000000
   11      -11.096363   1.000000
   12      -11.064618   1.000000
   13      -10.951815   1.000000
   14      -10.841879   1.000000
   15      -10.830375   1.000000
   16      -10.690889   1.000000
   17      -10.674214   1.000000
   18      -10.113466   1.000000
   19       -9.892170   1.000000
   20       -9.659565   1.000000
   21       -9.524574   1.000000
   22       -9.496961   1.000000
   23       -9.419062   1.000000
   24       -9.282356   1.000000
   25       -9.081398   1.000000
   26       -8.833621   1.000000
   27       -8.397096   1.000000
   28       -8.277198   1.000000
   29       -8.057806   1.000000
   30       -8.013442   1.000000
   31       -7.948202   1.000000
   32       -7.904679   1.000000
   33       -7.866418   1.000000
   34       -7.761130   1.000000
   35       -7.654324   1.000000
   36       -7.635263   1.000000
   37       -7.533874   1.000000
   38       -7.352024   1.000000
   39       -7.234957   1.000000
   40       -7.032758   1.000000
   41       -6.790893   1.000000
   42       -6.749594   1.000000
   43       -6.580853   1.000000
   44       -6.512745   1.000000
   45       -6.412190   1.000000
   46       -6.370203   1.000000
   47       -6.222241   1.000000
   48       -6.145962   1.000000
   49       -6.088663   1.000000
   50       -6.020490   1.000000
   51       -5.992140   1.000000
   52       -5.904264   1.000000
   53       -5.791601   1.000000
   54       -5.720622   1.000000
   55       -5.635393   1.000000
   56       -5.564699   1.000000
   57       -5.440544   1.000000
   58       -5.422638   1.000000
   59       -5.376368   1.000000
   60       -5.274475   1.000000
   61       -5.187814   1.000000
   62       -5.095129   1.000000
   63       -5.047990   1.000000
   64       -4.945955   1.000000
   65       -4.846491   1.000000
   66       -4.791282   1.000000
   67       -4.729415   1.000000
   68       -4.680411   1.000000
   69       -4.646586   1.000000
   70       -4.583860   1.000000
   71       -4.465079   1.000000
   72       -4.399066   1.000000
   73       -4.289835   1.000000
   74       -4.223833   1.000000
   75       -4.217204   1.000000
   76       -4.196040   1.000000
   77       -4.157291   1.000000
   78       -4.146221   1.000000
   79       -3.979597   1.000000
   80       -3.953324   1.000000
   81       -3.900540   1.000000
   82       -3.894236   1.000000
   83       -3.878838   1.000000
   84       -3.852564   1.000000
   85       -3.807000   1.000000
   86       -3.776936   1.000000
   87       -3.701357   1.000000
   88       -3.661949   1.000000
   89       -3.643230   1.000000
   90       -3.591430   1.000000
   91       -3.485505   1.000000
   92       -3.481853   1.000000
   93       -3.442147   1.000000
   94       -3.360123   1.000000
   95       -3.312376   1.000000
   96       -3.239364   1.000000
   97       -3.227269   1.000000
   98       -3.130624   1.000000
   99       -3.032722   1.000000
  100       -2.926470   1.000000
  101       -2.802068   1.000000
  102       -2.542274   1.000000
  103       -2.414399   1.000000
  104       -2.400670   1.000000
  105       -2.397235   1.000000
  106       -2.268372   1.000000
  107       -2.099855   1.000000
  108       -2.069864   1.000000
  109       -2.057363   1.000000
  110       -2.052882   1.000000
  111       -1.945093   1.000000
  112       -1.942385   1.000000
  113       -1.874206   1.000000
  114       -1.807604   1.000000
  115       -1.754489   1.000000
  116       -1.671306   1.000000
  117       -1.643612   1.000000
  118       -1.497507   1.000000
  119       -1.478484   1.000000
  120       -1.426680   1.000000
  121       -1.272146   1.000000
  122       -1.227815   1.000000
  123       -1.190386   1.000000
  124       -1.185896   1.000000
  125       -1.155132   1.000000
  126       -0.958426   1.000000
  127       -0.911831   1.000000
  128       -0.884200   1.000000
  129       -0.721748   1.000000
  130       -0.679676   1.000000
  131       -0.587309   1.000000
  132       -0.465577   1.000000
  133       -0.238253   1.000000
  134       -0.196915   1.000000
  135       -0.054515   1.000000
  136        0.169254   1.000677
  137        0.231701   1.008200
  138        0.247062   1.012996
  139        0.273088   1.024072
  140        0.358450   0.968180
  141        0.395553   0.779512
  142        0.458445   0.276512
  143        0.533289  -0.027420
  144        0.602430  -0.017891
  145        0.639193  -0.006062
  146        0.687086  -0.000875
  147        0.692233  -0.000688
  148        0.839533  -0.000000
  149        0.886083  -0.000000
  150        0.913991  -0.000000
  151        0.966737  -0.000000
  152        1.134046  -0.000000
  153        1.169913  -0.000000
  154        1.231823  -0.000000
  155        1.280792  -0.000000
  156        1.328720  -0.000000
  157        1.359778  -0.000000
  158        1.395488  -0.000000
  159        1.424541  -0.000000
  160        1.457232  -0.000000
  161        1.484317  -0.000000
  162        1.519006  -0.000000
  163        1.549247  -0.000000
  164        1.590196  -0.000000
  165        1.615443  -0.000000
  166        1.623498  -0.000000
  167        1.659855  -0.000000
  168        1.671163  -0.000000
  169        1.719461  -0.000000
  170        1.744615  -0.000000
  171        1.801229  -0.000000
  172        1.815556  -0.000000
  173        1.825784  -0.000000
  174        1.864796  -0.000000
  175        1.932424  -0.000000
  176        1.972722  -0.000000
  177        2.012953  -0.000000
  178        2.028350  -0.000000
  179        2.077736  -0.000000
  180        2.135514  -0.000000
  181        2.168596  -0.000000
  182        2.203363  -0.000000
  183        2.313540  -0.000000
  184        2.575249  -0.000000

  0.3742002E-15  0.1111111E+00  0.1262379E-14  0.4444444E-01
    1      -13.929892   1.000000
    2      -12.809156   1.000000
    3      -12.758460   1.000000
    4      -12.707524   1.000000
    5      -11.910567   1.000000
    6      -11.659731   1.000000
    7      -11.626105   1.000000
    8      -11.615944   1.000000
    9      -11.457795   1.000000
   10      -11.309400   1.000000
   11      -11.169045   1.000000
   12      -11.088521   1.000000
   13      -11.059132   1.000000
   14      -10.705190   1.000000
   15      -10.532459   1.000000
   16      -10.285266   1.000000
   17      -10.150769   1.000000
   18      -10.115040   1.000000
   19       -9.868180   1.000000
   20       -9.709487   1.000000
   21       -9.686940   1.000000
   22       -9.607602   1.000000
   23       -9.461919   1.000000
   24       -9.397324   1.000000
   25       -8.928797   1.000000
   26       -8.869641   1.000000
   27       -8.681822   1.000000
   28       -8.501915   1.000000
   29       -8.450347   1.000000
   30       -8.309376   1.000000
   31       -8.033198   1.000000
   32       -7.943619   1.000000
   33       -7.857935   1.000000
   34       -7.465735   1.000000
   35       -7.438520   1.000000
   36       -7.381636   1.000000
   37       -7.083984   1.000000
   38       -7.014913   1.000000
   39       -6.985526   1.000000
   40       -6.955586   1.000000
   41       -6.739896   1.000000
   42       -6.709267   1.000000
   43       -6.657855   1.000000
   44       -6.617766   1.000000
   45       -6.521635   1.000000
   46       -6.453038   1.000000
   47       -6.415437   1.000000
   48       -6.286942   1.000000
   49       -6.197304   1.000000
   50       -6.151749   1.000000
   51       -5.967073   1.000000
   52       -5.829730   1.000000
   53       -5.746326   1.000000
   54       -5.687970   1.000000
   55       -5.660887   1.000000
   56       -5.637027   1.000000
   57       -5.506467   1.000000
   58       -5.433705   1.000000
   59       -5.355333   1.000000
   60       -5.318931   1.000000
   61       -5.237452   1.000000
   62       -5.219664   1.000000
   63       -5.008800   1.000000
   64       -4.836032   1.000000
   65       -4.812663   1.000000
   66       -4.712577   1.000000
   67       -4.701786   1.000000
   68       -4.621657   1.000000
   69       -4.568424   1.000000
   70       -4.547634   1.000000
   71       -4.425696   1.000000
   72       -4.355333   1.000000
   73       -4.304163   1.000000
   74       -4.289092   1.000000
   75       -4.228108   1.000000
   76       -4.210627   1.000000
   77       -4.196958   1.000000
   78       -4.100939   1.000000
   79       -4.094800   1.000000
   80       -4.091651   1.000000
   81       -4.078568   1.000000
   82       -3.978474   1.000000
   83       -3.972933   1.000000
   84       -3.857545   1.000000
   85       -3.795752   1.000000
   86       -3.773800   1.000000
   87       -3.745966   1.000000
   88       -3.725130   1.000000
   89       -3.654436   1.000000
   90       -3.557174   1.000000
   91       -3.551967   1.000000
   92       -3.520162   1.000000
   93       -3.496275   1.000000
   94       -3.313757   1.000000
   95       -3.098277   1.000000
   96       -2.961226   1.000000
   97       -2.932986   1.000000
   98       -2.929445   1.000000
   99       -2.835940   1.000000
  100       -2.810361   1.000000
  101       -2.680021   1.000000
  102       -2.605143   1.000000
  103       -2.590385   1.000000
  104       -2.532362   1.000000
  105       -2.474364   1.000000
  106       -2.354967   1.000000
  107       -2.285525   1.000000
  108       -2.253902   1.000000
  109       -2.246434   1.000000
  110       -2.147156   1.000000
  111       -2.101155   1.000000
  112       -2.018746   1.000000
  113       -1.990407   1.000000
  114       -1.903031   1.000000
  115       -1.847920   1.000000
  116       -1.756588   1.000000
  117       -1.745210   1.000000
  118       -1.709946   1.000000
  119       -1.690983   1.000000
  120       -1.571255   1.000000
  121       -1.347594   1.000000
  122       -1.139750   1.000000
  123       -1.087733   1.000000
  124       -0.917626   1.000000
  125       -0.863192   1.000000
  126       -0.786728   1.000000
  127       -0.750766   1.000000
  128       -0.629100   1.000000
  129       -0.614475   1.000000
  130       -0.357139   1.000000
  131       -0.323908   1.000000
  132       -0.249381   1.000000
  133       -0.055575   1.000000
  134       -0.007968   1.000000
  135        0.074808   1.000003
  136        0.122426   1.000058
  137        0.167245   1.000615
  138        0.219483   1.005431
  139        0.247758   1.013248
  140        0.271256   1.023225
  141        0.284659   1.029285
  142        0.350786   0.990372
  143        0.499562   0.044933
  144        0.513034   0.004725
  145        0.540822  -0.032590
  146        0.667202  -0.002090
  147        0.716099  -0.000209
  148        0.721815  -0.000154
  149        0.888460  -0.000000
  150        0.942520  -0.000000
  151        1.000658  -0.000000
  152        1.046159  -0.000000
  153        1.066853  -0.000000
  154        1.123768  -0.000000
  155        1.203716  -0.000000
  156        1.227180  -0.000000
  157        1.274772  -0.000000
  158        1.291187  -0.000000
  159        1.358239  -0.000000
  160        1.380072  -0.000000
  161        1.406189  -0.000000
  162        1.446490  -0.000000
  163        1.453552  -0.000000
  164        1.460830  -0.000000
  165        1.541841  -0.000000
  166        1.599777  -0.000000
  167        1.633247  -0.000000
  168        1.680609  -0.000000
  169        1.699442  -0.000000
  170        1.733089  -0.000000
  171        1.766790  -0.000000
  172        1.787406  -0.000000
  173        1.804555  -0.000000
  174        1.845258  -0.000000
  175        1.868676  -0.000000
  176        1.892621  -0.000000
  177        1.922195  -0.000000
  178        1.936593  -0.000000
  179        2.025729  -0.000000
  180        2.057563  -0.000000
  181        2.230394  -0.000000
  182        2.300403  -0.000000
  183        2.441684  -0.000000
  184        2.541105  -0.000000

  0.2000000E+00  0.1111111E+00  0.1262379E-14  0.4444444E-01
    1      -13.881831   1.000000
    2      -13.182342   1.000000
    3      -12.672212   1.000000
    4      -12.305337   1.000000
    5      -12.015264   1.000000
    6      -11.896536   1.000000
    7      -11.694842   1.000000
    8      -11.369147   1.000000
    9      -11.306573   1.000000
   10      -11.206468   1.000000
   11      -11.148121   1.000000
   12      -11.109192   1.000000
   13      -10.968515   1.000000
   14      -10.779106   1.000000
   15      -10.588910   1.000000
   16      -10.576155   1.000000
   17      -10.538807   1.000000
   18       -9.890903   1.000000
   19       -9.825410   1.000000
   20       -9.689827   1.000000
   21       -9.579302   1.000000
   22       -9.517740   1.000000
   23       -9.447324   1.000000
   24       -9.429675   1.000000
   25       -9.129569   1.000000
   26       -8.877601   1.000000
   27       -8.440809   1.000000
   28       -8.385325   1.000000
   29       -8.298219   1.000000
   30       -8.231850   1.000000
   31       -8.155291   1.000000
   32       -7.973567   1.000000
   33       -7.743564   1.000000
   34       -7.618615   1.000000
   35       -7.497631   1.000000
   36       -7.432489   1.000000
   37       -7.146433   1.000000
   38       -7.132394   1.000000
   39       -7.056192   1.000000
   40       -7.009620   1.000000
   41       -6.852045   1.000000
   42       -6.707956   1.000000
   43       -6.668934   1.000000
   44       -6.652180   1.000000
   45       -6.572723   1.000000
   46       -6.532231   1.000000
   47       -6.292206   1.000000
   48       -6.164300   1.000000
   49       -6.074539   1.000000
   50       -5.999778   1.000000
   51       -5.944330   1.000000
   52       -5.872524   1.000000
   53       -5.717129   1.000000
   54       -5.694776   1.000000
   55       -5.667613   1.000000
   56       -5.545411   1.000000
   57       -5.488560   1.000000
   58       -5.378013   1.000000
   59       -5.332887   1.000000
   60       -5.301883   1.000000
   61       -5.255719   1.000000
   62       -5.197013   1.000000
   63       -5.118810   1.000000
   64       -4.930103   1.000000
   65       -4.778773   1.000000
   66       -4.756561   1.000000
   67       -4.683333   1.000000
   68       -4.628135   1.000000
   69       -4.570018   1.000000
   70       -4.533009   1.000000
   71       -4.402977   1.000000
   72       -4.373382   1.000000
   73       -4.274833   1.000000
   74       -4.245783   1.000000
   75       -4.221128   1.000000
   76       -4.199201   1.000000
   77       -4.174848   1.000000
   78       -4.152211   1.000000
   79       -4.109826   1.000000
   80       -4.072135   1.000000
   81       -4.053116   1.000000
   82       -4.010280   1.000000
   83       -3.939798   1.000000
   84       -3.883224   1.000000
   85       -3.814320   1.000000
   86       -3.760868   1.000000
   87       -3.739459   1.000000
   88       -3.705906   1.000000
   89       -3.662811   1.000000
   90       -3.577863   1.000000
   91       -3.536738   1.000000
   92       -3.503133   1.000000
   93       -3.480660   1.000000
   94       -3.291325   1.000000
   95       -3.165441   1.000000
   96       -3.063093   1.000000
   97       -3.035131   1.000000
   98       -2.993540   1.000000
   99       -2.887468   1.000000
  100       -2.820348   1.000000
  101       -2.794262   1.000000
  102       -2.728964   1.000000
  103       -2.455963   1.000000
  104       -2.429505   1.000000
  105       -2.383711   1.000000
  106       -2.309490   1.000000
  107       -2.282622   1.000000
  108       -2.259428   1.000000
  109       -2.129750   1.000000
  110       -2.092796   1.000000
  111       -2.021077   1.000000
  112       -1.996845   1.000000
  113       -1.944532   1.000000
  114       -1.922527   1.000000
  115       -1.840132   1.000000
  116       -1.821182   1.000000
  117       -1.745894   1.000000
  118       -1.665176   1.000000
  119       -1.599808   1.000000
  120       -1.514701   1.000000
  121       -1.319865   1.000000
  122       -1.190273   1.000000
  123       -1.088458   1.000000
  124       -1.008722   1.000000
  125       -0.965670   1.000000
  126       -0.869383   1.000000
  127       -0.823099   1.000000
  128       -0.762542   1.000000
  129       -0.533242   1.000000
  130       -0.464750   1.000000
  131       -0.301281   1.000000
  132       -0.228342   1.000000
  133       -0.096551   1.000000
  134       -0.062436   1.000000
  135       -0.013565   1.000000
  136        0.002521   1.000000
  137        0.119771   1.000049
  138        0.169038   1.000670
  139        0.237978   1.009977
  140        0.329703   1.026338
  141        0.395503   0.779855
  142        0.421056   0.582970
  143        0.473963   0.170428
  144        0.553393  -0.035458
  145        0.570802  -0.031813
  146        0.657429  -0.003098
  147        0.785744  -0.000003
  148        0.803965  -0.000001
  149        0.827379  -0.000000
  150        0.926831  -0.000000
  151        0.973998  -0.000000
  152        1.081912  -0.000000
  153        1.163968  -0.000000
  154        1.188834  -0.000000
  155        1.261160  -0.000000
  156        1.290685  -0.000000
  157        1.309703  -0.000000