   51   51    1    1
  0.2316787E+02  0.8645320E-09  0.6085000E-09  0.2593596E-08  0.5000000E-15
   1.0000000000000000E-004
  CAR 
 Name                                    
    191    149    128

  0.3742002E-15  0.3742002E-15  0.3742002E-15  0.3367003E-02
    1      -13.911333   1.000000
    2      -12.561330   1.000000
    3      -12.416195   1.000000
    4      -11.878206   1.000000
    5      -11.585077   1.000000
    6      -11.162158   1.000000
    7      -11.112261   1.000000
    8      -11.059669   1.000000
    9      -11.002971   1.000000
   10      -10.612406   1.000000
   11      -10.609384   1.000000
   12      -10.415824   1.000000
   13      -10.091208   1.000000
   14      -10.075536   1.000000
   15       -9.757969   1.000000
   16       -9.728585   1.000000
   17       -9.257913   1.000000
   18       -9.060654   1.000000
   19       -8.810704   1.000000
   20       -8.714873   1.000000
   21       -8.656174   1.000000
   22       -8.306286   1.000000
   23       -8.243637   1.000000
   24       -8.005665   1.000000
   25       -7.967879   1.000000
   26       -7.950800   1.000000
   27       -7.437038   1.000000
   28       -7.250100   1.000000
   29       -6.935942   1.000000
   30       -6.665962   1.000000
   31       -6.505739   1.000000
   32       -6.396820   1.000000
   33       -6.037354   1.000000
   34       -5.916005   1.000000
   35       -5.702598   1.000000
   36       -5.580939   1.000000
   37       -5.503056   1.000000
   38       -5.448978   1.000000
   39       -5.412527   1.000000
   40       -5.359770   1.000000
   41       -5.232037   1.000000
   42       -5.114566   1.000000
   43       -5.043288   1.000000
   44       -4.970625   1.000000
   45       -4.886317   1.000000
   46       -4.781885   1.000000
   47       -4.691277   1.000000
   48       -4.586431   1.000000
   49       -4.571447   1.000000
   50       -4.516472   1.000000
   51       -4.476659   1.000000
   52       -4.459808   1.000000
   53       -4.330967   1.000000
   54       -4.274262   1.000000
   55       -4.178799   1.000000
   56       -4.140998   1.000000
   57       -3.990319   1.000000
   58       -3.981861   1.000000
   59       -3.919852   1.000000
   60       -3.905966   1.000000
   61       -3.772947   1.000000
   62       -3.701615   1.000000
   63       -3.523340   1.000000
   64       -3.377065   1.000000
   65       -3.360297   1.000000
   66       -3.309432   1.000000
   67       -3.282373   1.000000
   68       -3.246752   1.000000
   69       -3.209655   1.000000
   70       -3.187806   1.000000
   71       -3.162745   1.000000
   72       -3.050084   1.000000
   73       -3.013565   1.000000
   74       -2.663149   1.000000
   75       -2.523947   1.000000
   76       -2.361467   1.000000
   77       -2.236351   1.000000
   78       -2.194192   1.000000
   79       -2.157437   1.000000
   80       -2.140980   1.000000
   81       -1.695859   1.000000
   82       -1.649224   1.000000
   83       -1.398746   1.000000
   84       -1.353118   1.000000
   85       -1.069681   1.000000
   86       -1.049674   1.000000
   87       -0.969243   1.000000
   88       -0.913983   1.000000
   89       -0.809569   1.000000
   90       -0.313156   1.000000
   91       -0.237448   1.000000
   92        0.023547   1.033614
   93        0.116005   0.822475
   94        0.132376   0.708487
   95        0.222990   0.058500
   96        0.265558  -0.031350
   97        0.281062  -0.035451
   98        0.581888  -0.000000
   99        0.596618  -0.000000
  100        0.658494  -0.000000
  101        0.687556  -0.000000
  102        0.798087  -0.000000
  103        0.858373  -0.000000
  104        0.872602  -0.000000
  105        0.958550  -0.000000
  106        1.027121  -0.000000
  107        1.194351  -0.000000
  108        1.348662  -0.000000
  109        1.396130  -0.000000
  110        1.492861  -0.000000
  111        1.525995  -0.000000
  112        1.563640  -0.000000
  113        1.600186  -0.000000
  114        1.669621  -0.000000
  115        1.683440  -0.000000
  116        1.798009  -0.000000
  117        1.813329  -0.000000
  118        1.859748  -0.000000
  119        1.899986  -0.000000
  120        1.994133  -0.000000
  121        2.046017  -0.000000
  122        2.191915  -0.000000
  123        2.288876  -0.000000
  124        2.329021  -0.000000
  125        2.370308  -0.000000
  126        2.408012  -0.000000
  127        3.088832   0.000000
  128        3.881310   0.000000

  0.1111111E+00  0.3729374E-15  0.3860503E-15  0.6734007E-02
    1      -13.884308   1.000000
    2      -12.543578   1.000000
    3      -12.525488   1.000000
    4      -11.820656   1.000000
    5      -11.568988   1.000000
    6      -11.154516   1.000000
    7      -11.121872   1.000000
    8      -11.053260   1.000000
    9      -11.029524   1.000000
   10      -10.610599   1.000000
   11      -10.606552   1.000000
   12      -10.421931   1.000000
   13      -10.085623   1.000000
   14      -10.073508   1.000000
   15       -9.743933   1.000000
   16       -9.710902   1.000000
   17       -9.228522   1.000000
   18       -9.077954   1.000000
   19       -8.822588   1.000000
   20       -8.701550   1.000000
   21       -8.645547   1.000000
   22       -8.352045   1.000000
   23       -8.299067   1.000000
   24       -8.015218   1.000000
   25       -7.997533   1.000000
   26       -7.932171   1.000000
   27       -7.505418   1.000000
   28       -7.326358   1.000000
   29       -6.866267   1.000000
   30       -6.576987   1.000000
   31       -6.481618   1.000000
   32       -6.361826   1.000000
   33       -6.016516   1.000000
   34       -5.904174   1.000000
   35       -5.804463   1.000000
   36       -5.577649   1.000000
   37       -5.517932   1.000000
   38       -5.421766   1.000000
   39       -5.364435   1.000000
   40       -5.328476   1.000000
   41       -5.250210   1.000000
   42       -5.096897   1.000000
   43       -5.009654   1.000000
   44       -4.943195   1.000000
   45       -4.889414   1.000000
   46       -4.729584   1.000000
   47       -4.706490   1.000000
   48       -4.588783   1.000000
   49       -4.554873   1.000000
   50       -4.532116   1.000000
   51       -4.461393   1.000000
   52       -4.444150   1.000000
   53       -4.327077   1.000000
   54       -4.264233   1.000000
   55       -4.169744   1.000000
   56       -4.126788   1.000000
   57       -4.025132   1.000000
   58       -3.989575   1.000000
   59       -3.938805   1.000000
   60       -3.906882   1.000000
   61       -3.765379   1.000000
   62       -3.704987   1.000000
   63       -3.533739   1.000000
   64       -3.399988   1.000000
   65       -3.337484   1.000000
   66       -3.321823   1.000000
   67       -3.283003   1.000000
   68       -3.244690   1.000000
   69       -3.199699   1.000000
   70       -3.177389   1.000000
   71       -3.136714   1.000000
   72       -3.064291   1.000000
   73       -3.018209   1.000000
   74       -2.742686   1.000000
   75       -2.505411   1.000000
   76       -2.363224   1.000000
   77       -2.248736   1.000000
   78       -2.232423   1.000000
   79       -2.188069   1.000000
   80       -2.165261   1.000000
   81       -1.713578   1.000000
   82       -1.583873   1.000000
   83       -1.397950   1.000000
   84       -1.352268   1.000000
   85       -1.096909   1.000000
   86       -1.029515   1.000000
   87       -0.947092   1.000000
   88       -0.885410   1.000000
   89       -0.712244   1.000000
   90       -0.376240   1.000000
   91       -0.307300   1.000000
   92        0.035253   1.035457
   93        0.133838   0.697337
   94        0.146232   0.598103
   95        0.196174   0.200980
   96        0.231927   0.026887
   97        0.297794  -0.031815
   98        0.576944  -0.000000
   99        0.605836  -0.000000
  100        0.634857  -0.000000
  101        0.702583  -0.000000
  102        0.808012  -0.000000
  103        0.871089  -0.000000
  104        0.896615  -0.000000
  105        0.962521  -0.000000
  106        1.049459  -0.000000
  107        1.208896  -0.000000
  108        1.373524  -0.000000
  109        1.392081  -0.000000
  110        1.512486  -0.000000
  111        1.532768  -0.000000
  112        1.572973  -0.000000
  113        1.622927  -0.000000
  114        1.676840  -0.000000
  115        1.702662  -0.000000
  116        1.774194  -0.000000
  117        1.781325  -0.000000
  118        1.870443  -0.000000
  119        1.897054  -0.000000
  120        1.997117  -0.000000
  121        2.053064  -0.000000
  122        2.152777  -0.000000
  123        2.203226  -0.000000
  124        2.276797  -0.000000
  125        2.433772  -0.000000
  126        2.550171  -0.000000
  127        2.968165   0.000000
  128        3.819312   0.000000

  0.2222222E+00  0.3922785E-15  0.3630220E-15  0.6734007E-02
    1      -13.804000   1.000000
    2      -12.769633   1.000000
    3      -12.464328   1.000000
    4      -11.779264   1.000000
    5      -11.522669   1.000000
    6      -11.202708   1.000000
    7      -11.093351   1.000000
    8      -11.045224   1.000000
    9      -11.026963   1.000000
   10      -10.603582   1.000000
   11      -10.596760   1.000000
   12      -10.473330   1.000000
   13      -10.076288   1.000000
   14      -10.072663   1.000000
   15       -9.702070   1.000000
   16       -9.656885   1.000000
   17       -9.140487   1.000000
   18       -9.107652   1.000000
   19       -8.834593   1.000000
   20       -8.674777   1.000000
   21       -8.631785   1.000000
   22       -8.472747   1.000000
   23       -8.432908   1.000000
   24       -8.115874   1.000000
   25       -8.091965   1.000000
   26       -7.785469   1.000000
   27       -7.709696   1.000000
   28       -7.342829   1.000000
   29       -6.801104   1.000000
   30       -6.448800   1.000000
   31       -6.381035   1.000000
   32       -6.271344   1.000000
   33       -6.106755   1.000000
   34       -5.955242   1.000000
   35       -5.822362   1.000000
   36       -5.524371   1.000000
   37       -5.484824   1.000000
   38       -5.409658   1.000000
   39       -5.389573   1.000000
   40       -5.202959   1.000000
   41       -5.178578   1.000000
   42       -5.060424   1.000000
   43       -4.961463   1.000000
   44       -4.891631   1.000000
   45       -4.862086   1.000000
   46       -4.845145   1.000000
   47       -4.674380   1.000000
   48       -4.565128   1.000000
   49       -4.524859   1.000000
   50       -4.460491   1.000000
   51       -4.435358   1.000000
   52       -4.398026   1.000000
   53       -4.325670   1.000000
   54       -4.232463   1.000000
   55       -4.174451   1.000000
   56       -4.111308   1.000000
   57       -4.032392   1.000000
   58       -4.022682   1.000000
   59       -3.936459   1.000000
   60       -3.913163   1.000000
   61       -3.766374   1.000000
   62       -3.709172   1.000000
   63       -3.578586   1.000000
   64       -3.462476   1.000000
   65       -3.361910   1.000000
   66       -3.332433   1.000000
   67       -3.286836   1.000000
   68       -3.236610   1.000000
   69       -3.194741   1.000000
   70       -3.159457   1.000000
   71       -3.135034   1.000000
   72       -3.036345   1.000000
   73       -2.951958   1.000000
   74       -2.875149   1.000000
   75       -2.475914   1.000000
   76       -2.411147   1.000000
   77       -2.385552   1.000000
   78       -2.361503   1.000000
   79       -2.268270   1.000000
   80       -2.030921   1.000000
   81       -1.850269   1.000000
   82       -1.457770   1.000000
   83       -1.378781   1.000000
   84       -1.315079   1.000000
   85       -1.133166   1.000000
   86       -0.965700   1.000000
   87       -0.894252   1.000000
   88       -0.820811   1.000000
   89       -0.506965   1.000000
   90       -0.475343   1.000000
   91       -0.460567   1.000000
   92       -0.051407   1.005848
   93        0.083892   0.973131
   94        0.121506   0.786624
   95        0.190006   0.243283
   96        0.315315  -0.024268
   97        0.462928  -0.000070
   98        0.483640  -0.000021
   99        0.532992  -0.000001
  100        0.603778  -0.000000
  101        0.726020  -0.000000
  102        0.800849  -0.000000
  103        0.847490  -0.000000
  104        0.969099  -0.000000
  105        1.012262  -0.000000
  106        1.209842  -0.000000
  107        1.282888  -0.000000
  108        1.300005  -0.000000
  109        1.469951  -0.000000
  110        1.513441  -0.000000
  111        1.554350  -0.000000
  112        1.606834  -0.000000
  113        1.658286  -0.000000
  114        1.690468  -0.000000
  115        1.703863  -0.000000
  116        1.713707  -0.000000
  117        1.798512  -0.000000
  118        1.859716  -0.000000
  119        1.895902  -0.000000
  120        2.004484  -0.000000
  121        2.072888  -0.000000
  122        2.085915  -0.000000
  123        2.182035  -0.000000
  124        2.280023  -0.000000
  125        2.354221  -0.000000
  126        2.546247  -0.000000
  127        2.937681   0.000000
  128        3.618270   0.000000

  0.3333333E+00  0.3713828E-15  0.3468587E-15  0.6734007E-02
    1      -13.672791   1.000000
    2      -13.029455   1.000000
    3      -12.349071   1.000000
    4      -11.861134   1.000000
    5      -11.455050   1.000000
    6      -11.246794   1.000000
    7      -11.054465   1.000000
    8      -11.036191   1.000000
    9      -10.966210   1.000000
   10      -10.601981   1.000000
   11      -10.583158   1.000000
   12      -10.570631   1.000000
   13      -10.079558   1.000000
   14      -10.074835   1.000000
   15       -9.640716   1.000000
   16       -9.573424   1.000000
   17       -9.135150   1.000000
   18       -9.020327   1.000000
   19       -8.800390   1.000000
   20       -8.686179   1.000000
   21       -8.671157   1.000000
   22       -8.567516   1.000000
   23       -8.543442   1.000000
   24       -8.235525   1.000000
   25       -8.207693   1.000000
   26       -7.992779   1.000000
   27       -7.545637   1.000000
   28       -7.237898   1.000000
   29       -6.834658   1.000000
   30       -6.459739   1.000000
   31       -6.401668   1.000000
   32       -6.289795   1.000000
   33       -6.048240   1.000000
   34       -5.921252   1.000000
   35       -5.699123   1.000000
   36       -5.543933   1.000000
   37       -5.402412   1.000000
   38       -5.373073   1.000000
   39       -5.330302   1.000000
   40       -5.147458   1.000000
   41       -5.113377   1.000000
   42       -5.052316   1.000000
   43       -5.045153   1.000000
   44       -4.914511   1.000000
   45       -4.846908   1.000000
   46       -4.734639   1.000000
   47       -4.650125   1.000000
   48       -4.536308   1.000000
   49       -4.489070   1.000000
   50       -4.426023   1.000000
   51       -4.381858   1.000000
   52       -4.357411   1.000000
   53       -4.311144   1.000000
   54       -4.216024   1.000000
   55       -4.130206   1.000000
   56       -4.116895   1.000000
   57       -4.081553   1.000000
   58       -3.954059   1.000000
   59       -3.933280   1.000000
   60       -3.884192   1.000000
   61       -3.780752   1.000000
   62       -3.726867   1.000000
   63       -3.604946   1.000000
   64       -3.561677   1.000000
   65       -3.389238   1.000000
   66       -3.379467   1.000000
   67       -3.312005   1.000000
   68       -3.274985   1.000000
   69       -3.217784   1.000000
   70       -3.166819   1.000000
   71       -3.132794   1.000000
   72       -2.953521   1.000000
   73       -2.859804   1.000000
   74       -2.847873   1.000000
   75       -2.615263   1.000000
   76       -2.583340   1.000000
   77       -2.484919   1.000000
   78       -2.383512   1.000000
   79       -2.307939   1.000000
   80       -2.024765   1.000000
   81       -1.822758   1.000000
   82       -1.550964   1.000000
   83       -1.436787   1.000000
   84       -1.152591   1.000000
   85       -1.094144   1.000000
   86       -0.862351   1.000000
   87       -0.789224   1.000000
   88       -0.746389   1.000000
   89       -0.635560   1.000000
   90       -0.590833   1.000000
   91       -0.276640   1.000000
   92       -0.169878   1.000018
   93        0.034511   1.035445
   94        0.109263   0.862591
   95        0.242939  -0.001814
   96        0.326799  -0.019035
   97        0.412728  -0.000931
   98        0.423746  -0.000555
   99        0.476365  -0.000032
  100        0.687380  -0.000000
  101        0.743566  -0.000000
  102        0.789323  -0.000000
  103        0.972259  -0.000000
  104        1.014006  -0.000000
  105        1.114456  -0.000000
  106        1.127399  -0.000000
  107        1.407531  -0.000000
  108        1.448640  -0.000000
  109        1.496343  -0.000000
  110        1.516182  -0.000000
  111        1.570970  -0.000000
  112        1.628233  -0.000000
  113        1.646106  -0.000000
  114        1.666973  -0.000000
  115        1.685190  -0.000000
  116        1.739001  -0.000000
  117        1.805370  -0.000000
  118        1.821895  -0.000000
  119        1.926810  -0.000000
  120        1.974273  -0.000000
  121        2.017814  -0.000000
  122        2.030929  -0.000000
  123        2.141605  -0.000000
  124        2.187116  -0.000000
  125        2.255108  -0.000000
  126        2.340060  -0.000000
  127        2.489150  -0.000000
  128        3.514345   0.000000

  0.4444444E+00  0.3870091E-15  0.3932070E-15  0.6734007E-02
    1      -13.494971   1.000000
    2      -13.276893   1.000000
    3      -12.199216   1.000000
    4      -12.020131   1.000000
    5      -11.390524   1.000000
    6      -11.275836   1.000000
    7      -11.038643   1.000000
    8      -11.028543   1.000000
    9      -10.861877   1.000000
   10      -10.720482   1.000000
   11      -10.576792   1.000000
   12      -10.568630   1.000000
   13      -10.088720   1.000000
   14      -10.079796   1.000000
   15       -9.590221   1.000000
   16       -9.497478   1.000000
   17       -9.133369   1.000000
   18       -8.973080   1.000000
   19       -8.805982   1.000000
   20       -8.765033   1.000000
   21       -8.639904   1.000000
   22       -8.570380   1.000000
   23       -8.536508   1.000000
   24       -8.338561   1.000000
   25       -8.296289   1.000000
   26       -8.210773   1.000000
   27       -7.306019   1.000000
   28       -7.079785   1.000000
   29       -6.944592   1.000000
   30       -6.744162   1.000000
   31       -6.411657   1.000000
   32       -6.281241   1.000000
   33       -5.900303   1.000000
   34       -5.789907   1.000000
   35       -5.619498   1.000000
   36       -5.531578   1.000000
   37       -5.379222   1.000000
   38       -5.320306   1.000000
   39       -5.296343   1.000000
   40       -5.246911   1.000000
   41       -5.187913   1.000000
   42       -5.081283   1.000000
   43       -5.066373   1.000000
   44       -4.782457   1.000000
   45       -4.756830   1.000000
   46       -4.671011   1.000000
   47       -4.615424   1.000000
   48       -4.563717   1.000000
   49       -4.495049   1.000000
   50       -4.433013   1.000000
   51       -4.349609   1.000000
   52       -4.324073   1.000000
   53       -4.261184   1.000000
   54       -4.219568   1.000000
   55       -4.198800   1.000000
   56       -4.085934   1.000000
   57       -4.030888   1.000000
   58       -3.954736   1.000000
   59       -3.903313   1.000000
   60       -3.808213   1.000000
   61       -3.793748   1.000000
   62       -3.717590   1.000000
   63       -3.666428   1.000000
   64       -3.592347   1.000000
   65       -3.525138   1.000000
   66       -3.376039   1.000000
   67       -3.362556   1.000000
   68       -3.235767   1.000000
   69       -3.210872   1.000000
   70       -3.153636   1.000000
   71       -3.127437   1.000000
   72       -2.902072   1.000000
   73       -2.867062   1.000000
   74       -2.790231   1.000000
   75       -2.711285   1.000000
   76       -2.671033   1.000000
   77       -2.600646   1.000000
   78       -2.397903   1.000000
   79       -2.262701   1.000000
   80       -2.155393   1.000000
   81       -1.667989   1.000000
   82       -1.615936   1.000000
   83       -1.491641   1.000000
   84       -1.221717   1.000000
   85       -0.954919   1.000000
   86       -0.843674   1.000000
   87       -0.770769   1.000000
   88       -0.712962   1.000000
   89       -0.602793   1.000000
   90       -0.471875   1.000000
   91       -0.432120   1.000000
   92       -0.119922   1.000306
   93        0.028149   1.034718
   94        0.121310   0.787952
   95        0.166803   0.425087
   96        0.290801  -0.034013
   97        0.349804  -0.010297
   98        0.388118  -0.002678
   99        0.642505  -0.000000
  100        0.682268  -0.000000
  101        0.724451  -0.000000
  102        0.771069  -0.000000
  103        0.907750  -0.000000
  104        1.027761  -0.000000
  105        1.274128  -0.000000
  106        1.320777  -0.000000
  107        1.408149  -0.000000
  108        1.500430  -0.000000
  109        1.539591  -0.000000
  110        1.588775  -0.000000
  111        1.606914  -0.000000
  112        1.619786  -0.000000
  113        1.626063  -0.000000
  114        1.680497  -0.000000
  115        1.697153  -0.000000
  116        1.719191  -0.000000
  117        1.744549  -0.000000
  118        1.814057  -0.000000
  119        1.831928  -0.000000
  120        1.952930  -0.000000
  121        1.997238  -0.000000
  122        2.025366  -0.000000
  123        2.122266  -0.000000
  124        2.228282  -0.000000
  125        2.292850  -0.000000
  126        2.352498  -0.000000
  127        2.439087  -0.000000
  128        3.462012   0.000000

  0.3742002E-15  0.9090909E-01  0.3596334E-15  0.6734007E-02
    1      -13.878068   1.000000
    2      -12.531909   1.000000
    3      -12.421065   1.000000
    4      -11.846271   1.000000
    5      -11.562463   1.000000
    6      -11.277490   1.000000
    7      -11.235176   1.000000
    8      -11.108285   1.000000
    9      -11.019980   1.000000
   10      -10.628294   1.000000
   11      -10.592558   1.000000
   12      -10.387664   1.000000
   13      -10.040865   1.000000
   14      -10.021038   1.000000
   15       -9.792473   1.000000
   16       -9.720750   1.000000
   17       -9.235125   1.000000
   18       -9.103706   1.000000
   19       -8.909948   1.000000
   20       -8.725463   1.000000
   21       -8.640091   1.000000
   22       -8.184038   1.000000
   23       -8.099096   1.000000
   24       -7.945640   1.000000
   25       -7.852811   1.000000
   26       -7.816207   1.000000
   27       -7.443886   1.000000
   28       -7.288162   1.000000
   29       -6.920039   1.000000
   30       -6.616586   1.000000
   31       -6.531007   1.000000
   32       -6.388833   1.000000
   33       -6.027838   1.000000
   34       -5.947019   1.000000
   35       -5.710919   1.000000
   36       -5.619265   1.000000
   37       -5.518804   1.000000
   38       -5.419326   1.000000
   39       -5.364195   1.000000
   40       -5.334313   1.000000
   41       -5.257183   1.000000
   42       -5.154151   1.000000
   43       -5.086435   1.000000
   44       -4.981697   1.000000
   45       -4.894384   1.000000
   46       -4.791465   1.000000
   47       -4.760014   1.000000
   48       -4.697688   1.000000
   49       -4.577062   1.000000
   50       -4.557077   1.000000
   51       -4.484959   1.000000
   52       -4.446814   1.000000
   53       -4.375601   1.000000
   54       -4.316919   1.000000
   55       -4.269082   1.000000
   56       -4.161810   1.000000
   57       -4.012649   1.000000
   58       -3.937128   1.000000
   59       -3.880620   1.000000
   60       -3.847582   1.000000
   61       -3.764378   1.000000
   62       -3.707070   1.000000
   63       -3.522517   1.000000
   64       -3.403593   1.000000
   65       -3.373998   1.000000
   66       -3.365380   1.000000
   67       -3.289610   1.000000
   68       -3.253631   1.000000
   69       -3.206963   1.000000
   70       -3.178134   1.000000
   71       -3.115923   1.000000
   72       -3.049325   1.000000
   73       -3.020202   1.000000
   74       -2.751151   1.000000
   75       -2.512397   1.000000
   76       -2.300917   1.000000
   77       -2.225850   1.000000
   78       -2.199921   1.000000
   79       -2.176160   1.000000
   80       -2.077688   1.000000
   81       -1.805279   1.000000
   82       -1.525584   1.000000
   83       -1.404831   1.000000
   84       -1.366663   1.000000
   85       -1.129938   1.000000
   86       -1.063280   1.000000
   87       -0.967151   1.000000
   88       -0.899321   1.000000
   89       -0.847176   1.000000
   90       -0.444407   1.000000
   91       -0.222084   1.000001
   92       -0.088174   1.001377
   93        0.004138   1.025942
   94        0.038921   1.035262
   95        0.200955   0.170471
   96        0.234828   0.018268
   97        0.284741  -0.035183
   98        0.455613  -0.000106
   99        0.511451  -0.000003
  100        0.625801  -0.000000
  101        0.775387  -0.000000
  102        0.863468  -0.000000
  103        0.932092  -0.000000
  104        1.019341  -0.000000
  105        1.040490  -0.000000
  106        1.071025  -0.000000
  107        1.191322  -0.000000
  108        1.359459  -0.000000
  109        1.416497  -0.000000
  110        1.496579  -0.000000
  111        1.518291  -0.000000
  112        1.557084  -0.000000
  113        1.626230  -0.000000
  114        1.687972  -0.000000
  115        1.706785  -0.000000
  116        1.767621  -0.000000
  117        1.799625  -0.000000
  118        1.846059  -0.000000
  119        1.878097  -0.000000
  120        2.020859  -0.000000
  121        2.076803  -0.000000
  122        2.108865  -0.000000
  123        2.130616  -0.000000
  124        2.219142  -0.000000
  125        2.356002  -0.000000
  126        2.400223  -0.000000
  127        2.680612  -0.000000
  128        3.958830   0.000000

  0.1111111E+00  0.9090909E-01  0.4822234E-15  0.6734007E-02
    1      -13.829252   1.000000
    2      -12.603373   1.000000
    3      -12.486759   1.000000
    4      -11.774612   1.000000
    5      -11.533717   1.000000
    6      -11.321977   1.000000
    7      -11.184735   1.000000
    8      -11.110168   1.000000
    9      -11.058734   1.000000
   10      -10.636707   1.000000
   11      -10.526851   1.000000
   12      -10.408371   1.000000
   13      -10.093369   1.000000
   14      -10.043400   1.000000
   15       -9.740967   1.000000
   16       -9.667728   1.000000
   17       -9.209458   1.000000
   18       -9.106389   1.000000
   19       -8.876510   1.000000
   20       -8.774635   1.000000
   21       -8.659783   1.000000
   22       -8.265940   1.000000
   23       -8.160097   1.000000
   24       -7.939084   1.000000
   25       -7.846866   1.000000
   26       -7.824482   1.000000
   27       -7.585683   1.000000
   28       -7.333104   1.000000
   29       -6.872861   1.000000
   30       -6.534548   1.000000
   31       -6.452873   1.000000
   32       -6.298068   1.000000
   33       -6.022689   1.000000
   34       -5.945421   1.000000
   35       -5.839616   1.000000
   36       -5.627452   1.000000
   37       -5.469966   1.000000
   38       -5.393781   1.000000
   39       -5.356442   1.000000
   40       -5.295525   1.000000
   41       -5.248999   1.000000
   42       -5.141341   1.000000
   43       -5.014505   1.000000
   44       -4.928833   1.000000
   45       -4.902314   1.000000
   46       -4.814212   1.000000
   47       -4.694052   1.000000
   48       -4.664765   1.000000
   49       -4.560738   1.000000
   50       -4.517262   1.000000
   51       -4.469853   1.000000
   52       -4.421250   1.000000
   53       -4.367403   1.000000
   54       -4.319691   1.000000
   55       -4.263045   1.000000
   56       -4.150101   1.000000
   57       -4.066083   1.000000
   58       -3.954238   1.000000
   59       -3.885272   1.000000
   60       -3.838617   1.000000
   61       -3.746013   1.000000
   62       -3.722647   1.000000
   63       -3.550703   1.000000
   64       -3.438479   1.000000
   65       -3.413745   1.000000
   66       -3.343606   1.000000
   67       -3.283873   1.000000
   68       -3.278065   1.000000
   69       -3.185619   1.000000
   70       -3.159617   1.000000
   71       -3.104533   1.000000
   72       -3.060620   1.000000
   73       -2.992848   1.000000
   74       -2.826130   1.000000
   75       -2.490182   1.000000
   76       -2.366177   1.000000
   77       -2.338763   1.000000
   78       -2.267372   1.000000
   79       -2.127031   1.000000
   80       -2.088174   1.000000
   81       -1.857469   1.000000
   82       -1.495779   1.000000
   83       -1.413903   1.000000
   84       -1.348504   1.000000
   85       -1.166999   1.000000
   86       -1.052532   1.000000
   87       -0.925619   1.000000
   88       -0.788981   1.000000
   89       -0.699693   1.000000
   90       -0.509553   1.000000
   91       -0.293656   1.000000
   92       -0.036038   1.009673
   93       -0.009963   1.019483
   94        0.126082   0.754839
   95        0.158713   0.493226
   96        0.252714  -0.018857
   97        0.258246  -0.025470
   98        0.363043  -0.006749
   99        0.470926  -0.000044
  100        0.744342  -0.000000
  101        0.769970  -0.000000
  102        0.866780  -0.000000
  103        0.900087  -0.000000
  104        1.006555  -0.000000
  105        1.046265  -0.000000
  106        1.097969  -0.000000
  107        1.275682  -0.000000
  108        1.367964  -0.000000
  109        1.411814  -0.000000
  110        1.460852  -0.000000
  111        1.529446  -0.000000
  112        1.611428  -0.000000
  113        1.649518  -0.000000
  114        1.684464  -0.000000
  115        1.707985  -0.000000
  116        1.733251  -0.000000
  117        1.811384  -0.000000
  118        1.851770  -0.000000
  119        1.887319  -0.000000
  120        2.026509  -0.000000
  121        2.055350  -0.000000
  122        2.088826  -0.000000