   74   74    1    1
  0.2110353E+02  0.1053953E-08  0.6141200E-09  0.2412750E-08  0.5000000E-15
   1.0000000000000000E-004
  CAR 
 Name                                    
    284     23    184

  0.3742002E-15  0.3742002E-15  0.1262379E-14  0.2222222E-01
    1      -13.879982   1.000000
    2      -12.739359   1.000000
    3      -12.698041   1.000000
    4      -12.668112   1.000000
    5      -11.716386   1.000000
    6      -11.652050   1.000000
    7      -11.541651   1.000000
    8      -11.497594   1.000000
    9      -11.313647   1.000000
   10      -11.281928   1.000000
   11      -11.136032   1.000000
   12      -10.988135   1.000000
   13      -10.953682   1.000000
   14      -10.626075   1.000000
   15      -10.560409   1.000000
   16      -10.419554   1.000000
   17      -10.078682   1.000000
   18      -10.064683   1.000000
   19       -9.956987   1.000000
   20       -9.873127   1.000000
   21       -9.661649   1.000000
   22       -9.561981   1.000000
   23       -9.418265   1.000000
   24       -9.274348   1.000000
   25       -8.912032   1.000000
   26       -8.892298   1.000000
   27       -8.798614   1.000000
   28       -8.436595   1.000000
   29       -8.352168   1.000000
   30       -8.292230   1.000000
   31       -8.059319   1.000000
   32       -7.758452   1.000000
   33       -7.741236   1.000000
   34       -7.638966   1.000000
   35       -7.256301   1.000000
   36       -7.155595   1.000000
   37       -7.074958   1.000000
   38       -6.971256   1.000000
   39       -6.833562   1.000000
   40       -6.647344   1.000000
   41       -6.627519   1.000000
   42       -6.537500   1.000000
   43       -6.499301   1.000000
   44       -6.430764   1.000000
   45       -6.380981   1.000000
   46       -6.356807   1.000000
   47       -6.295338   1.000000
   48       -6.135774   1.000000
   49       -6.106998   1.000000
   50       -5.982995   1.000000
   51       -5.948369   1.000000
   52       -5.743897   1.000000
   53       -5.742236   1.000000
   54       -5.694828   1.000000
   55       -5.613059   1.000000
   56       -5.486317   1.000000
   57       -5.453423   1.000000
   58       -5.359911   1.000000
   59       -5.253542   1.000000
   60       -5.220449   1.000000
   61       -5.160341   1.000000
   62       -5.087920   1.000000
   63       -4.872010   1.000000
   64       -4.763770   1.000000
   65       -4.615276   1.000000
   66       -4.598462   1.000000
   67       -4.568407   1.000000
   68       -4.501027   1.000000
   69       -4.482910   1.000000
   70       -4.472165   1.000000
   71       -4.332829   1.000000
   72       -4.265122   1.000000
   73       -4.154255   1.000000
   74       -4.105972   1.000000
   75       -4.030286   1.000000
   76       -3.965197   1.000000
   77       -3.881569   1.000000
   78       -3.841095   1.000000
   79       -3.835150   1.000000
   80       -3.818563   1.000000
   81       -3.812004   1.000000
   82       -3.789643   1.000000
   83       -3.760688   1.000000
   84       -3.724075   1.000000
   85       -3.680052   1.000000
   86       -3.594297   1.000000
   87       -3.533667   1.000000
   88       -3.492324   1.000000
   89       -3.460680   1.000000
   90       -3.448443   1.000000
   91       -3.271700   1.000000
   92       -3.097376   1.000000
   93       -2.974824   1.000000
   94       -2.946303   1.000000
   95       -2.942545   1.000000
   96       -2.912362   1.000000
   97       -2.783478   1.000000
   98       -2.730029   1.000000
   99       -2.640375   1.000000
  100       -2.608665   1.000000
  101       -2.604087   1.000000
  102       -2.506476   1.000000
  103       -2.321597   1.000000
  104       -2.297527   1.000000
  105       -2.292954   1.000000
  106       -2.263767   1.000000
  107       -2.167557   1.000000
  108       -2.047787   1.000000
  109       -2.034638   1.000000
  110       -1.981998   1.000000
  111       -1.981915   1.000000
  112       -1.933911   1.000000
  113       -1.901882   1.000000
  114       -1.799424   1.000000
  115       -1.777755   1.000000
  116       -1.603640   1.000000
  117       -1.533318   1.000000
  118       -1.529856   1.000000
  119       -1.508043   1.000000
  120       -1.371300   1.000000
  121       -1.134470   1.000000
  122       -1.133795   1.000000
  123       -0.883686   1.000000
  124       -0.790862   1.000000
  125       -0.760287   1.000000
  126       -0.725483   1.000000
  127       -0.617334   1.000000
  128       -0.347152   1.000000
  129       -0.277885   1.000000
  130       -0.269605   1.000000
  131       -0.090635   1.000000
  132       -0.068794   1.000000
  133       -0.011710   1.000000
  134        0.074722   1.000000
  135        0.295471   1.000168
  136        0.332892   1.001066
  137        0.405529   1.014740
  138        0.416217   1.019200
  139        0.422139   1.021872
  140        0.434219   1.027423
  141        0.453787   1.034475
  142        0.520750   0.937076
  143        0.635945   0.123303
  144        0.659576   0.024340
  145        0.709476  -0.035381
  146        0.719664  -0.033451
  147        0.767616  -0.013347
  148        0.773810  -0.011194
  149        0.889518  -0.000071
  150        0.927629  -0.000007
  151        1.134222  -0.000000
  152        1.225972  -0.000000
  153        1.236702  -0.000000
  154        1.292263  -0.000000
  155        1.301062  -0.000000
  156        1.372206  -0.000000
  157        1.415285  -0.000000
  158        1.423111  -0.000000
  159        1.460090  -0.000000
  160        1.461071  -0.000000
  161        1.548611  -0.000000
  162        1.565345  -0.000000
  163        1.605984  -0.000000
  164        1.688166  -0.000000
  165        1.689887  -0.000000
  166        1.798439  -0.000000
  167        1.822772  -0.000000
  168        1.834234  -0.000000
  169        1.852440  -0.000000
  170        1.880183  -0.000000
  171        1.901531  -0.000000
  172        1.910076  -0.000000
  173        1.956309  -0.000000
  174        2.117925  -0.000000
  175        2.158446  -0.000000
  176        2.331084  -0.000000
  177        2.443950  -0.000000
  178        2.473074  -0.000000
  179        2.609335  -0.000000
  180        2.681065  -0.000000
  181        2.946814  -0.000000
  182        3.004748  -0.000000
  183        3.257961  -0.000000
  184        4.066356   0.000000

  0.2000000E+00  0.3742002E-15  0.1262379E-14  0.4444444E-01
    1      -13.831427   1.000000
    2      -13.124714   1.000000
    3      -12.623509   1.000000
    4      -12.242575   1.000000
    5      -11.970144   1.000000
    6      -11.705943   1.000000
    7      -11.550502   1.000000
    8      -11.260812   1.000000
    9      -11.250205   1.000000
   10      -11.170115   1.000000
   11      -11.119233   1.000000
   12      -11.034731   1.000000
   13      -10.865292   1.000000
   14      -10.692761   1.000000
   15      -10.636953   1.000000
   16      -10.509731   1.000000
   17      -10.453433   1.000000
   18      -10.123339   1.000000
   19      -10.050039   1.000000
   20       -9.630388   1.000000
   21       -9.602352   1.000000
   22       -9.420820   1.000000
   23       -9.368640   1.000000
   24       -9.286543   1.000000
   25       -9.097214   1.000000
   26       -8.975057   1.000000
   27       -8.581602   1.000000
   28       -8.294918   1.000000
   29       -8.282138   1.000000
   30       -8.161729   1.000000
   31       -8.036379   1.000000
   32       -7.993683   1.000000
   33       -7.626724   1.000000
   34       -7.620762   1.000000
   35       -7.400149   1.000000
   36       -7.173321   1.000000
   37       -7.099949   1.000000
   38       -7.059903   1.000000
   39       -7.030594   1.000000
   40       -6.749298   1.000000
   41       -6.597056   1.000000
   42       -6.595218   1.000000
   43       -6.558858   1.000000
   44       -6.507815   1.000000
   45       -6.394832   1.000000
   46       -6.329385   1.000000
   47       -6.095588   1.000000
   48       -6.067837   1.000000
   49       -6.021047   1.000000
   50       -5.940097   1.000000
   51       -5.902713   1.000000
   52       -5.880640   1.000000
   53       -5.672400   1.000000
   54       -5.522272   1.000000
   55       -5.490986   1.000000
   56       -5.488878   1.000000
   57       -5.369172   1.000000
   58       -5.352885   1.000000
   59       -5.264724   1.000000
   60       -5.258546   1.000000
   61       -5.191863   1.000000
   62       -5.080064   1.000000
   63       -4.972421   1.000000
   64       -4.751917   1.000000
   65       -4.700191   1.000000
   66       -4.586726   1.000000
   67       -4.574407   1.000000
   68       -4.557896   1.000000
   69       -4.509848   1.000000
   70       -4.479508   1.000000
   71       -4.232717   1.000000
   72       -4.221991   1.000000
   73       -4.128401   1.000000
   74       -4.080970   1.000000
   75       -4.027327   1.000000
   76       -4.017371   1.000000
   77       -3.941341   1.000000
   78       -3.893567   1.000000
   79       -3.850729   1.000000
   80       -3.827460   1.000000
   81       -3.823869   1.000000
   82       -3.789180   1.000000
   83       -3.752535   1.000000
   84       -3.712841   1.000000
   85       -3.642352   1.000000
   86       -3.525111   1.000000
   87       -3.494445   1.000000
   88       -3.464439   1.000000
   89       -3.460131   1.000000
   90       -3.410181   1.000000
   91       -3.339141   1.000000
   92       -3.082389   1.000000
   93       -3.037275   1.000000
   94       -3.026470   1.000000
   95       -3.006403   1.000000
   96       -2.931670   1.000000
   97       -2.926948   1.000000
   98       -2.719963   1.000000
   99       -2.708987   1.000000
  100       -2.634398   1.000000
  101       -2.591734   1.000000
  102       -2.497635   1.000000
  103       -2.360070   1.000000
  104       -2.253188   1.000000
  105       -2.166611   1.000000
  106       -2.147576   1.000000
  107       -2.095144   1.000000
  108       -2.086861   1.000000
  109       -2.026203   1.000000
  110       -1.989881   1.000000
  111       -1.937332   1.000000
  112       -1.863257   1.000000
  113       -1.826840   1.000000
  114       -1.752297   1.000000
  115       -1.668007   1.000000
  116       -1.622334   1.000000
  117       -1.600355   1.000000
  118       -1.520367   1.000000
  119       -1.383638   1.000000
  120       -1.289928   1.000000
  121       -1.164074   1.000000
  122       -1.123207   1.000000
  123       -0.987824   1.000000
  124       -0.853779   1.000000
  125       -0.802104   1.000000
  126       -0.740427   1.000000
  127       -0.686288   1.000000
  128       -0.438554   1.000000
  129       -0.364768   1.000000
  130       -0.352289   1.000000
  131       -0.282961   1.000000
  132       -0.147262   1.000000
  133       -0.076975   1.000000
  134        0.008441   1.000000
  135        0.159461   1.000000
  136        0.254728   1.000016
  137        0.366306   1.004216
  138        0.401843   1.013346
  139        0.477255   1.031247
  140        0.482810   1.027007
  141        0.528964   0.900112
  142        0.625882   0.182292
  143        0.713606  -0.034880
  144        0.778826  -0.009630
  145        0.782099  -0.008696
  146        0.793207  -0.006021
  147        0.793826  -0.005894
  148        0.810696  -0.003165
  149        0.824953  -0.001772
  150        0.877124  -0.000142
  151        1.170003  -0.000000
  152        1.230926  -0.000000
  153        1.310182  -0.000000
  154        1.329122  -0.000000
  155        1.355016  -0.000000
  156        1.396555  -0.000000
  157        1.404484  -0.000000
  158        1.423016  -0.000000
  159        1.467935  -0.000000
  160        1.533124  -0.000000
  161        1.603646  -0.000000
  162        1.612406  -0.000000
  163        1.651065  -0.000000
  164        1.703002  -0.000000
  165        1.742869  -0.000000
  166        1.757963  -0.000000
  167        1.791155  -0.000000
  168        1.838331  -0.000000
  169        1.861495  -0.000000
  170        1.875174  -0.000000
  171        1.940759  -0.000000
  172        1.993826  -0.000000
  173        2.050141  -0.000000
  174        2.125372  -0.000000
  175        2.198162  -0.000000
  176        2.245835  -0.000000
  177        2.327569  -0.000000
  178        2.409467  -0.000000
  179        2.458796  -0.000000
  180        2.587349  -0.000000
  181        2.839291  -0.000000
  182        3.046208  -0.000000
  183        3.477292   0.000000
  184        3.943724   0.000000

  0.4000000E+00  0.3742002E-15  0.1262379E-14  0.4444444E-01
    1      -13.686861   1.000000
    2      -13.449514   1.000000
    3      -12.490612   1.000000
    4      -12.272619   1.000000
    5      -11.701215   1.000000
    6      -11.674307   1.000000
    7      -11.620732   1.000000
    8      -11.223641   1.000000
    9      -11.188263   1.000000
   10      -11.119871   1.000000
   11      -11.034691   1.000000
   12      -11.006879   1.000000
   13      -10.937998   1.000000
   14      -10.844219   1.000000
   15      -10.730177   1.000000
   16      -10.581822   1.000000
   17      -10.561280   1.000000
   18      -10.210168   1.000000
   19      -10.088572   1.000000
   20       -9.869352   1.000000
   21       -9.500855   1.000000
   22       -9.444548   1.000000
   23       -9.213556   1.000000
   24       -9.208360   1.000000
   25       -9.110796   1.000000
   26       -8.845351   1.000000
   27       -8.431568   1.000000
   28       -8.308649   1.000000
   29       -8.187251   1.000000
   30       -8.076102   1.000000
   31       -7.801243   1.000000
   32       -7.795366   1.000000
   33       -7.782139   1.000000
   34       -7.644270   1.000000
   35       -7.539410   1.000000
   36       -7.488953   1.000000
   37       -7.302547   1.000000
   38       -7.297229   1.000000
   39       -7.065713   1.000000
   40       -6.903957   1.000000
   41       -6.673305   1.000000
   42       -6.470615   1.000000
   43       -6.464056   1.000000
   44       -6.437488   1.000000
   45       -6.371590   1.000000
   46       -6.329142   1.000000
   47       -6.218259   1.000000
   48       -5.985329   1.000000
   49       -5.921798   1.000000
   50       -5.860261   1.000000
   51       -5.768149   1.000000
   52       -5.758462   1.000000
   53       -5.646310   1.000000
   54       -5.628886   1.000000
   55       -5.579932   1.000000
   56       -5.493797   1.000000
   57       -5.375140   1.000000
   58       -5.248806   1.000000
   59       -5.229631   1.000000
   60       -5.227788   1.000000
   61       -5.042770   1.000000
   62       -4.984916   1.000000
   63       -4.862087   1.000000
   64       -4.801133   1.000000
   65       -4.770234   1.000000
   66       -4.705002   1.000000
   67       -4.654298   1.000000
   68       -4.586974   1.000000
   69       -4.513528   1.000000
   70       -4.377339   1.000000
   71       -4.298132   1.000000
   72       -4.229862   1.000000
   73       -4.170143   1.000000
   74       -4.073537   1.000000
   75       -4.038466   1.000000
   76       -4.024151   1.000000
   77       -3.994813   1.000000
   78       -3.954048   1.000000
   79       -3.857050   1.000000
   80       -3.838731   1.000000
   81       -3.818951   1.000000
   82       -3.757503   1.000000
   83       -3.703016   1.000000
   84       -3.649538   1.000000
   85       -3.621423   1.000000
   86       -3.528203   1.000000
   87       -3.521194   1.000000
   88       -3.482887   1.000000
   89       -3.334654   1.000000
   90       -3.319964   1.000000
   91       -3.231808   1.000000
   92       -3.210895   1.000000
   93       -3.195034   1.000000
   94       -3.168039   1.000000
   95       -3.090474   1.000000
   96       -3.040678   1.000000
   97       -2.867205   1.000000
   98       -2.863692   1.000000
   99       -2.736370   1.000000
  100       -2.732348   1.000000
  101       -2.627122   1.000000
  102       -2.425100   1.000000
  103       -2.335943   1.000000
  104       -2.273631   1.000000
  105       -2.171442   1.000000
  106       -2.152965   1.000000
  107       -1.971956   1.000000
  108       -1.949134   1.000000
  109       -1.882558   1.000000
  110       -1.863374   1.000000
  111       -1.786186   1.000000
  112       -1.754941   1.000000
  113       -1.744572   1.000000
  114       -1.699555   1.000000
  115       -1.666424   1.000000
  116       -1.639554   1.000000
  117       -1.533018   1.000000
  118       -1.320942   1.000000
  119       -1.264944   1.000000
  120       -1.240094   1.000000
  121       -1.223509   1.000000
  122       -1.101611   1.000000
  123       -1.088743   1.000000
  124       -0.992982   1.000000
  125       -0.904479   1.000000
  126       -0.775415   1.000000
  127       -0.751327   1.000000
  128       -0.748010   1.000000
  129       -0.730196   1.000000
  130       -0.531942   1.000000
  131       -0.349223   1.000000
  132       -0.314876   1.000000
  133       -0.091425   1.000000
  134       -0.050989   1.000000
  135        0.121137   1.000000
  136        0.352293   1.002447
  137        0.361582   1.003529
  138        0.364971   1.004012
  139        0.404595   1.014379
  140        0.435821   1.028135
  141        0.528380   0.902964
  142        0.630966   0.151274
  143        0.693339  -0.031909
  144        0.798074  -0.005074
  145        0.800774  -0.004602
  146        0.830399  -0.001402
  147        0.850540  -0.000555
  148        0.922280  -0.000010
  149        1.036117  -0.000000
  150        1.070686  -0.000000
  151        1.116353  -0.000000
  152        1.202591  -0.000000
  153        1.250920  -0.000000
  154        1.352751  -0.000000
  155        1.443393  -0.000000
  156        1.482204  -0.000000
  157        1.508137  -0.000000
  158        1.596567  -0.000000
  159        1.610195  -0.000000
  160        1.614791  -0.000000
  161        1.658125  -0.000000
  162        1.675179  -0.000000
  163        1.718501  -0.000000
  164        1.732196  -0.000000
  165        1.733967  -0.000000
  166        1.767755  -0.000000
  167        1.785316  -0.000000
  168        1.840400  -0.000000
  169        1.898356  -0.000000
  170        1.923438  -0.000000
  171        1.925203  -0.000000
  172        1.941521  -0.000000
  173        1.974263  -0.000000
  174        2.053341  -0.000000
  175        2.110706  -0.000000
  176        2.148567  -0.000000
  177        2.156901  -0.000000
  178        2.203008  -0.000000
  179        2.331390  -0.000000
  180        2.693370  -0.000000
  181        2.778835  -0.000000
  182        3.102306  -0.000000
  183        3.256741  -0.000000
  184        3.507931   0.000000

  0.3742002E-15  0.1111111E+00  0.1262379E-14  0.4444444E-01
    1      -13.833243   1.000000
    2      -12.699819   1.000000
    3      -12.665144   1.000000
    4      -12.629235   1.000000
    5      -11.821673   1.000000
    6      -11.627643   1.000000
    7      -11.531150   1.000000
    8      -11.510941   1.000000
    9      -11.353224   1.000000
   10      -11.297618   1.000000
   11      -11.142847   1.000000
   12      -10.996164   1.000000
   13      -10.959980   1.000000
   14      -10.598132   1.000000
   15      -10.564392   1.000000
   16      -10.440092   1.000000
   17      -10.050008   1.000000
   18      -10.041713   1.000000
   19       -9.952351   1.000000
   20       -9.859680   1.000000
   21       -9.636676   1.000000
   22       -9.595300   1.000000
   23       -9.447543   1.000000
   24       -9.280689   1.000000
   25       -8.895411   1.000000
   26       -8.882866   1.000000
   27       -8.820448   1.000000
   28       -8.442104   1.000000
   29       -8.355544   1.000000
   30       -8.272957   1.000000
   31       -7.924269   1.000000
   32       -7.807648   1.000000
   33       -7.755128   1.000000
   34       -7.652968   1.000000
   35       -7.265168   1.000000
   36       -7.263784   1.000000
   37       -7.166404   1.000000
   38       -6.946173   1.000000
   39       -6.822165   1.000000
   40       -6.589734   1.000000
   41       -6.551434   1.000000
   42       -6.546794   1.000000
   43       -6.504209   1.000000
   44       -6.436506   1.000000
   45       -6.362859   1.000000
   46       -6.344133   1.000000
   47       -6.305955   1.000000
   48       -6.134528   1.000000
   49       -6.122056   1.000000
   50       -6.007347   1.000000
   51       -5.926969   1.000000
   52       -5.768227   1.000000
   53       -5.701451   1.000000
   54       -5.663598   1.000000
   55       -5.560949   1.000000
   56       -5.518655   1.000000
   57       -5.443302   1.000000
   58       -5.349606   1.000000
   59       -5.181202   1.000000
   60       -5.159013   1.000000
   61       -5.144315   1.000000
   62       -5.058385   1.000000
   63       -4.881124   1.000000
   64       -4.733618   1.000000
   65       -4.677006   1.000000
   66       -4.564572   1.000000
   67       -4.536010   1.000000
   68       -4.493484   1.000000
   69       -4.469305   1.000000
   70       -4.445442   1.000000
   71       -4.301088   1.000000
   72       -4.267279   1.000000
   73       -4.205104   1.000000
   74       -4.089472   1.000000
   75       -4.059325   1.000000
   76       -3.995836   1.000000
   77       -3.968651   1.000000
   78       -3.964716   1.000000
   79       -3.907796   1.000000
   80       -3.874821   1.000000
   81       -3.866917   1.000000
   82       -3.798951   1.000000
   83       -3.747859   1.000000
   84       -3.662882   1.000000
   85       -3.662362   1.000000
   86       -3.617612   1.000000
   87       -3.581365   1.000000
   88       -3.520959   1.000000
   89       -3.434217   1.000000
   90       -3.423090   1.000000
   91       -3.402749   1.000000
   92       -3.151171   1.000000
   93       -3.012999   1.000000
   94       -2.901757   1.000000
   95       -2.894067   1.000000
   96       -2.871661   1.000000
   97       -2.701070   1.000000
   98       -2.663214   1.000000
   99       -2.647149   1.000000
  100       -2.603494   1.000000
  101       -2.551543   1.000000
  102       -2.527218   1.000000
  103       -2.412709   1.000000
  104       -2.400731   1.000000
  105       -2.276647   1.000000
  106       -2.236282   1.000000
  107       -2.174252   1.000000
  108       -2.085202   1.000000
  109       -2.081108   1.000000
  110       -2.037906   1.000000
  111       -1.950451   1.000000
  112       -1.943039   1.000000
  113       -1.928060   1.000000
  114       -1.806171   1.000000
  115       -1.775047   1.000000
  116       -1.624999   1.000000
  117       -1.513196   1.000000
  118       -1.490872   1.000000
  119       -1.466029   1.000000
  120       -1.301632   1.000000
  121       -1.182528   1.000000
  122       -1.111914   1.000000
  123       -0.897573   1.000000
  124       -0.800859   1.000000
  125       -0.758183   1.000000
  126       -0.701550   1.000000
  127       -0.573951   1.000000
  128       -0.533232   1.000000
  129       -0.408648   1.000000
  130       -0.204081   1.000000
  131       -0.129075   1.000000
  132       -0.104133   1.000000
  133        0.024534   1.000000
  134        0.090479   1.000000
  135        0.218803   1.000001
  136        0.253562   1.000015
  137        0.332036   1.001026
  138        0.349547   1.002188
  139        0.375707   1.005909
  140        0.421630   1.021639
  141        0.520651   0.937481
  142        0.537729   0.853189
  143        0.608715   0.303352
  144        0.689256  -0.029209
  145        0.694472  -0.032507
  146        0.751650  -0.019908
  147        0.814862  -0.002685
  148        0.885018  -0.000092
  149        0.911106  -0.000020
  150        1.106402  -0.000000
  151        1.164488  -0.000000
  152        1.217372  -0.000000
  153        1.233483  -0.000000
  154        1.309070  -0.000000
  155        1.346396  -0.000000
  156        1.380014  -0.000000
  157        1.426671  -0.000000
  158        1.436593  -0.000000
  159        1.452131  -0.000000
  160        1.555236  -0.000000
  161        1.570069  -0.000000
  162        1.579392  -0.000000
  163        1.592277  -0.000000
  164        1.614624  -0.000000
  165        1.704301  -0.000000
  166        1.745754  -0.000000
  167        1.784439  -0.000000
  168        1.837123  -0.000000
  169        1.870916  -0.000000
  170        1.890276  -0.000000
  171        1.930810  -0.000000
  172        1.936382  -0.000000
  173        1.982961  -0.000000
  174        1.986766  -0.000000
  175        2.008233  -0.000000
  176        2.071081  -0.000000
  177        2.121282  -0.000000
  178        2.179209  -0.000000
  179        2.231349  -0.000000
  180        2.313715  -0.000000
  181        2.405682  -0.000000
  182        2.585001  -0.000000
  183        2.756145  -0.000000
  184        2.910583  -0.000000

  0.2000000E+00  0.1111111E+00  0.1262379E-14  0.4444444E-01
    1      -13.785092   1.000000
    2      -13.084528   1.000000
    3      -12.585069   1.000000
    4      -12.211134   1.000000
    5      -11.939447   1.000000
    6      -11.805157   1.000000
    7      -11.604028   1.000000
    8      -11.281389   1.000000
    9      -11.271366   1.000000
   10      -11.147119   1.000000
   11      -11.118738   1.000000
   12      -11.053806   1.000000
   13      -10.863593   1.000000
   14      -10.674091   1.000000
   15      -10.632412   1.000000
   16      -10.496365   1.000000
   17      -10.456312   1.000000
   18      -10.117838   1.000000
   19      -10.049273   1.000000
   20       -9.616240   1.000000
   21       -9.592121   1.000000
   22       -9.449007   1.000000
   23       -9.362245   1.000000
   24       -9.289722   1.000000
   25       -9.104073   1.000000
   26       -8.965879   1.000000
   27       -8.584160   1.000000
   28       -8.298699   1.000000
   29       -8.281098   1.000000
   30       -8.158579   1.000000
   31       -8.052122   1.000000
   32       -7.844493   1.000000
   33       -7.691455   1.000000
   34       -7.628422   1.000000
   35       -7.476026   1.000000
   36       -7.230329   1.000000
   37       -7.086678   1.000000
   38       -7.022570   1.000000
   39       -6.976875   1.000000
   40       -6.727213   1.000000
   41       -6.633374   1.000000
   42       -6.584384   1.000000
   43       -6.541152   1.000000
   44       -6.495850   1.000000
   45       -6.485858   1.000000
   46       -6.422578   1.000000
   47       -6.100897   1.000000
   48       -6.061837   1.000000
   49       -5.990713   1.000000
   50       -5.938075   1.000000
   51       -5.847325   1.000000
   52       -5.792851   1.000000
   53       -5.674497   1.000000
   54       -5.540068   1.000000
   55       -5.503840   1.000000
   56       -5.430374   1.000000
   57       -5.379282   1.000000
   58       -5.356187   1.000000
   59       -5.224016   1.000000
   60       -5.183077   1.000000
   61       -5.149098   1.000000
   62       -5.067547   1.000000
   63       -4.946927   1.000000
   64       -4.721163   1.000000
   65       -4.708612   1.000000
   66       -4.618135   1.000000
   67       -4.531111   1.000000
   68       -4.510225   1.000000
   69       -4.469024   1.000000
   70       -4.448129   1.000000
   71       -4.253889   1.000000
   72       -4.248101   1.000000
   73       -4.154242   1.000000
   74       -4.057507   1.000000
   75       -4.046295   1.000000
   76       -4.034979   1.000000
   77       -4.020773   1.000000
   78       -3.977937   1.000000
   79       -3.923624   1.000000
   80       -3.901375   1.000000
   81       -3.885268   1.000000
   82       -3.801474   1.000000
   83       -3.744446   1.000000
   84       -3.715398   1.000000
   85       -3.637082   1.000000
   86       -3.548719   1.000000
   87       -3.529113   1.000000
   88       -3.496740   1.000000
   89       -3.490593   1.000000
   90       -3.398367   1.000000
   91       -3.315115   1.000000
   92       -3.132850   1.000000
   93       -3.059749   1.000000
   94       -3.033887   1.000000
   95       -2.914214   1.000000
   96       -2.905884   1.000000
   97       -2.851235   1.000000
   98       -2.752315   1.000000
   99       -2.688847   1.000000
  100       -2.673143   1.000000
  101       -2.602394   1.000000
  102       -2.488015   1.000000
  103       -2.388063   1.000000
  104       -2.285215   1.000000
  105       -2.251843   1.000000
  106       -2.175630   1.000000
  107       -2.139601   1.000000
  108       -2.048009   1.000000
  109       -1.979030   1.000000
  110       -1.971714   1.000000
  111       -1.943551   1.000000
  112       -1.886730   1.000000
  113       -1.818096   1.000000
  114       -1.786971   1.000000
  115       -1.728721   1.000000
  116       -1.637613   1.000000
  117       -1.616936   1.000000
  118       -1.522783   1.000000
  119       -1.332527   1.000000
  120       -1.240067   1.000000
  121       -1.214649   1.000000
  122       -1.173240   1.000000
  123       -0.915595   1.000000
  124       -0.873198   1.000000
  125       -0.843945   1.000000
  126       -0.793010   1.000000
  127       -0.664879   1.000000
  128       -0.585690   1.000000
  129       -0.366543   1.000000
  130       -0.312121   1.000000
  131       -0.147262   1.000000
  132       -0.101623   1.000000
  133        0.014096   1.000000
  134        0.102012   1.000000
  135        0.135311   1.000000
  136        0.159681   1.000000
  137        0.266266   1.000032
  138        0.317315   1.000514
  139        0.344300   1.001757
  140        0.521212   0.935176
  141        0.562670   0.681744
  142        0.601011   0.364224
  143        0.628533   0.165814
  144        0.675201  -0.012203
  145        0.743759  -0.023515
  146        0.783046  -0.008439
  147        0.787411  -0.007324
  148        0.962187  -0.000001
  149        0.992120  -0.000000
  150        1.024167  -0.000000
  151        1.172658  -0.000000
  152        1.205378  -0.000000
  153        1.298743  -0.000000
  154        1.330578  -0.000000
  155        1.412717  -0.000000
  156        1.456545  -0.000000
  157        1.457704  -0.000000