   49   49    1    1
  0.2411350E+02  0.8645320E-09  0.6085000E-09  0.2593596E-08  0.5000000E-15
   1.0000000000000000E-004
  CAR 
 Name                                    
    189    149    120

  0.3742002E-15  0.3742002E-15  0.3742002E-15  0.3367003E-02
    1      -14.026456   1.000000
    2      -12.668190   1.000000
    3      -12.538678   1.000000
    4      -12.011739   1.000000
    5      -11.597187   1.000000
    6      -11.222870   1.000000
    7      -11.213208   1.000000
    8      -11.178593   1.000000
    9      -11.067452   1.000000
   10      -10.750360   1.000000
   11      -10.735927   1.000000
   12      -10.343867   1.000000
   13      -10.249041   1.000000
   14      -10.184683   1.000000
   15       -9.817379   1.000000
   16       -9.777585   1.000000
   17       -8.993429   1.000000
   18       -8.976212   1.000000
   19       -8.932582   1.000000
   20       -8.654573   1.000000
   21       -8.562832   1.000000
   22       -8.529761   1.000000
   23       -8.239919   1.000000
   24       -8.149338   1.000000
   25       -8.042057   1.000000
   26       -8.033103   1.000000
   27       -7.369108   1.000000
   28       -7.261113   1.000000
   29       -6.782030   1.000000
   30       -6.571182   1.000000
   31       -6.532917   1.000000
   32       -6.209604   1.000000
   33       -6.073127   1.000000
   34       -5.996857   1.000000
   35       -5.721588   1.000000
   36       -5.640327   1.000000
   37       -5.540778   1.000000
   38       -5.517093   1.000000
   39       -5.312278   1.000000
   40       -5.213722   1.000000
   41       -5.192438   1.000000
   42       -5.139398   1.000000
   43       -5.099367   1.000000
   44       -4.917477   1.000000
   45       -4.876178   1.000000
   46       -4.805526   1.000000
   47       -4.779584   1.000000
   48       -4.659539   1.000000
   49       -4.607790   1.000000
   50       -4.587293   1.000000
   51       -4.498336   1.000000
   52       -4.461997   1.000000
   53       -4.411119   1.000000
   54       -4.385007   1.000000
   55       -4.203584   1.000000
   56       -4.099354   1.000000
   57       -4.057737   1.000000
   58       -4.051712   1.000000
   59       -3.941077   1.000000
   60       -3.807113   1.000000
   61       -3.607689   1.000000
   62       -3.491952   1.000000
   63       -3.468940   1.000000
   64       -3.449838   1.000000
   65       -3.413184   1.000000
   66       -3.394127   1.000000
   67       -3.290261   1.000000
   68       -3.269461   1.000000
   69       -3.162587   1.000000
   70       -3.129633   1.000000
   71       -3.028829   1.000000
   72       -2.769675   1.000000
   73       -2.746406   1.000000
   74       -2.530149   1.000000
   75       -2.435965   1.000000
   76       -2.364603   1.000000
   77       -2.301473   1.000000
   78       -2.201152   1.000000
   79       -2.130870   1.000000
   80       -2.012805   1.000000
   81       -1.788318   1.000000
   82       -1.583538   1.000000
   83       -1.289124   1.000000
   84       -1.270019   1.000000
   85       -1.151159   1.000000
   86       -1.077170   1.000000
   87       -0.988714   1.000000
   88       -0.952986   1.000000
   89       -0.762576   1.000000
   90       -0.405455   1.000000
   91       -0.241371   1.000244
   92       -0.074803   1.034670
   93        0.013728   0.720377
   94        0.064401   0.306636
   95        0.178224  -0.032685
   96        0.197616  -0.024560
   97        0.218146  -0.015489
   98        0.553302  -0.000000
   99        0.572377  -0.000000
  100        0.585837  -0.000000
  101        0.677546  -0.000000
  102        0.764944  -0.000000
  103        0.784511  -0.000000
  104        0.827954  -0.000000
  105        0.895552  -0.000000
  106        1.234148  -0.000000
  107        1.244570  -0.000000
  108        1.280143  -0.000000
  109        1.306602  -0.000000
  110        1.393546  -0.000000
  111        1.409620  -0.000000
  112        1.448670  -0.000000
  113        1.499221  -0.000000
  114        1.607441  -0.000000
  115        1.636645  -0.000000
  116        1.726638  -0.000000
  117        1.782840  -0.000000
  118        1.922327  -0.000000
  119        2.049641  -0.000000
  120        2.561988  -0.000000

  0.1111111E+00  0.3729374E-15  0.3860503E-15  0.6734007E-02
    1      -13.999517   1.000000
    2      -12.672543   1.000000
    3      -12.623876   1.000000
    4      -11.956654   1.000000
    5      -11.582762   1.000000
    6      -11.224851   1.000000
    7      -11.202504   1.000000
    8      -11.169391   1.000000
    9      -11.095662   1.000000
   10      -10.747690   1.000000
   11      -10.731667   1.000000
   12      -10.364726   1.000000
   13      -10.245852   1.000000
   14      -10.179928   1.000000
   15       -9.803583   1.000000
   16       -9.765910   1.000000
   17       -8.989423   1.000000
   18       -8.965876   1.000000
   19       -8.929934   1.000000
   20       -8.671100   1.000000
   21       -8.573307   1.000000
   22       -8.522696   1.000000
   23       -8.297449   1.000000
   24       -8.164429   1.000000
   25       -8.068864   1.000000
   26       -8.024768   1.000000
   27       -7.457846   1.000000
   28       -7.262713   1.000000
   29       -6.725939   1.000000
   30       -6.542599   1.000000
   31       -6.509608   1.000000
   32       -6.188459   1.000000
   33       -6.045091   1.000000
   34       -5.978444   1.000000
   35       -5.705186   1.000000
   36       -5.642007   1.000000
   37       -5.527298   1.000000
   38       -5.459664   1.000000
   39       -5.441845   1.000000
   40       -5.251491   1.000000
   41       -5.170122   1.000000
   42       -5.088335   1.000000
   43       -5.064987   1.000000
   44       -4.878974   1.000000
   45       -4.830600   1.000000
   46       -4.785930   1.000000
   47       -4.774521   1.000000
   48       -4.687139   1.000000
   49       -4.602090   1.000000
   50       -4.567588   1.000000
   51       -4.486778   1.000000
   52       -4.439021   1.000000
   53       -4.406931   1.000000
   54       -4.361296   1.000000
   55       -4.204650   1.000000
   56       -4.117719   1.000000
   57       -4.074045   1.000000
   58       -4.034365   1.000000
   59       -3.945254   1.000000
   60       -3.803778   1.000000
   61       -3.639279   1.000000
   62       -3.508330   1.000000
   63       -3.453266   1.000000
   64       -3.427402   1.000000
   65       -3.416984   1.000000
   66       -3.389751   1.000000
   67       -3.293840   1.000000
   68       -3.259550   1.000000
   69       -3.189294   1.000000
   70       -3.149048   1.000000
   71       -3.052104   1.000000
   72       -2.810598   1.000000
   73       -2.735488   1.000000
   74       -2.527021   1.000000
   75       -2.444524   1.000000
   76       -2.413262   1.000000
   77       -2.274500   1.000000
   78       -2.260316   1.000000
   79       -2.159918   1.000000
   80       -2.033868   1.000000
   81       -1.684914   1.000000
   82       -1.627152   1.000000
   83       -1.318885   1.000000
   84       -1.296366   1.000000
   85       -1.113921   1.000000
   86       -1.044881   1.000000
   87       -0.993487   1.000000
   88       -0.843433   1.000000
   89       -0.805228   1.000000
   90       -0.469970   1.000000
   91       -0.295985   1.000010
   92       -0.055062   1.020339
   93        0.053630   0.392756
   94        0.082118   0.181506
   95        0.152597  -0.033418
   96        0.188455  -0.028702
   97        0.222112  -0.013948
   98        0.526487  -0.000000
   99        0.584645  -0.000000
  100        0.600883  -0.000000
  101        0.692182  -0.000000
  102        0.782722  -0.000000
  103        0.811141  -0.000000
  104        0.841500  -0.000000
  105        0.928950  -0.000000
  106        1.231794  -0.000000
  107        1.242353  -0.000000
  108        1.261768  -0.000000
  109        1.339306  -0.000000
  110        1.395420  -0.000000
  111        1.430204  -0.000000
  112        1.478405  -0.000000
  113        1.522618  -0.000000
  114        1.623822  -0.000000
  115        1.651757  -0.000000
  116        1.703228  -0.000000
  117        1.760105  -0.000000
  118        1.906503  -0.000000
  119        1.936249  -0.000000
  120        2.138581  -0.000000

  0.2222222E+00  0.3922785E-15  0.3630220E-15  0.6734007E-02
    1      -13.919487   1.000000
    2      -12.892051   1.000000
    3      -12.566871   1.000000
    4      -11.912627   1.000000
    5      -11.543371   1.000000
    6      -11.246251   1.000000
    7      -11.182568   1.000000
    8      -11.160123   1.000000
    9      -11.093998   1.000000
   10      -10.738452   1.000000
   11      -10.718731   1.000000
   12      -10.441633   1.000000
   13      -10.241455   1.000000
   14      -10.173274   1.000000
   15       -9.757775   1.000000
   16       -9.727396   1.000000
   17       -9.021478   1.000000
   18       -8.946396   1.000000
   19       -8.856015   1.000000
   20       -8.723843   1.000000
   21       -8.620023   1.000000
   22       -8.517751   1.000000
   23       -8.416744   1.000000
   24       -8.233278   1.000000
   25       -8.146447   1.000000
   26       -7.928451   1.000000
   27       -7.670864   1.000000
   28       -7.223476   1.000000
   29       -6.636638   1.000000
   30       -6.489638   1.000000
   31       -6.463490   1.000000
   32       -6.230447   1.000000
   33       -5.958239   1.000000
   34       -5.902444   1.000000
   35       -5.784450   1.000000
   36       -5.624653   1.000000
   37       -5.572149   1.000000
   38       -5.375688   1.000000
   39       -5.310735   1.000000
   40       -5.256322   1.000000
   41       -5.133010   1.000000
   42       -5.034214   1.000000
   43       -4.983657   1.000000
   44       -4.974160   1.000000
   45       -4.836762   1.000000
   46       -4.768805   1.000000
   47       -4.680441   1.000000
   48       -4.655138   1.000000
   49       -4.586247   1.000000
   50       -4.516972   1.000000
   51       -4.440220   1.000000
   52       -4.412878   1.000000
   53       -4.377755   1.000000
   54       -4.296095   1.000000
   55       -4.213030   1.000000
   56       -4.144453   1.000000
   57       -4.103515   1.000000
   58       -4.003983   1.000000
   59       -3.943389   1.000000
   60       -3.790604   1.000000
   61       -3.696935   1.000000
   62       -3.556296   1.000000
   63       -3.491225   1.000000
   64       -3.440956   1.000000
   65       -3.418071   1.000000
   66       -3.362347   1.000000
   67       -3.343485   1.000000
   68       -3.243494   1.000000
   69       -3.215519   1.000000
   70       -3.141740   1.000000
   71       -3.033358   1.000000
   72       -2.927928   1.000000
   73       -2.666348   1.000000
   74       -2.590322   1.000000
   75       -2.507556   1.000000
   76       -2.462621   1.000000
   77       -2.394081   1.000000
   78       -2.250367   1.000000
   79       -2.243442   1.000000
   80       -2.006574   1.000000
   81       -1.763995   1.000000
   82       -1.458946   1.000000
   83       -1.393870   1.000000
   84       -1.360479   1.000000
   85       -1.031326   1.000000
   86       -1.013401   1.000000
   87       -0.928442   1.000000
   88       -0.873842   1.000000
   89       -0.614028   1.000000
   90       -0.585397   1.000000
   91       -0.428621   1.000000
   92       -0.126841   1.019567
   93        0.064482   0.306012
   94        0.108307   0.049290
   95        0.143718  -0.027859
   96        0.209387  -0.019186
   97        0.381268  -0.000008
   98        0.507977  -0.000000
   99        0.530853  -0.000000
  100        0.548450  -0.000000
  101        0.745519  -0.000000
  102        0.843216  -0.000000
  103        0.873561  -0.000000
  104        0.889470  -0.000000
  105        0.999644  -0.000000
  106        1.178437  -0.000000
  107        1.283696  -0.000000
  108        1.285428  -0.000000
  109        1.384906  -0.000000
  110        1.430171  -0.000000
  111        1.441158  -0.000000
  112        1.547605  -0.000000
  113        1.572017  -0.000000
  114        1.647124  -0.000000
  115        1.695499  -0.000000
  116        1.737355  -0.000000
  117        1.856960  -0.000000
  118        1.921746  -0.000000
  119        1.984007  -0.000000
  120        4.092451   0.000000

  0.3333333E+00  0.3713828E-15  0.3468587E-15  0.6734007E-02
    1      -13.788812   1.000000
    2      -13.148836   1.000000
    3      -12.454879   1.000000
    4      -11.977462   1.000000
    5      -11.490746   1.000000
    6      -11.273178   1.000000
    7      -11.165923   1.000000
    8      -11.156567   1.000000
    9      -11.009523   1.000000
   10      -10.724425   1.000000
   11      -10.700337   1.000000
   12      -10.570857   1.000000
   13      -10.244331   1.000000
   14      -10.176388   1.000000
   15       -9.676552   1.000000
   16       -9.662341   1.000000
   17       -9.099430   1.000000
   18       -8.938385   1.000000
   19       -8.780060   1.000000
   20       -8.730743   1.000000
   21       -8.689668   1.000000
   22       -8.528996   1.000000
   23       -8.495847   1.000000
   24       -8.319776   1.000000
   25       -8.237838   1.000000
   26       -7.940414   1.000000
   27       -7.728560   1.000000
   28       -7.122035   1.000000
   29       -6.674864   1.000000
   30       -6.450843   1.000000
   31       -6.426385   1.000000
   32       -6.321444   1.000000
   33       -6.058208   1.000000
   34       -5.821927   1.000000
   35       -5.721116   1.000000
   36       -5.501390   1.000000
   37       -5.458765   1.000000
   38       -5.280927   1.000000
   39       -5.248664   1.000000
   40       -5.189024   1.000000
   41       -5.167450   1.000000
   42       -5.032335   1.000000
   43       -4.997106   1.000000
   44       -4.899491   1.000000
   45       -4.827333   1.000000
   46       -4.758365   1.000000
   47       -4.671446   1.000000
   48       -4.623817   1.000000
   49       -4.519104   1.000000
   50       -4.504362   1.000000
   51       -4.407207   1.000000
   52       -4.351898   1.000000
   53       -4.304940   1.000000
   54       -4.244024   1.000000
   55       -4.210635   1.000000
   56       -4.172837   1.000000
   57       -4.069608   1.000000
   58       -3.972222   1.000000
   59       -3.940364   1.000000
   60       -3.810952   1.000000
   61       -3.717610   1.000000
   62       -3.675750   1.000000
   63       -3.547821   1.000000
   64       -3.512969   1.000000
   65       -3.439133   1.000000
   66       -3.400742   1.000000
   67       -3.334535   1.000000
   68       -3.248130   1.000000
   69       -3.215438   1.000000
   70       -3.081529   1.000000
   71       -2.969690   1.000000
   72       -2.930008   1.000000
   73       -2.785595   1.000000
   74       -2.613819   1.000000
   75       -2.599312   1.000000
   76       -2.491224   1.000000
   77       -2.482160   1.000000
   78       -2.340871   1.000000
   79       -2.279601   1.000000
   80       -1.937493   1.000000
   81       -1.866599   1.000000
   82       -1.546404   1.000000
   83       -1.450061   1.000000
   84       -1.187623   1.000000
   85       -1.112840   1.000000
   86       -0.882166   1.000000
   87       -0.834889   1.000000
   88       -0.809436   1.000000
   89       -0.742359   1.000000
   90       -0.569008   1.000000
   91       -0.325425   1.000001
   92       -0.278790   1.000030
   93        0.066052   0.293994
   94        0.097642   0.094867
   95        0.146672  -0.030167
   96        0.305480  -0.000587
   97        0.370158  -0.000017
   98        0.437860  -0.000000
   99        0.468060  -0.000000
  100        0.764723  -0.000000
  101        0.853954  -0.000000
  102        0.868037  -0.000000
  103        0.908853  -0.000000
  104        0.945178  -0.000000
  105        1.013567  -0.000000
  106        1.088187  -0.000000
  107        1.361167  -0.000000
  108        1.382613  -0.000000
  109        1.421205  -0.000000
  110        1.440749  -0.000000
  111        1.502252  -0.000000
  112        1.542823  -0.000000
  113        1.574774  -0.000000
  114        1.598220  -0.000000
  115        1.710844  -0.000000
  116        1.772921  -0.000000
  117        1.816973  -0.000000
  118        1.885598  -0.000000
  119        1.992569  -0.000000
  120        2.068101  -0.000000

  0.4444444E+00  0.3870091E-15  0.3932070E-15  0.6734007E-02
    1      -13.612099   1.000000
    2      -13.394123   1.000000
    3      -12.317315   1.000000
    4      -12.113092   1.000000
    5      -11.447638   1.000000
    6      -11.286182   1.000000
    7      -11.155658   1.000000
    8      -11.151935   1.000000
    9      -10.891403   1.000000
   10      -10.736344   1.000000
   11      -10.697825   1.000000
   12      -10.682005   1.000000
   13      -10.251723   1.000000
   14      -10.185034   1.000000
   15       -9.601517   1.000000
   16       -9.586977   1.000000
   17       -9.199503   1.000000
   18       -8.937244   1.000000
   19       -8.823725   1.000000
   20       -8.786403   1.000000
   21       -8.571038   1.000000
   22       -8.545315   1.000000
   23       -8.447491   1.000000
   24       -8.373953   1.000000
   25       -8.299066   1.000000
   26       -8.202621   1.000000
   27       -7.508023   1.000000
   28       -7.087971   1.000000
   29       -6.762967   1.000000
   30       -6.458690   1.000000
   31       -6.414915   1.000000
   32       -6.382398   1.000000
   33       -6.181407   1.000000
   34       -5.656265   1.000000
   35       -5.555708   1.000000
   36       -5.474480   1.000000
   37       -5.365776   1.000000
   38       -5.342102   1.000000
   39       -5.275075   1.000000
   40       -5.206366   1.000000
   41       -5.094561   1.000000
   42       -5.019425   1.000000
   43       -4.937608   1.000000
   44       -4.849419   1.000000
   45       -4.801741   1.000000
   46       -4.727636   1.000000
   47       -4.664633   1.000000
   48       -4.660204   1.000000
   49       -4.544402   1.000000
   50       -4.430543   1.000000
   51       -4.375209   1.000000
   52       -4.345618   1.000000
   53       -4.308256   1.000000
   54       -4.220909   1.000000
   55       -4.133542   1.000000
   56       -4.113693   1.000000
   57       -4.059853   1.000000
   58       -3.962494   1.000000
   59       -3.890813   1.000000
   60       -3.885442   1.000000
   61       -3.803813   1.000000
   62       -3.701729   1.000000
   63       -3.613667   1.000000
   64       -3.534186   1.000000
   65       -3.492998   1.000000
   66       -3.382354   1.000000
   67       -3.342068   1.000000
   68       -3.238172   1.000000
   69       -3.225129   1.000000
   70       -3.050485   1.000000
   71       -2.947480   1.000000
   72       -2.905960   1.000000
   73       -2.779718   1.000000
   74       -2.710765   1.000000
   75       -2.671255   1.000000
   76       -2.606759   1.000000
   77       -2.430863   1.000000
   78       -2.380195   1.000000
   79       -2.245449   1.000000
   80       -2.111736   1.000000
   81       -1.752122   1.000000
   82       -1.658697   1.000000
   83       -1.429915   1.000000
   84       -1.255399   1.000000
   85       -1.028793   1.000000
   86       -0.893726   1.000000
   87       -0.816064   1.000000
   88       -0.792730   1.000000
   89       -0.633425   1.000000
   90       -0.523065   1.000000
   91       -0.449321   1.000000
   92       -0.184812   1.003204
   93        0.027662   0.610475
   94        0.093665   0.114795
   95        0.125747  -0.001553
   96        0.280975  -0.001779
   97        0.377100  -0.000011
   98        0.400059  -0.000002
   99        0.619504  -0.000000
  100        0.757647  -0.000000
  101        0.800400  -0.000000
  102        0.880040  -0.000000
  103        0.909661  -0.000000
  104        0.973871  -0.000000
  105        1.205051  -0.000000
  106        1.220828  -0.000000
  107        1.319924  -0.000000
  108        1.436607  -0.000000
  109        1.457177  -0.000000
  110        1.510140  -0.000000
  111        1.528000  -0.000000
  112        1.558454  -0.000000
  113        1.592978  -0.000000
  114        1.606513  -0.000000
  115        1.713393  -0.000000
  116        1.781304  -0.000000
  117        1.822156  -0.000000
  118        1.874302  -0.000000
  119        2.073047  -0.000000
  120        2.186264  -0.000000

  0.3742002E-15  0.9090909E-01  0.3596334E-15  0.6734007E-02
    1      -13.993319   1.000000
    2      -12.640090   1.000000
    3      -12.542130   1.000000
    4      -11.980416   1.000000
    5      -11.578202   1.000000
    6      -11.398511   1.000000
    7      -11.345894   1.000000
    8      -11.175042   1.000000
    9      -11.064897   1.000000
   10      -10.756496   1.000000
   11      -10.709147   1.000000
   12      -10.324697   1.000000
   13      -10.207229   1.000000
   14      -10.133242   1.000000
   15       -9.808922   1.000000
   16       -9.764693   1.000000
   17       -9.100361   1.000000
   18       -9.001851   1.000000
   19       -8.950375   1.000000
   20       -8.638039   1.000000
   21       -8.608455   1.000000
   22       -8.484367   1.000000
   23       -8.068112   1.000000
   24       -8.021622   1.000000
   25       -7.910465   1.000000
   26       -7.898360   1.000000
   27       -7.419930   1.000000
   28       -7.228644   1.000000
   29       -6.745902   1.000000
   30       -6.609249   1.000000
   31       -6.524426   1.000000
   32       -6.194838   1.000000
   33       -6.104766   1.000000
   34       -5.976046   1.000000
   35       -5.736305   1.000000
   36       -5.656535   1.000000
   37       -5.509309   1.000000
   38       -5.470841   1.000000
   39       -5.387586   1.000000
   40       -5.273821   1.000000
   41       -5.202680   1.000000
   42       -5.144077   1.000000
   43       -5.094624   1.000000
   44       -5.052663   1.000000
   45       -4.916572   1.000000
   46       -4.826590   1.000000
   47       -4.798676   1.000000
   48       -4.716425   1.000000
   49       -4.628276   1.000000
   50       -4.578107   1.000000
   51       -4.539153   1.000000
   52       -4.454450   1.000000
   53       -4.405273   1.000000
   54       -4.368207   1.000000
   55       -4.280512   1.000000
   56       -4.127236   1.000000
   57       -4.048046   1.000000
   58       -3.968942   1.000000
   59       -3.963347   1.000000
   60       -3.838109   1.000000
   61       -3.604886   1.000000
   62       -3.532911   1.000000
   63       -3.477958   1.000000
   64       -3.460117   1.000000
   65       -3.390544   1.000000
   66       -3.360807   1.000000
   67       -3.289720   1.000000
   68       -3.277747   1.000000
   69       -3.141576   1.000000
   70       -3.098173   1.000000
   71       -3.031262   1.000000
   72       -2.916879   1.000000
   73       -2.754994   1.000000
   74       -2.429505   1.000000
   75       -2.419828   1.000000
   76       -2.393499   1.000000
   77       -2.291431   1.000000
   78       -2.205708   1.000000
   79       -2.092101   1.000000
   80       -2.023452   1.000000
   81       -1.816381   1.000000
   82       -1.510620   1.000000
   83       -1.321453   1.000000
   84       -1.287058   1.000000
   85       -1.232053   1.000000
   86       -1.081879   1.000000
   87       -1.050562   1.000000
   88       -0.997689   1.000000
   89       -0.684602   1.000000
   90       -0.524716   1.000000
   91       -0.305633   1.000005
   92       -0.109718   1.027401
   93       -0.089102   1.034682
   94       -0.022512   0.934497
   95        0.157793  -0.034951
   96        0.192864  -0.026742
   97        0.227896  -0.011871
   98        0.421584  -0.000001
   99        0.440954  -0.000000
  100        0.583944  -0.000000
  101        0.780261  -0.000000
  102        0.835910  -0.000000
  103        0.862853  -0.000000
  104        0.954843  -0.000000
  105        1.039331  -0.000000
  106        1.151260  -0.000000
  107        1.184595  -0.000000
  108        1.301371  -0.000000
  109        1.310718  -0.000000
  110        1.398217  -0.000000
  111        1.420041  -0.000000
  112        1.468046  -0.000000
  113        1.537104  -0.000000
  114        1.622766  -0.000000
  115        1.650358  -0.000000
  116        1.722824  -0.000000
  117        1.743736  -0.000000
  118        1.849957  -0.000000
  119        1.933988  -0.000000
  120        2.079977  -0.000000

  0.1111111E+00  0.9090909E-01  0.4822234E-15  0.6734007E-02
    1      -13.944651   1.000000
    2      -12.729199   1.000000
    3      -12.587363   1.000000
    4      -11.911357   1.000000
    5      -11.553132   1.000000
    6      -11.442523   1.000000
    7      -11.291788   1.000000
    8      -11.167610   1.000000
    9      -11.099655   1.000000
   10      -10.757474   1.000000
   11      -10.650403   1.000000
   12      -10.368228   1.000000
   13      -10.239659   1.000000
   14      -10.156872   1.000000
   15       -9.770811   1.000000
   16       -9.717356   1.000000
   17       -9.130912   1.000000
   18       -8.985307   1.000000
   19       -8.901047   1.000000
   20       -8.707267   1.000000
   21       -8.635902   1.000000
   22       -8.478879   1.000000
   23       -8.157731   1.000000
   24       -8.004239   1.000000
   25       -7.928925   1.000000
   26       -7.905476   1.000000
   27       -7.557037   1.000000
   28       -7.220922   1.000000
   29       -6.666741   1.000000
   30       -6.625237   1.000000
   31       -6.430461   1.000000
   32       -6.171061   1.000000
   33       -6.092273   1.000000
   34       -5.943920   1.000000
   35       -5.762591   1.000000
   36       -5.615013   1.000000
   37       -5.522618   1.000000
   38       -5.417678   1.000000
   39       -5.401515   1.000000
   40       -5.317613   1.000000
   41       -5.172423   1.000000
   42       -5.135532   1.000000
   43       -5.073087   1.000000
   44       -5.014853   1.000000
   45       -4.862897   1.000000
   46       -4.805227   1.000000
   47       -4.708151   1.000000
   48       -4.704375   1.000000
   49       -4.591717   1.000000
   50       -4.547261   1.000000
   51       -4.522394   1.000000
   52       -4.478011   1.000000
   53       -4.400618   1.000000
   54       -4.338781   1.000000
   55       -4.281326   1.000000
   56       -4.138632   1.000000
   57       -4.047751   1.000000
   58       -3.975687   1.000000
   59       -3.941228   1.000000
   60       -3.843554   1.000000
   61       -3.658818   1.000000
   62       -3.545256   1.000000
   63       -3.530107   1.000000
   64       -3.474268   1.000000
   65       -3.375294   1.000000
   66       -3.347363   1.000000
   67       -3.268476   1.000000
   68       -3.246437   1.000000
   69       -3.179069   1.000000
   70       -3.128042   1.000000
   71       -3.063189   1.000000
   72       -2.963562   1.000000
   73       -2.706708   1.000000
   74       -2.500533   1.000000
   75       -2.462947   1.000000
   76       -2.443341   1.000000
   77       -2.300555   1.000000
   78       -2.266508   1.000000
   79       -2.089923   1.000000
   80       -2.042946   1.000000
   81       -1.802192   1.000000
   82       -1.483806   1.000000
   83       -1.415073   1.000000
   84       -1.371874   1.000000
   85       -1.180050   1.000000
   86       -1.040055   1.000000
   87       -0.923065   1.000000
   88       -0.831593   1.000000
   89       -0.737811   1.000000
   90       -0.609744   1.000000
   91       -0.325205   1.000001
   92       -0.123134   1.021238
   93       -0.081291   1.035456
   94        0.103219   0.069604
   95        0.129012  -0.008099
   96        0.191289  -0.027452
   97        0.208936  -0.019386
   98        0.369427  -0.000017
   99        0.385987  -0.000006
  100        0.713824  -0.000000
  101        0.805719  -0.000000
  102        0.826677  -0.000000
  103        0.885658  -0.000000
  104        0.982344  -0.000000
  105        1.030103  -0.000000
  106        1.129425  -0.000000
  107        1.255445  -0.000000
  108        1.267777  -0.000000
  109        1.344550  -0.000000
  110        1.354202  -0.000000
  111        1.471390  -0.000000
  112        1.515132  -0.000000
  113        1.583035  -0.000000
  114        1.624440  -0.000000
  115        1.669612  -0.000000
  116        1.706936  -0.000000
  117        1.868358  -0.000000
  118        1.899975  -0.000000
  119        2.007056  -0.000000
  120        3.785458   0.000000

  0.2222222E+00  0.9090909E-01  0.3065600E-15  0.6734007E-02
    1      -13.843951   1.000000
    2      -12.974227   1.000000
    3      -12.501274   1.000000
    4      -11.909664   1.000000
    5      -11.514245   1.000000
    6      -11.469478   1.000000
    7      -11.247092   1.000000
    8      -11.208441   1.000000
    9      -11.047547   1.000000
   10      -10.725760   1.000000
   11      -10.568016   1.000000
   12      -10.467276   1.000000
   13      -10.308234   1.000000
   14      -10.197191   1.000000
   15       -9.695086   1.000000
   16       -9.624743   1.000000
   17       -9.166739   1.000000
   18       -9.027178   1.000000
   19       -8.791121   1.000000
   20       -8.759872   1.000000
   21       -8.707889   1.000000
   22       -8.519672   1.000000
   23       -8.260430   1.000000
   24       -8.035282   1.000000
   25       -7.972333   1.000000
   26       -7.813882   1.000000
   27       -7.770318   1.000000
   28       -7.157044   1.000000
   29       -6.649379   1.000000
   30       -6.598406   1.000000
   31       -6.340670   1.000000
   32       -6.246776   1.000000
   33       -6.062667   1.000000
   34       -5.887659   1.000000
   35       -5.783274   1.000000
   36       -5.631039   1.000000
   37       -5.419672   1.000000
   38       -5.364205   1.000000
   39       -5.318076   1.000000
   40       -5.255177   1.000000
   41       -5.200525   1.000000
   42       -5.085002   1.000000
   43       -5.037211   1.000000
   44       -4.961339   1.000000
   45       -4.823988   1.000000
   46       -4.790318   1.000000
   47       -4.681410   1.000000
   48       -4.666949   1.000000