 running on   60 total cores
 distrk:  each k-point on   60 cores,    1 groups
 distr:  one band on   10 cores,    6 groups
 using from now: INCAR     
 vasp.5.4.4.18Apr17-6-g9f103f2a35 (build Dec  7 2020 12:43:57) complex           
 POSCAR found type information on POSCAR  V  B  H 
 POSCAR found :  3 types and      49 ions
 scaLAPACK will be used
 LDA part: xc-table for Pade appr. of Perdew
 POSCAR, INCAR and KPOINTS ok, starting setup
 FFT: planning ...
 WAVECAR not read
 WARNING: random wavefunctions but no delay for mixing, default for NELMDL
 entering main loop
       N       E                     dE             d eps       ncg     rms          rms(c)
DAV:   1     0.296590063946E+04    0.29659E+04   -0.14209E+05 30912   0.150E+03
DAV:   2    -0.203179144831E+03   -0.31691E+04   -0.30893E+04 28932   0.458E+02
DAV:   3    -0.437071944724E+03   -0.23389E+03   -0.22976E+03 33804   0.128E+02
DAV:   4    -0.444657436220E+03   -0.75855E+01   -0.74847E+01 31848   0.220E+01
DAV:   5    -0.444906891471E+03   -0.24946E+00   -0.24832E+00 33180   0.371E+00    0.103E+02
DAV:   6    -0.415736326663E+03    0.29171E+02   -0.10228E+03 33132   0.929E+01    0.649E+01
DAV:   7    -0.460924021070E+03   -0.45188E+02   -0.12455E+03 37512   0.117E+02    0.678E+01
DAV:   8    -0.391701878091E+03    0.69222E+02   -0.69445E+02 35280   0.762E+01    0.441E+01
DAV:   9    -0.376783888726E+03    0.14918E+02   -0.16378E+02 31992   0.339E+01    0.394E+01
DAV:  10    -0.367407674322E+03    0.93762E+01   -0.59813E+01 32724   0.229E+01    0.272E+01
DAV:  11    -0.362925624721E+03    0.44820E+01   -0.30359E+01 33756   0.161E+01    0.175E+01
DAV:  12    -0.360114298840E+03    0.28113E+01   -0.90988E+00 33180   0.898E+00    0.750E+00
DAV:  13    -0.359913199479E+03    0.20110E+00   -0.77028E-01 33720   0.295E+00    0.606E+00
DAV:  14    -0.359712013600E+03    0.20119E+00   -0.17724E+00 33492   0.489E+00    0.525E+00
DAV:  15    -0.359488000402E+03    0.22401E+00   -0.22600E+00 33300   0.512E+00    0.307E+00
DAV:  16    -0.359447319927E+03    0.40680E-01   -0.23865E-01 33660   0.192E+00    0.218E+00
DAV:  17    -0.359421750922E+03    0.25569E-01   -0.20231E-01 33804   0.195E+00    0.174E+00
DAV:  18    -0.359391940584E+03    0.29810E-01   -0.11880E-01 33564   0.140E+00    0.751E-01
DAV:  19    -0.359383600307E+03    0.83403E-02   -0.33177E-02 32628   0.747E-01    0.293E-01
DAV:  20    -0.359382666803E+03    0.93350E-03   -0.11478E-02 33228   0.358E-01    0.224E-01
DAV:  21    -0.359381801405E+03    0.86540E-03   -0.46147E-03 30984   0.244E-01    0.123E-01
DAV:  22    -0.359381990446E+03   -0.18904E-03   -0.31595E-03 30852   0.169E-01    0.104E-01
DAV:  23    -0.359382163188E+03   -0.17274E-03   -0.82368E-04 29616   0.824E-02    0.599E-02
DAV:  24    -0.359382360594E+03   -0.19741E-03   -0.30840E-04 31620   0.652E-02    0.317E-02
DAV:  25    -0.359382541594E+03   -0.18100E-03   -0.26446E-04 30444   0.464E-02    0.431E-02
DAV:  26    -0.359383349955E+03   -0.80836E-03   -0.19646E-04 30012   0.476E-02    0.181E-02
DAV:  27    -0.359383912260E+03   -0.56231E-03   -0.64530E-05 26352   0.174E-02    0.149E-02
DAV:  28    -0.359384228125E+03   -0.31586E-03   -0.38239E-05 29388   0.148E-02    0.180E-02
DAV:  29    -0.359384441886E+03   -0.21376E-03   -0.40878E-05 29076   0.175E-02    0.520E-03
DAV:  30    -0.359384495807E+03   -0.53920E-04   -0.50020E-06 24324   0.414E-03    0.335E-03
DAV:  31    -0.359384538778E+03   -0.42971E-04   -0.36610E-06 22080   0.351E-03    0.230E-03
DAV:  32    -0.359384550872E+03   -0.12094E-04   -0.79563E-07 20268   0.178E-03    0.133E-03
DAV:  33    -0.359384553257E+03   -0.23846E-05   -0.79316E-08 15924   0.760E-04    0.900E-04
DAV:  34    -0.359384557067E+03   -0.38101E-05   -0.22733E-07 18324   0.734E-04    0.601E-04
DAV:  35    -0.359384558487E+03   -0.14200E-05   -0.87349E-08 16272   0.534E-04    0.335E-04
DAV:  36    -0.359384558912E+03   -0.42529E-06   -0.38159E-08 15744   0.314E-04
   1 F= -.35938456E+03 E0= -.35938374E+03  d E =-.359385E+03
 curvature:   0.00 expect dE= 0.000E+00 dE for cont linesearch  0.000E+00
 trial: gam= 0.00000 g(F)=  0.805E-01 g(S)=  0.000E+00 ort = 0.000E+00 (trialstep = 0.100E+01)
 search vector abs. value=  0.805E-01
 bond charge predicted
       N       E                     dE             d eps       ncg     rms          rms(c)
DAV:   1    -0.359422865396E+03   -0.38307E-01   -0.32144E+00 27168   0.585E+00    0.577E-01
DAV:   2    -0.359457676069E+03   -0.34811E-01   -0.30408E-01 32652   0.196E+00    0.174E+00
DAV:   3    -0.359432594353E+03    0.25082E-01   -0.84748E-02 33240   0.984E-01    0.674E-01
DAV:   4    -0.359433841669E+03   -0.12473E-02   -0.14736E-02 32796   0.407E-01    0.672E-01
DAV:   5    -0.359433284247E+03    0.55742E-03   -0.24373E-02 33156   0.583E-01    0.604E-01
DAV:   6    -0.359429800983E+03    0.34833E-02   -0.16823E-02 33876   0.480E-01    0.108E-01
DAV:   7    -0.359429918987E+03   -0.11800E-03   -0.30426E-03 32772   0.205E-01    0.140E-01
DAV:   8    -0.359429756814E+03    0.16217E-03   -0.10824E-03 33684   0.142E-01    0.589E-02
DAV:   9    -0.359429720378E+03    0.36436E-04   -0.21486E-04 34092   0.572E-02    0.221E-02
DAV:  10    -0.359429725016E+03   -0.46379E-05   -0.86259E-05 32436   0.411E-02    0.309E-02
DAV:  11    -0.359429719366E+03    0.56502E-05   -0.44196E-05 32904   0.353E-02    0.125E-02
DAV:  12    -0.359429722528E+03   -0.31615E-05   -0.14848E-05 29064   0.187E-02    0.140E-02
DAV:  13    -0.359429722559E+03   -0.31578E-07   -0.91571E-06 26124   0.163E-02
   2 F= -.35942972E+03 E0= -.35942895E+03  d E =-.451636E-01
 trial-energy change:   -0.045164  1 .order   -0.045660   -0.080525   -0.010795
 step:   1.1629(harm=  1.1548)  dis= 0.03093  next Energy=  -359.430600 (dE=-0.460E-01)
 bond charge predicted
       N       E                     dE             d eps       ncg     rms          rms(c)
DAV:   1    -0.359430447564E+03   -0.72504E-03   -0.84894E-02 27300   0.953E-01    0.936E-02
DAV:   2    -0.359431364710E+03   -0.91715E-03   -0.78128E-03 32640   0.304E-01    0.284E-01
DAV:   3    -0.359430700638E+03    0.66407E-03   -0.21952E-03 33288   0.178E-01    0.111E-01
DAV:   4    -0.359430738695E+03   -0.38057E-04   -0.38653E-04 32772   0.665E-02    0.110E-01
DAV:   5    -0.359430726304E+03    0.12391E-04   -0.65849E-04 33216   0.918E-02    0.995E-02
DAV:   6    -0.359430631423E+03    0.94880E-04   -0.45442E-04 33960   0.810E-02    0.182E-02
DAV:   7    -0.359430635304E+03   -0.38807E-05   -0.82880E-05 32712   0.354E-02    0.239E-02
DAV:   8    -0.359430631086E+03    0.42183E-05   -0.27998E-05 33660   0.250E-02    0.892E-03
DAV:   9    -0.359430631068E+03    0.17488E-07   -0.49872E-06 23892   0.899E-03
   3 F= -.35943063E+03 E0= -.35942987E+03  d E =-.460722E-01
 curvature:  -0.58 expect dE=-0.271E-01 dE for cont linesearch -0.201E-06
 trial: gam= 0.58221 g(F)=  0.471E-01 g(S)=  0.000E+00 ort = 0.168E-03 (trialstep = 0.103E+01)
 search vector abs. value=  0.745E-01
 bond charge predicted
       N       E                     dE             d eps       ncg     rms          rms(c)
DAV:   1    -0.359463846281E+03   -0.33215E-01   -0.21939E+00 27504   0.607E+00    0.483E-01
DAV:   2    -0.359491801183E+03   -0.27955E-01   -0.22144E-01 32928   0.178E+00    0.161E+00
DAV:   3    -0.359469311813E+03    0.22489E-01   -0.79387E-02 33360   0.981E-01    0.565E-01
DAV:   4    -0.359470130352E+03   -0.81854E-03   -0.88880E-03 31944   0.327E-01    0.551E-01
DAV:   5    -0.359470536333E+03   -0.40598E-03   -0.14395E-02 34260   0.468E-01    0.536E-01
DAV:   6    -0.359468024243E+03    0.25121E-02   -0.11705E-02 33996   0.414E-01    0.105E-01
DAV:   7    -0.359468226265E+03   -0.20202E-03   -0.28844E-03 33444   0.222E-01    0.175E-01
DAV:   8    -0.359467987801E+03    0.23846E-03   -0.12322E-03 32820   0.149E-01    0.452E-02
DAV:   9    -0.359467966087E+03    0.21715E-04   -0.15683E-04 34092   0.458E-02    0.190E-02
DAV:  10    -0.359467969315E+03   -0.32282E-05   -0.55379E-05 32640   0.346E-02    0.247E-02
DAV:  11    -0.359467965580E+03    0.37352E-05   -0.28308E-05 32604   0.279E-02    0.801E-03
DAV:  12    -0.359467967123E+03   -0.15435E-05   -0.92533E-06 27708   0.152E-02    0.120E-02
DAV:  13    -0.359467966420E+03    0.70292E-06   -0.49817E-06 23616   0.123E-02
   4 F= -.35946797E+03 E0= -.35946737E+03  d E =-.373354E-01
 trial-energy change:   -0.037335  1 .order   -0.037252   -0.048684   -0.025821
 step:   2.1482(harm=  2.1987)  dis= 0.07792  next Energy=  -359.482019 (dE=-0.514E-01)
 bond charge predicted
       N       E                     dE             d eps       ncg     rms          rms(c)
DAV:   1    -0.359478006206E+03   -0.10039E-01   -0.25594E+00 27480   0.656E+00    0.517E-01
DAV:   2    -0.359509341603E+03   -0.31335E-01   -0.25153E-01 32928   0.191E+00    0.171E+00
DAV:   3    -0.359484469898E+03    0.24872E-01   -0.87177E-02 33264   0.102E+00    0.615E-01
DAV:   4    -0.359485440393E+03   -0.97050E-03   -0.99250E-03 32052   0.348E-01    0.602E-01
DAV:   5    -0.359485993543E+03   -0.55315E-03   -0.17224E-02 34320   0.509E-01    0.589E-01
DAV:   6    -0.359482940887E+03    0.30527E-02   -0.14131E-02 33924   0.450E-01    0.103E-01
DAV:   7    -0.359483163398E+03   -0.22251E-03   -0.30524E-03 33444   0.222E-01    0.178E-01
DAV:   8    -0.359482916336E+03    0.24706E-03   -0.13252E-03 32652   0.151E-01    0.495E-02
DAV:   9    -0.359482888264E+03    0.28072E-04   -0.17741E-04 33936   0.480E-02    0.195E-02
DAV:  10    -0.359482892888E+03   -0.46241E-05   -0.64524E-05 32700   0.366E-02    0.288E-02
DAV:  11    -0.359482887429E+03    0.54593E-05   -0.34892E-05 32856   0.294E-02    0.819E-03
DAV:  12    -0.359482888544E+03   -0.11149E-05   -0.78341E-06 26808   0.138E-02    0.101E-02
DAV:  13    -0.359482888077E+03    0.46698E-06   -0.44190E-06 23964   0.112E-02
   5 F= -.35948289E+03 E0= -.35948248E+03  d E =-.522570E-01
 curvature:  -1.73 expect dE=-0.289E-01 dE for cont linesearch -0.846E-04
 trial: gam= 0.36054 g(F)=  0.167E-01 g(S)=  0.000E+00 ort = 0.191E-02 (trialstep = 0.126E+01)
 search vector abs. value=  0.277E-01
 bond charge predicted
       N       E                     dE             d eps       ncg     rms          rms(c)
DAV:   1    -0.359487219413E+03   -0.43309E-02   -0.18074E+00 28968   0.699E+00    0.354E-01
DAV:   2    -0.359497610343E+03   -0.10391E-01   -0.11519E-01 30480   0.127E+00    0.651E-01
DAV:   3    -0.359494868110E+03    0.27422E-02   -0.17830E-02 32568   0.615E-01    0.263E-01
DAV:   4    -0.359495816585E+03   -0.94847E-03   -0.11409E-02 34296   0.371E-01    0.347E-01
DAV:   5    -0.359495318999E+03    0.49759E-03   -0.15748E-02 34320   0.455E-01    0.331E-01
DAV:   6    -0.359494252329E+03    0.10667E-02   -0.61774E-03 33840   0.317E-01    0.953E-02
DAV:   7    -0.359494257852E+03   -0.55228E-05   -0.12322E-03 32556   0.129E-01    0.885E-02
DAV:   8    -0.359494193395E+03    0.64457E-04   -0.37261E-04 33204   0.914E-02    0.332E-02
DAV:   9    -0.359494178882E+03    0.14513E-04   -0.99727E-05 33612   0.381E-02    0.154E-02
DAV:  10    -0.359494182319E+03   -0.34368E-05   -0.37907E-05 32316   0.252E-02    0.206E-02
DAV:  11    -0.359494181930E+03    0.38873E-06   -0.25093E-05 32736   0.209E-02    0.139E-02
DAV:  12    -0.359494181730E+03    0.20062E-06   -0.94987E-06 27192   0.121E-02
   6 F= -.35949418E+03 E0= -.35949385E+03  d E =-.112937E-01
 trial-energy change:   -0.011294  1 .order   -0.011301   -0.021777   -0.000825
 step:   1.3051(harm=  1.3051)  dis= 0.02457  next Energy=  -359.494205 (dE=-0.113E-01)
 bond charge predicted
       N       E                     dE             d eps       ncg     rms          rms(c)
DAV:   1    -0.359494188466E+03   -0.65356E-05   -0.28130E-03 29280   0.275E-01    0.143E-02
DAV:   2    -0.359494207638E+03   -0.19172E-04   -0.18768E-04 30828   0.537E-02    0.292E-02
DAV:   3    -0.359494201760E+03    0.58782E-05   -0.31646E-05 31548   0.264E-02    0.113E-02
DAV:   4    -0.359494204500E+03   -0.27397E-05   -0.19379E-05 28752   0.159E-02    0.152E-02
DAV:   5    -0.359494203000E+03    0.14995E-05   -0.25225E-05 27888   0.188E-02    0.118E-02
DAV:   6    -0.359494202935E+03    0.64891E-07   -0.94265E-06 27576   0.126E-02
   7 F= -.35949420E+03 E0= -.35949388E+03  d E =-.113149E-01
 curvature:  -1.04 expect dE=-0.536E-02 dE for cont linesearch -0.102E-06
 trial: gam= 0.35321 g(F)=  0.513E-02 g(S)=  0.000E+00 ort = 0.520E-04 (trialstep = 0.127E+01)
 search vector abs. value=  0.863E-02
 bond charge predicted
       N       E                     dE             d eps       ncg     rms          rms(c)
DAV:   1    -0.359494483024E+03   -0.28002E-03   -0.66984E-01 28344   0.427E+00    0.240E-01
DAV:   2    -0.359501543108E+03   -0.70601E-02   -0.60863E-02 32352   0.970E-01    0.762E-01
DAV:   3    -0.359497253560E+03    0.42895E-02   -0.14350E-02 32148   0.544E-01    0.277E-01
DAV:   4    -0.359497769690E+03   -0.51613E-03   -0.49287E-03 33840   0.244E-01    0.305E-01
DAV:   5    -0.359497165916E+03    0.60377E-03   -0.44006E-03 33816   0.220E-01    0.202E-01
DAV:   6    -0.359496904289E+03    0.26163E-03   -0.21376E-03 33144   0.173E-01    0.728E-02
DAV:   7    -0.359496861740E+03    0.42550E-04   -0.45900E-04 32784   0.901E-02    0.424E-02
DAV:   8    -0.359496847108E+03    0.14632E-04   -0.10688E-04 33276   0.463E-02    0.165E-02
DAV:   9    -0.359496845696E+03    0.14115E-05   -0.15300E-05 31572   0.161E-02    0.997E-03
DAV:  10    -0.359496848012E+03   -0.23158E-05   -0.12457E-05 30852   0.169E-02    0.165E-02
DAV:  11    -0.359496846327E+03    0.16854E-05   -0.98958E-06 27288   0.160E-02    0.558E-03
DAV:  12    -0.359496846230E+03    0.97079E-07   -0.18758E-06 20556   0.584E-03
   8 F= -.35949685E+03 E0= -.35949651E+03  d E =-.264329E-02
 trial-energy change:   -0.002643  1 .order   -0.002642   -0.006522    0.001238
 step:   1.0637(harm=  1.0637)  dis= 0.00828  next Energy=  -359.496944 (dE=-0.274E-02)
 bond charge predicted
       N       E                     dE             d eps       ncg     rms          rms(c)
DAV:   1    -0.359496881479E+03   -0.35152E-04   -0.17030E-02 28464   0.681E-01    0.384E-02
DAV:   2    -0.359497062951E+03   -0.18147E-03   -0.15656E-03 32448   0.157E-01    0.123E-01
DAV:   3    -0.359496950421E+03    0.11253E-03   -0.37777E-04 32232   0.801E-02    0.432E-02
DAV:   4    -0.359496963648E+03   -0.13227E-04   -0.12348E-04 33840   0.378E-02    0.480E-02
DAV:   5    -0.359496949435E+03    0.14213E-04   -0.10904E-04 33696   0.359E-02    0.321E-02
DAV:   6    -0.359496942051E+03    0.73839E-05   -0.52913E-05 33276   0.265E-02    0.109E-02
DAV:   7    -0.359496941424E+03    0.62671E-06   -0.11180E-05 28320   0.133E-02    0.644E-03
DAV:   8    -0.359496941189E+03    0.23516E-06   -0.24083E-06 21000   0.680E-03
   9 F= -.35949694E+03 E0= -.35949660E+03  d E =-.273825E-02
 curvature:  -0.89 expect dE=-0.221E-02 dE for cont linesearch -0.104E-06
 trial: gam= 0.46894 g(F)=  0.248E-02 g(S)=  0.000E+00 ort = 0.318E-04 (trialstep = 0.123E+01)
 search vector abs. value=  0.441E-02
 bond charge predicted
       N       E                     dE             d eps       ncg     rms          rms(c)
DAV:   1    -0.359496391250E+03    0.55017E-03   -0.50241E-01 29016   0.409E+00    0.174E-01
DAV:   2    -0.359501115532E+03   -0.47243E-02   -0.43223E-02 31416   0.820E-01    0.518E-01
DAV:   3    -0.359499032573E+03    0.20830E-02   -0.89967E-03 32436   0.431E-01    0.171E-01
DAV:   4    -0.359499209952E+03   -0.17738E-03   -0.25071E-03 33708   0.178E-01    0.176E-01
DAV:   5    -0.359499084419E+03    0.12553E-03   -0.23426E-03 34104   0.163E-01    0.154E-01
DAV:   6    -0.359498916753E+03    0.16767E-03   -0.89184E-04 32292   0.120E-01    0.569E-02
DAV:   7    -0.359498921623E+03   -0.48706E-05   -0.41942E-04 33552   0.867E-02    0.597E-02
DAV:   8    -0.359498897990E+03    0.23634E-04   -0.14644E-04 33816   0.556E-02    0.143E-02
DAV:   9    -0.359498896930E+03    0.10598E-05   -0.15653E-05 31944   0.141E-02    0.881E-03
DAV:  10    -0.359498897125E+03   -0.19488E-06   -0.44535E-06 23028   0.883E-03
  10 F= -.35949890E+03 E0= -.35949858E+03  d E =-.195594E-02
 trial-energy change:   -0.001956  1 .order   -0.001948   -0.003055   -0.000840
 step:   1.6762(harm=  1.6901)  dis= 0.00544  next Energy=  -359.499052 (dE=-0.211E-02)
 bond charge predicted
       N       E                     dE             d eps       ncg     rms          rms(c)
DAV:   1    -0.359498714062E+03    0.18287E-03   -0.68071E-02 28968   0.150E+00    0.632E-02
DAV:   2    -0.359499308985E+03   -0.59492E-03   -0.56188E-03 31320   0.297E-01    0.180E-01
DAV:   3    -0.359499072913E+03    0.23607E-03   -0.96444E-04 32088   0.138E-01    0.618E-02
DAV:   4    -0.359499105888E+03   -0.32974E-04   -0.32544E-04 33768   0.641E-02    0.706E-02
DAV:   5    -0.359499086255E+03    0.19633E-04   -0.36404E-04 34260   0.650E-02    0.604E-02
DAV:   6    -0.359499060299E+03    0.25955E-04   -0.13795E-04 32304   0.455E-02    0.213E-02
DAV:   7    -0.359499061356E+03   -0.10563E-05   -0.60922E-05 33492   0.330E-02    0.225E-02
DAV:   8    -0.359499058368E+03    0.29882E-05   -0.21956E-05 32016   0.211E-02    0.596E-03
DAV:   9    -0.359499058185E+03    0.18270E-06   -0.20033E-06 20556   0.592E-03
  11 F= -.35949906E+03 E0= -.35949874E+03  d E =-.211700E-02
 curvature:  -1.49 expect dE=-0.202E-02 dE for cont linesearch -0.625E-07
 trial: gam= 0.52246 g(F)=  0.136E-02 g(S)=  0.000E+00 ort = 0.136E-04 (trialstep = 0.132E+01)
 search vector abs. value=  0.257E-02
 bond charge predicted
       N       E                     dE             d eps       ncg     rms          rms(c)
DAV:   1    -0.359498834106E+03    0.22426E-03   -0.29489E-01 28968   0.297E+00    0.133E-01
DAV:   2    -0.359500831443E+03   -0.19973E-02   -0.20641E-02 30192   0.572E-01    0.307E-01
DAV:   3    -0.359500238896E+03    0.59255E-03   -0.30499E-03 32556   0.271E-01    0.115E-01
DAV:   4    -0.359500341808E+03   -0.10291E-03   -0.13230E-03 34008   0.129E-01    0.133E-01
DAV:   5    -0.359500284886E+03    0.56921E-04   -0.17144E-03 34296   0.153E-01    0.121E-01
DAV:   6    -0.359500165855E+03    0.11903E-03   -0.67376E-04 32004   0.112E-01    0.437E-02
DAV:   7    -0.359500165837E+03    0.18168E-07   -0.27334E-04 33732   0.666E-02    0.468E-02
DAV:   8    -0.359500149686E+03    0.16150E-04   -0.97797E-05 32664   0.449E-02    0.104E-02
DAV:   9    -0.359500149123E+03    0.56381E-06   -0.10665E-05 29568   0.133E-02    0.983E-03
DAV:  10    -0.359500149453E+03   -0.33039E-06   -0.65956E-06 25776   0.123E-02
  12 F= -.35950015E+03 E0= -.35949986E+03  d E =-.109127E-02
 trial-energy change:   -0.001091  1 .order   -0.001089   -0.001793   -0.000384
 step:   1.6743(harm=  1.6743)  dis= 0.00453  next Energy=  -359.500200 (dE=-0.114E-02)
 bond charge predicted
       N       E                     dE             d eps       ncg     rms          rms(c)
DAV:   1    -0.359500107931E+03    0.41191E-04   -0.21987E-02 28980   0.811E-01    0.357E-02
DAV:   2    -0.359500243290E+03   -0.13536E-03   -0.14673E-03 29280   0.152E-01    0.740E-02
DAV:   3    -0.359500212816E+03    0.30474E-04   -0.15017E-04 32088   0.646E-02    0.299E-02
DAV:   4    -0.359500219157E+03   -0.63414E-05   -0.65511E-05 34008   0.312E-02    0.356E-02
DAV:   5    -0.359500226682E+03   -0.75247E-05   -0.17143E-04 34500   0.462E-02    0.400E-02
DAV:   6    -0.359500209126E+03    0.17556E-04   -0.89885E-05 34056   0.382E-02    0.134E-02
DAV:   7    -0.359500209351E+03   -0.22487E-06   -0.20649E-05 30336   0.212E-02    0.124E-02
DAV:   8    -0.359500208371E+03    0.97949E-06   -0.65971E-06 25464   0.126E-02
  13 F= -.35950021E+03 E0= -.35949993E+03  d E =-.115019E-02
 curvature:  -1.58 expect dE=-0.140E-02 dE for cont linesearch -0.130E-06
 trial: gam= 0.62800 g(F)=  0.886E-03 g(S)=  0.000E+00 ort = 0.145E-04 (trialstep = 0.139E+01)
 search vector abs. value=  0.192E-02
 bond charge predicted
       N       E                     dE             d eps       ncg     rms          rms(c)
DAV:   1    -0.359500432953E+03   -0.22360E-03   -0.15444E-01 27096   0.181E+00    0.105E-01
DAV:   2    -0.359501150806E+03   -0.71785E-03   -0.81000E-03 30648   0.347E-01    0.197E-01
DAV:   3    -0.359500919921E+03    0.23088E-03   -0.13951E-03 32472   0.153E-01    0.977E-02
DAV:   4    -0.359500960138E+03   -0.40216E-04   -0.58528E-04 33480   0.860E-02    0.101E-01
DAV:   5    -0.359500992222E+03   -0.32084E-04   -0.95547E-04 33840   0.131E-01    0.124E-01
DAV:   6    -0.359500877104E+03    0.11512E-03   -0.65542E-04 33264   0.123E-01    0.335E-02
DAV:   7    -0.359500869764E+03    0.73401E-05   -0.10963E-04 32196   0.417E-02    0.197E-02
DAV:   8    -0.359500867997E+03    0.17670E-05   -0.29397E-05 33624   0.234E-02    0.103E-02
DAV:   9    -0.359500866872E+03    0.11247E-05   -0.68538E-06 25080   0.111E-02    0.542E-03
DAV:  10    -0.359500867308E+03   -0.43589E-06   -0.39192E-06 24144   0.958E-03
  14 F= -.35950087E+03 E0= -.35950060E+03  d E =-.658937E-03
 trial-energy change:   -0.000659  1 .order   -0.000642   -0.001242   -0.000042
 step:   1.4313(harm=  1.4353)  dis= 0.00347  next Energy=  -359.500868 (dE=-0.660E-03)
 bond charge predicted
       N       E                     dE             d eps       ncg     rms          rms(c)
DAV:   1    -0.359500867568E+03   -0.69605E-06   -0.16199E-04 27552   0.581E-02    0.430E-03
DAV:   2    -0.359500869096E+03   -0.15278E-05   -0.12581E-05 31104   0.144E-02    0.108E-02
DAV:   3    -0.359500868236E+03    0.85949E-06   -0.37460E-06 20928   0.900E-03    0.413E-03
DAV:   4    -0.359500868449E+03   -0.21284E-06   -0.11123E-06 16752   0.474E-03    0.458E-03
DAV:   5    -0.359500868468E+03   -0.18681E-07   -0.86328E-07 15984   0.496E-03
  15 F= -.35950087E+03 E0= -.35950060E+03  d E =-.660097E-03
 curvature:  -1.53 expect dE=-0.105E-02 dE for cont linesearch -0.506E-07
 trial: gam= 0.80385 g(F)=  0.685E-03 g(S)=  0.000E+00 ort = 0.797E-05 (trialstep = 0.138E+01)
 search vector abs. value=  0.194E-02
 bond charge predicted
       N       E                     dE             d eps       ncg     rms          rms(c)
DAV:   1    -0.359500783730E+03    0.84719E-04   -0.17085E-01 28104   0.204E+00    0.107E-01
DAV:   2    -0.359501747928E+03   -0.96420E-03   -0.10470E-02 30696   0.398E-01    0.231E-01
DAV:   3    -0.359501442693E+03    0.30523E-03   -0.15081E-03 31488   0.173E-01    0.109E-01
DAV:   4    -0.359501509534E+03   -0.66841E-04   -0.64345E-04 33828   0.911E-02    0.118E-01
DAV:   5    -0.359501522945E+03   -0.13411E-04   -0.10609E-03 34308   0.131E-01    0.128E-01
DAV:   6    -0.359501407537E+03    0.11541E-03   -0.66572E-04 33300   0.117E-01    0.457E-02
DAV:   7    -0.359501406438E+03    0.10994E-05   -0.23820E-04 33228   0.639E-02    0.417E-02
DAV:   8    -0.359501391186E+03    0.15252E-04   -0.80252E-05 33312   0.373E-02    0.903E-03
DAV:   9    -0.359501391044E+03    0.14237E-06   -0.63437E-06 27084   0.105E-02
  16 F= -.35950139E+03 E0= -.35950112E+03  d E =-.522576E-03
 trial-energy change:   -0.000523  1 .order   -0.000505   -0.000956   -0.000055
 step:   1.4573(harm=  1.4664)  dis= 0.00404  next Energy=  -359.501393 (dE=-0.524E-03)
 bond charge predicted
       N       E                     dE             d eps       ncg     rms          rms(c)
DAV:   1    -0.359501391447E+03   -0.26097E-06   -0.51149E-04 28176   0.111E-01    0.107E-02
DAV:   2    -0.359501401814E+03   -0.10366E-04   -0.70585E-05 33060   0.419E-02    0.322E-02
DAV:   3    -0.359501393320E+03    0.84933E-05   -0.34415E-05 32976   0.314E-02    0.653E-03
DAV:   4    -0.359501393891E+03   -0.57085E-06   -0.44371E-06 22152   0.849E-03    0.813E-03
DAV:   5    -0.359501393637E+03    0.25400E-06   -0.36092E-06 20964   0.784E-03
  17 F= -.35950139E+03 E0= -.35950112E+03  d E =-.525169E-03
 curvature:  -2.03 expect dE=-0.546E-03 dE for cont linesearch -0.573E-06
 trial: gam= 0.32963 g(F)=  0.269E-03 g(S)=  0.000E+00 ort = 0.234E-04 (trialstep = 0.140E+01)
 search vector abs. value=  0.495E-03
 bond charge predicted
       N       E                     dE             d eps       ncg     rms          rms(c)
DAV:   1    -0.359501219590E+03    0.17430E-03   -0.68311E-02 29580   0.150E+00    0.652E-02
DAV:   2    -0.359501734635E+03   -0.51504E-03   -0.52681E-03 30276   0.293E-01    0.152E-01
DAV:   3    -0.359501593216E+03    0.14142E-03   -0.63058E-04 31224   0.136E-01    0.543E-02
DAV:   4    -0.359501622098E+03   -0.28882E-04   -0.27427E-04 34104   0.617E-02    0.669E-02
DAV:   5    -0.359501607188E+03    0.14910E-04   -0.40947E-04 34512   0.765E-02    0.609E-02
DAV:   6    -0.359501579889E+03    0.27298E-04   -0.18757E-04 33636   0.555E-02    0.240E-02
DAV:   7    -0.359501579047E+03    0.84244E-06   -0.63842E-05 33216   0.371E-02    0.218E-02
DAV:   8    -0.359501576075E+03    0.29712E-05   -0.22650E-05 32772   0.241E-02    0.723E-03
DAV:   9    -0.359501576102E+03   -0.26776E-07   -0.41185E-06 23316   0.992E-03
  18 F= -.35950158E+03 E0= -.35950130E+03  d E =-.182465E-03
 trial-energy change:   -0.000182  1 .order   -0.000177   -0.000387    0.000033
 step:   1.2958(harm=  1.2885)  dis= 0.00164  next Energy=  -359.501577 (dE=-0.184E-03)
 reached required accuracy - stopping structural energy minimisation
