   58   58    1    1
  0.1311926E+02  0.6088057E-09  0.6088057E-09  0.2372246E-08  0.5000000E-15
   1.0000000000000000E-004
  CAR 
 Name                                    
    204     41    132

  0.3742002E-15  0.3742002E-15  0.1262379E-14  0.1234568E-01
    1      -11.442115   1.000000
    2      -10.870427   1.000000
    3      -10.143278   1.000000
    4       -9.457655   1.000000
    5       -8.655235   1.000000
    6       -8.554833   1.000000
    7       -8.170219   1.000000
    8       -7.995945   1.000000
    9       -7.851997   1.000000
   10       -7.773856   1.000000
   11       -7.681759   1.000000
   12       -7.640862   1.000000
   13       -7.579538   1.000000
   14       -7.565461   1.000000
   15       -7.379338   1.000000
   16       -7.266542   1.000000
   17       -7.237245   1.000000
   18       -7.219832   1.000000
   19       -7.102895   1.000000
   20       -6.955202   1.000000
   21       -6.904319   1.000000
   22       -6.820279   1.000000
   23       -6.663196   1.000000
   24       -6.002233   1.000000
   25       -5.984284   1.000000
   26       -5.943378   1.000000
   27       -5.817770   1.000000
   28       -5.806840   1.000000
   29       -5.805682   1.000000
   30       -5.466329   1.000000
   31       -5.364209   1.000000
   32       -4.644186   1.000000
   33       -4.515279   1.000000
   34       -4.504268   1.000000
   35       -4.367534   1.000000
   36       -4.267741   1.000000
   37       -4.115191   1.000000
   38       -3.533809   1.000000
   39       -3.260400   1.000000
   40       -3.025211   1.000000
   41       -3.022133   1.000000
   42       -2.842903   1.000000
   43       -2.596621   1.000000
   44       -2.595009   1.000000
   45       -2.464579   1.000000
   46       -2.375215   1.000000
   47       -2.334509   1.000000
   48       -2.226097   1.000000
   49       -2.131077   1.000000
   50       -2.129521   1.000000
   51       -1.946586   1.000000
   52       -1.892154   1.000000
   53       -1.883818   1.000000
   54       -1.786309   1.000000
   55       -1.746312   1.000000
   56       -1.692875   1.000000
   57       -1.652493   1.000000
   58       -1.614222   1.000000
   59       -1.560202   1.000000
   60       -1.547465   1.000000
   61       -1.452487   1.000000
   62       -1.333720   1.000000
   63       -1.155990   1.000000
   64       -1.142387   1.000000
   65       -1.084512   1.000000
   66       -1.056781   1.000000
   67       -1.000095   1.000000
   68       -0.951969   1.000000
   69       -0.744916   1.000000
   70       -0.693353   1.000000
   71       -0.683660   1.000000
   72       -0.594770   1.000000
   73       -0.533087   1.000000
   74       -0.499541   1.000000
   75       -0.480481   1.000000
   76       -0.275186   1.000000
   77       -0.004941   1.000000
   78        0.012203   1.000000
   79        0.015673   1.000000
   80        0.094989   1.000000
   81        0.441802   1.000000
   82        0.582661   1.000000
   83        0.594246   1.000000
   84        0.687301   1.000000
   85        0.849547   1.000000
   86        1.118965   1.000000
   87        1.269739   1.000000
   88        1.322244   1.000000
   89        1.352829   1.000000
   90        1.371959   1.000000
   91        1.514538   1.000000
   92        1.526824   1.000000
   93        1.560974   1.000000
   94        1.623520   1.000000
   95        1.694088   1.000000
   96        1.701166   1.000000
   97        1.823726   1.000000
   98        2.087190   1.000005
   99        2.323632   1.002619
  100        2.760636   0.602892
  101        2.843975   0.262646
  102        2.866890   0.184095
  103        2.979251  -0.021786
  104        3.074925  -0.029859
  105        3.239559  -0.003016
  106        3.326178  -0.000441
  107        3.380115  -0.000107
  108        3.391438  -0.000078
  109        3.691565  -0.000000
  110        3.700067  -0.000000
  111        3.738184  -0.000000
  112        3.757708  -0.000000
  113        3.863018  -0.000000
  114        3.945501  -0.000000
  115        3.976247  -0.000000
  116        4.015588  -0.000000
  117        4.080026  -0.000000
  118        4.132618  -0.000000
  119        4.153407  -0.000000
  120        4.194198  -0.000000
  121        4.354481  -0.000000
  122        4.369650  -0.000000
  123        4.456955  -0.000000
  124        4.473012  -0.000000
  125        4.630919  -0.000000
  126        4.718427  -0.000000
  127        4.801609  -0.000000
  128        5.126404  -0.000000
  129        5.559655  -0.000000
  130        5.910645  -0.000000
  131        6.136146  -0.000000
  132        6.407531  -0.000000

  0.1111111E+00  0.3857958E-15  0.1262379E-14  0.2469136E-01
    1      -11.384706   1.000000
    2      -10.817489   1.000000
    3      -10.099335   1.000000
    4       -9.422590   1.000000
    5       -8.619745   1.000000
    6       -8.574374   1.000000
    7       -8.323377   1.000000
    8       -8.179752   1.000000
    9       -8.020923   1.000000
   10       -7.922086   1.000000
   11       -7.903393   1.000000
   12       -7.851977   1.000000
   13       -7.728127   1.000000
   14       -7.685372   1.000000
   15       -7.539244   1.000000
   16       -7.155662   1.000000
   17       -7.092129   1.000000
   18       -7.027160   1.000000
   19       -6.972958   1.000000
   20       -6.804611   1.000000
   21       -6.717423   1.000000
   22       -6.611102   1.000000
   23       -6.480643   1.000000
   24       -6.040985   1.000000
   25       -5.987010   1.000000
   26       -5.915809   1.000000
   27       -5.791535   1.000000
   28       -5.742022   1.000000
   29       -5.629156   1.000000
   30       -5.358738   1.000000
   31       -5.280975   1.000000
   32       -4.527574   1.000000
   33       -4.476773   1.000000
   34       -4.337372   1.000000
   35       -4.292684   1.000000
   36       -4.209533   1.000000
   37       -3.979893   1.000000
   38       -3.500884   1.000000
   39       -3.220296   1.000000
   40       -3.071079   1.000000
   41       -3.055166   1.000000
   42       -2.827546   1.000000
   43       -2.731599   1.000000
   44       -2.565163   1.000000
   45       -2.544528   1.000000
   46       -2.506650   1.000000
   47       -2.424502   1.000000
   48       -2.302624   1.000000
   49       -2.145551   1.000000
   50       -2.116302   1.000000
   51       -2.052130   1.000000
   52       -1.958909   1.000000
   53       -1.781266   1.000000
   54       -1.758774   1.000000
   55       -1.749402   1.000000
   56       -1.701494   1.000000
   57       -1.657628   1.000000
   58       -1.633515   1.000000
   59       -1.567154   1.000000
   60       -1.531076   1.000000
   61       -1.483458   1.000000
   62       -1.346327   1.000000
   63       -1.223271   1.000000
   64       -1.196321   1.000000
   65       -1.152980   1.000000
   66       -1.087181   1.000000
   67       -1.006328   1.000000
   68       -0.969399   1.000000
   69       -0.860848   1.000000
   70       -0.773552   1.000000
   71       -0.701117   1.000000
   72       -0.603560   1.000000
   73       -0.565902   1.000000
   74       -0.510801   1.000000
   75       -0.398910   1.000000
   76       -0.257367   1.000000
   77       -0.108555   1.000000
   78       -0.058360   1.000000
   79        0.006347   1.000000
   80        0.122310   1.000000
   81        0.197292   1.000000
   82        0.345121   1.000000
   83        0.584600   1.000000
   84        0.691872   1.000000
   85        0.756521   1.000000
   86        1.010686   1.000000
   87        1.029396   1.000000
   88        1.219511   1.000000
   89        1.277512   1.000000
   90        1.337447   1.000000
   91        1.454501   1.000000
   92        1.516633   1.000000
   93        1.538378   1.000000
   94        1.580361   1.000000
   95        1.776295   1.000000
   96        1.851927   1.000000
   97        1.872568   1.000000
   98        2.218288   1.000229
   99        2.540680   1.035457
  100        2.716463   0.772526
  101        2.776605   0.536143
  102        2.883302   0.135034
  103        2.929589   0.032626
  104        2.995239  -0.029599
  105        3.114418  -0.020940
  106        3.401772  -0.000058
  107        3.460618  -0.000010
  108        3.573452  -0.000000
  109        3.667068  -0.000000
  110        3.699095  -0.000000
  111        3.741882  -0.000000
  112        3.757960  -0.000000
  113        3.841158  -0.000000
  114        3.903837  -0.000000
  115        3.918509  -0.000000
  116        3.985274  -0.000000
  117        4.007407  -0.000000
  118        4.031282  -0.000000
  119        4.087410  -0.000000
  120        4.117343  -0.000000
  121        4.155832  -0.000000
  122        4.232949  -0.000000
  123        4.288703  -0.000000
  124        4.390975  -0.000000
  125        4.457030  -0.000000
  126        4.528779  -0.000000
  127        5.060020  -0.000000
  128        5.097195  -0.000000
  129        5.734391  -0.000000
  130        6.021340  -0.000000
  131        6.095276  -0.000000
  132        6.384183  -0.000000

  0.2222222E+00  0.3935346E-15  0.1262379E-14  0.2469136E-01
    1      -11.214611   1.000000
    2      -10.660987   1.000000
    3       -9.970454   1.000000
    4       -9.318882   1.000000
    5       -8.898567   1.000000
    6       -8.688778   1.000000
    7       -8.618649   1.000000
    8       -8.510752   1.000000
    9       -8.177153   1.000000
   10       -8.118016   1.000000
   11       -8.077826   1.000000
   12       -7.955173   1.000000
   13       -7.930045   1.000000
   14       -7.896395   1.000000
   15       -7.822026   1.000000
   16       -7.253132   1.000000
   17       -7.023130   1.000000
   18       -6.996495   1.000000
   19       -6.696385   1.000000
   20       -6.675135   1.000000
   21       -6.401473   1.000000
   22       -6.362452   1.000000
   23       -5.966219   1.000000
   24       -5.925256   1.000000
   25       -5.805780   1.000000
   26       -5.707614   1.000000
   27       -5.630932   1.000000
   28       -5.557793   1.000000
   29       -5.161962   1.000000
   30       -5.097118   1.000000
   31       -5.041926   1.000000
   32       -4.350137   1.000000
   33       -4.327633   1.000000
   34       -4.225762   1.000000
   35       -4.074280   1.000000
   36       -3.836156   1.000000
   37       -3.580319   1.000000
   38       -3.434478   1.000000
   39       -3.261836   1.000000
   40       -3.170366   1.000000
   41       -3.109187   1.000000
   42       -3.057706   1.000000
   43       -2.997703   1.000000
   44       -2.938081   1.000000
   45       -2.764621   1.000000
   46       -2.513023   1.000000
   47       -2.417228   1.000000
   48       -2.370142   1.000000
   49       -2.149821   1.000000
   50       -2.110844   1.000000
   51       -2.040293   1.000000
   52       -2.019007   1.000000
   53       -1.972231   1.000000
   54       -1.853789   1.000000
   55       -1.812780   1.000000
   56       -1.759594   1.000000
   57       -1.695197   1.000000
   58       -1.648533   1.000000
   59       -1.623761   1.000000
   60       -1.566787   1.000000
   61       -1.480258   1.000000
   62       -1.402301   1.000000
   63       -1.344352   1.000000
   64       -1.299622   1.000000
   65       -1.243276   1.000000
   66       -1.207113   1.000000
   67       -1.134362   1.000000
   68       -1.073204   1.000000
   69       -0.990483   1.000000
   70       -0.848678   1.000000
   71       -0.818425   1.000000
   72       -0.783163   1.000000
   73       -0.610232   1.000000
   74       -0.591777   1.000000
   75       -0.408058   1.000000
   76       -0.347137   1.000000
   77       -0.203794   1.000000
   78       -0.143404   1.000000
   79       -0.084047   1.000000
   80       -0.027187   1.000000
   81        0.052968   1.000000
   82        0.275101   1.000000
   83        0.413418   1.000000
   84        0.626291   1.000000
   85        0.646163   1.000000
   86        0.722860   1.000000
   87        0.899773   1.000000
   88        1.067707   1.000000
   89        1.114614   1.000000
   90        1.213273   1.000000
   91        1.308181   1.000000
   92        1.449838   1.000000
   93        1.482258   1.000000
   94        1.506673   1.000000
   95        1.785605   1.000000
   96        1.980205   1.000000
   97        2.007740   1.000000
   98        2.087113   1.000005
   99        2.442356   1.017942
  100        2.561988   1.033348
  101        2.781688   0.514672
  102        2.900229   0.091346
  103        3.115969  -0.020589
  104        3.170721  -0.010023
  105        3.281868  -0.001246
  106        3.430345  -0.000025
  107        3.437010  -0.000020
  108        3.493953  -0.000003
  109        3.522184  -0.000001
  110        3.569489  -0.000000
  111        3.604998  -0.000000
  112        3.702505  -0.000000
  113        3.757349  -0.000000
  114        3.839122  -0.000000
  115        3.861884  -0.000000
  116        3.895875  -0.000000
  117        3.943010  -0.000000
  118        3.964636  -0.000000
  119        4.015812  -0.000000
  120        4.059769  -0.000000
  121        4.136287  -0.000000
  122        4.166686  -0.000000
  123        4.208584  -0.000000
  124        4.326825  -0.000000
  125        4.375557  -0.000000
  126        4.456488  -0.000000
  127        4.524638  -0.000000
  128        4.589687  -0.000000
  129        4.842085  -0.000000
  130        5.009725  -0.000000
  131        5.925708  -0.000000
  132        6.454476  -0.000000

  0.3333333E+00  0.3939838E-15  0.1262379E-14  0.2469136E-01
    1      -10.939087   1.000000
    2      -10.408227   1.000000
    3       -9.765978   1.000000
    4       -9.502579   1.000000
    5       -9.167997   1.000000
    6       -9.131822   1.000000
    7       -8.876558   1.000000
    8       -8.338077   1.000000
    9       -8.290940   1.000000
   10       -8.253802   1.000000
   11       -8.241999   1.000000
   12       -8.219811   1.000000
   13       -8.067640   1.000000
   14       -7.998850   1.000000
   15       -7.910852   1.000000
   16       -7.364736   1.000000
   17       -7.320471   1.000000
   18       -7.096707   1.000000
   19       -6.521738   1.000000
   20       -6.464869   1.000000
   21       -5.988920   1.000000
   22       -5.938630   1.000000
   23       -5.820298   1.000000
   24       -5.751673   1.000000
   25       -5.734919   1.000000
   26       -5.511197   1.000000
   27       -5.030226   1.000000
   28       -4.889860   1.000000
   29       -4.780153   1.000000
   30       -4.695868   1.000000
   31       -4.540798   1.000000
   32       -4.129628   1.000000
   33       -4.118011   1.000000
   34       -4.050393   1.000000
   35       -3.869530   1.000000
   36       -3.658549   1.000000
   37       -3.558729   1.000000
   38       -3.524304   1.000000
   39       -3.497961   1.000000
   40       -3.440038   1.000000
   41       -3.375632   1.000000
   42       -3.246383   1.000000
   43       -3.077236   1.000000
   44       -2.958952   1.000000
   45       -2.694585   1.000000
   46       -2.636380   1.000000
   47       -2.473630   1.000000
   48       -2.429940   1.000000
   49       -2.330867   1.000000
   50       -2.258848   1.000000
   51       -2.130117   1.000000
   52       -2.089877   1.000000
   53       -2.044022   1.000000
   54       -1.985114   1.000000
   55       -1.935396   1.000000
   56       -1.876020   1.000000
   57       -1.810574   1.000000
   58       -1.747353   1.000000
   59       -1.714806   1.000000
   60       -1.685237   1.000000
   61       -1.610522   1.000000
   62       -1.524449   1.000000
   63       -1.440882   1.000000
   64       -1.388544   1.000000
   65       -1.325523   1.000000
   66       -1.305364   1.000000
   67       -1.244184   1.000000
   68       -1.137290   1.000000
   69       -1.084228   1.000000
   70       -1.017298   1.000000
   71       -0.923045   1.000000
   72       -0.840441   1.000000
   73       -0.656961   1.000000
   74       -0.638054   1.000000
   75       -0.475593   1.000000
   76       -0.444364   1.000000
   77       -0.388489   1.000000
   78       -0.260303   1.000000
   79       -0.200125   1.000000
   80       -0.015153   1.000000
   81        0.059921   1.000000
   82        0.121259   1.000000
   83        0.317359   1.000000
   84        0.405962   1.000000
   85        0.638059   1.000000
   86        0.735782   1.000000
   87        0.867106   1.000000
   88        0.942165   1.000000
   89        1.053207   1.000000
   90        1.168832   1.000000
   91        1.224918   1.000000
   92        1.276616   1.000000
   93        1.411238   1.000000
   94        1.467347   1.000000
   95        1.649322   1.000000
   96        1.818339   1.000000
   97        1.963223   1.000000
   98        2.241703   1.000416
   99        2.300291   1.001613
  100        2.396302   1.009532
  101        2.731633   0.717729
  102        2.888257   0.121503
  103        2.929794   0.032290
  104        3.010465  -0.033766
  105        3.140600  -0.015322
  106        3.217268  -0.004600
  107        3.300111  -0.000824
  108        3.371009  -0.000138
  109        3.428953  -0.000026
  110        3.484030  -0.000005
  111        3.542895  -0.000001
  112        3.601224  -0.000000
  113        3.668065  -0.000000
  114        3.735962  -0.000000
  115        3.790477  -0.000000
  116        3.857160  -0.000000
  117        3.945546  -0.000000
  118        3.965496  -0.000000
  119        4.027283  -0.000000
  120        4.077971  -0.000000
  121        4.140595  -0.000000
  122        4.211416  -0.000000
  123        4.265285  -0.000000
  124        4.336754  -0.000000
  125        4.375887  -0.000000
  126        4.422558  -0.000000
  127        4.565461  -0.000000
  128        4.624809  -0.000000
  129        4.747141  -0.000000
  130        4.840315  -0.000000
  131        4.998210  -0.000000
  132        5.580310  -0.000000

  0.4444444E+00  0.3881204E-15  0.1262379E-14  0.2469136E-01
    1      -10.583950   1.000000
    2      -10.079783   1.000000
    3      -10.024082   1.000000
    4       -9.615957   1.000000
    5       -9.503750   1.000000
    6       -9.180321   1.000000
    7       -8.913471   1.000000
    8       -8.587909   1.000000
    9       -8.326062   1.000000
   10       -8.323192   1.000000
   11       -8.303557   1.000000
   12       -8.137324   1.000000
   13       -8.075667   1.000000
   14       -8.054700   1.000000
   15       -7.906124   1.000000
   16       -7.741452   1.000000
   17       -7.343664   1.000000
   18       -7.151166   1.000000
   19       -6.477981   1.000000
   20       -6.358245   1.000000
   21       -5.808678   1.000000
   22       -5.677331   1.000000
   23       -5.604058   1.000000
   24       -5.565399   1.000000
   25       -5.498005   1.000000
   26       -5.401817   1.000000
   27       -4.571804   1.000000
   28       -4.420548   1.000000
   29       -4.291850   1.000000
   30       -4.195443   1.000000
   31       -4.120737   1.000000
   32       -4.057916   1.000000
   33       -4.004744   1.000000
   34       -3.912050   1.000000
   35       -3.841752   1.000000
   36       -3.795114   1.000000
   37       -3.755935   1.000000
   38       -3.683733   1.000000
   39       -3.649172   1.000000
   40       -3.600394   1.000000
   41       -3.483655   1.000000
   42       -3.407693   1.000000
   43       -3.307601   1.000000
   44       -3.199225   1.000000
   45       -2.861803   1.000000
   46       -2.635329   1.000000
   47       -2.564098   1.000000
   48       -2.459564   1.000000
   49       -2.372599   1.000000
   50       -2.337996   1.000000
   51       -2.226016   1.000000
   52       -2.118416   1.000000
   53       -2.053817   1.000000
   54       -2.028540   1.000000
   55       -1.999183   1.000000
   56       -1.947054   1.000000
   57       -1.901562   1.000000
   58       -1.863575   1.000000
   59       -1.767612   1.000000
   60       -1.741402   1.000000
   61       -1.673658   1.000000
   62       -1.581321   1.000000
   63       -1.500602   1.000000
   64       -1.433870   1.000000
   65       -1.401840   1.000000
   66       -1.373132   1.000000
   67       -1.281384   1.000000
   68       -1.267111   1.000000
   69       -1.094116   1.000000
   70       -1.028841   1.000000
   71       -0.957969   1.000000
   72       -0.896245   1.000000
   73       -0.650097   1.000000
   74       -0.622344   1.000000
   75       -0.548762   1.000000
   76       -0.538264   1.000000
   77       -0.498493   1.000000
   78       -0.345643   1.000000
   79       -0.273185   1.000000
   80       -0.122606   1.000000
   81        0.081387   1.000000
   82        0.106208   1.000000
   83        0.192614   1.000000
   84        0.402475   1.000000
   85        0.643417   1.000000
   86        0.685459   1.000000
   87        0.820845   1.000000
   88        0.909754   1.000000
   89        0.988436   1.000000
   90        1.147774   1.000000
   91        1.225685   1.000000
   92        1.283490   1.000000
   93        1.447264   1.000000
   94        1.506154   1.000000
   95        1.555357   1.000000
   96        1.788821   1.000000
   97        1.879930   1.000000
   98        2.265256   1.000734
   99        2.357208   1.004961
  100        2.394610   1.009286
  101        2.437482   1.016908
  102        2.603226   1.013033
  103        2.716758   0.771506
  104        2.854265   0.226027
  105        2.961205  -0.007826
  106        3.093771  -0.025697
  107        3.141941  -0.015057
  108        3.289204  -0.001057
  109        3.351514  -0.000232
  110        3.392253  -0.000076
  111        3.440062  -0.000019
  112        3.487191  -0.000004
  113        3.599607  -0.000000
  114        3.676610  -0.000000
  115        3.704384  -0.000000
  116        3.807395  -0.000000
  117        3.910782  -0.000000
  118        3.940185  -0.000000
  119        3.962512  -0.000000
  120        4.069658  -0.000000
  121        4.168973  -0.000000
  122        4.211028  -0.000000
  123        4.366967  -0.000000
  124        4.458483  -0.000000
  125        4.494301  -0.000000
  126        4.599458  -0.000000
  127        4.688823  -0.000000
  128        4.803473  -0.000000
  129        5.014732  -0.000000
  130        5.096411  -0.000000
  131        5.125506  -0.000000
  132        5.386859  -0.000000

  0.3742002E-15  0.1111111E+00  0.1262379E-14  0.2469136E-01
    1      -11.384705   1.000000
    2      -10.817488   1.000000
    3      -10.099340   1.000000
    4       -9.422607   1.000000
    5       -8.619740   1.000000
    6       -8.574390   1.000000
    7       -8.323409   1.000000
    8       -8.179968   1.000000
    9       -8.020677   1.000000
   10       -7.922249   1.000000
   11       -7.903371   1.000000
   12       -7.851895   1.000000
   13       -7.728383   1.000000
   14       -7.684772   1.000000
   15       -7.539188   1.000000
   16       -7.155277   1.000000
   17       -7.092144   1.000000
   18       -7.027235   1.000000
   19       -6.973555   1.000000
   20       -6.804688   1.000000
   21       -6.717341   1.000000
   22       -6.611377   1.000000
   23       -6.480481   1.000000
   24       -6.041122   1.000000
   25       -5.986753   1.000000
   26       -5.915628   1.000000
   27       -5.791846   1.000000
   28       -5.742128   1.000000
   29       -5.628980   1.000000
   30       -5.358713   1.000000
   31       -5.281023   1.000000
   32       -4.527551   1.000000
   33       -4.476780   1.000000
   34       -4.338496   1.000000
   35       -4.292620   1.000000
   36       -4.208096   1.000000
   37       -3.980219   1.000000
   38       -3.500845   1.000000
   39       -3.220333   1.000000
   40       -3.071071   1.000000
   41       -3.055176   1.000000
   42       -2.827565   1.000000
   43       -2.731554   1.000000
   44       -2.565292   1.000000
   45       -2.544298   1.000000
   46       -2.506814   1.000000
   47       -2.424584   1.000000
   48       -2.302595   1.000000
   49       -2.145574   1.000000
   50       -2.116073   1.000000
   51       -2.052275   1.000000
   52       -1.958978   1.000000
   53       -1.781226   1.000000
   54       -1.758704   1.000000
   55       -1.749442   1.000000
   56       -1.701553   1.000000
   57       -1.657587   1.000000
   58       -1.633533   1.000000
   59       -1.566984   1.000000
   60       -1.530920   1.000000
   61       -1.483741   1.000000
   62       -1.346161   1.000000
   63       -1.223593   1.000000
   64       -1.196064   1.000000
   65       -1.153627   1.000000
   66       -1.086786   1.000000
   67       -1.006343   1.000000
   68       -0.969233   1.000000
   69       -0.860495   1.000000
   70       -0.773618   1.000000
   71       -0.701319   1.000000
   72       -0.603553   1.000000
   73       -0.565971   1.000000
   74       -0.510832   1.000000
   75       -0.398892   1.000000
   76       -0.257395   1.000000
   77       -0.108661   1.000000
   78       -0.058343   1.000000
   79        0.006145   1.000000
   80        0.122551   1.000000
   81        0.197744   1.000000
   82        0.345001   1.000000
   83        0.584635   1.000000
   84        0.691690   1.000000
   85        0.756324   1.000000
   86        1.010677   1.000000
   87        1.029443   1.000000
   88        1.219236   1.000000
   89        1.277701   1.000000
   90        1.337693   1.000000
   91        1.454319   1.000000
   92        1.516562   1.000000
   93        1.538466   1.000000
   94        1.580358   1.000000
   95        1.776341   1.000000
   96        1.851984   1.000000
   97        1.872554   1.000000
   98        2.218346   1.000229
   99        2.540678   1.035457
  100        2.716496   0.772413
  101        2.776504   0.536569
  102        2.883346   0.134911
  103        2.929345   0.033026
  104        2.995409  -0.029662
  105        3.114569  -0.020906
  106        3.401903  -0.000058
  107        3.460408  -0.000010
  108        3.573813  -0.000000
  109        3.666944  -0.000000
  110        3.698771  -0.000000
  111        3.741581  -0.000000
  112        3.758209  -0.000000
  113        3.840820  -0.000000
  114        3.905270  -0.000000
  115        3.912316  -0.000000
  116        3.979570  -0.000000
  117        4.015157  -0.000000
  118        4.047767  -0.000000
  119        4.120898  -0.000000
  120        4.148980  -0.000000
  121        4.191998  -0.000000
  122        4.264407  -0.000000
  123        4.282589  -0.000000
  124        4.416677  -0.000000
  125        4.467627  -0.000000
  126        4.585389  -0.000000
  127        4.711169  -0.000000
  128        4.979178  -0.000000
  129        5.723754  -0.000000
  130        6.048898  -0.000000
  131        6.318747  -0.000000
  132        6.425489  -0.000000

  0.1111111E+00  0.1111111E+00  0.1262379E-14  0.2469136E-01
    1      -11.270277   1.000000
    2      -10.712150   1.000000
    3      -10.012038   1.000000
    4       -9.354328   1.000000
    5       -8.641501   1.000000
    6       -8.612409   1.000000
    7       -8.546975   1.000000
    8       -8.441783   1.000000
    9       -8.395664   1.000000
   10       -8.203396   1.000000
   11       -8.148686   1.000000
   12       -7.910542   1.000000
   13       -7.782026   1.000000
   14       -7.710262   1.000000
   15       -7.382507   1.000000
   16       -7.310770   1.000000
   17       -7.253534   1.000000
   18       -6.910769   1.000000
   19       -6.842979   1.000000
   20       -6.729741   1.000000
   21       -6.563655   1.000000
   22       -6.221788   1.000000
   23       -6.079571   1.000000
   24       -5.924756   1.000000
   25       -5.899365   1.000000
   26       -5.758557   1.000000
   27       -5.758102   1.000000
   28       -5.536473   1.000000
   29       -5.356174   1.000000
   30       -5.340768   1.000000
   31       -5.130406   1.000000
   32       -4.617011   1.000000
   33       -4.206863   1.000000
   34       -4.092369   1.000000
   35       -4.071541   1.000000
   36       -3.971343   1.000000
   37       -3.801709   1.000000
   38       -3.461653   1.000000
   39       -3.244792   1.000000
   40       -3.182596   1.000000
   41       -3.127782   1.000000
   42       -3.030239   1.000000
   43       -2.943384   1.000000
   44       -2.744442   1.000000
   45       -2.558276   1.000000
   46       -2.484803   1.000000
   47       -2.368949   1.000000
   48       -2.343996   1.000000
   49       -2.221065   1.000000
   50       -2.152469   1.000000
   51       -2.012541   1.000000
   52       -1.977982   1.000000
   53       -1.944601   1.000000
   54       -1.756334   1.000000
   55       -1.728062   1.000000
   56       -1.711319   1.000000
   57       -1.672272   1.000000
   58       -1.664429   1.000000
   59       -1.652538   1.000000
   60       -1.580467   1.000000
   61       -1.457234   1.000000
   62       -1.454981   1.000000
   63       -1.279613   1.000000
   64       -1.258088   1.000000
   65       -1.237842   1.000000
   66       -1.153561   1.000000
   67       -1.099128   1.000000
   68       -0.966995   1.000000
   69       -0.951465   1.000000
   70       -0.871504   1.000000
   71       -0.796428   1.000000
   72       -0.668652   1.000000
   73       -0.591413   1.000000
   74       -0.543019   1.000000
   75       -0.527671   1.000000
   76       -0.365694   1.000000
   77       -0.198197   1.000000
   78       -0.080632   1.000000
   79       -0.071480   1.000000
   80        0.120959   1.000000
   81        0.155377   1.000000
   82        0.173913   1.000000
   83        0.468521   1.000000
   84        0.612624   1.000000
   85        0.620847   1.000000
   86        0.665205   1.000000
   87        0.973740   1.000000
   88        1.140448   1.000000
   89        1.332368   1.000000
   90        1.365813   1.000000
   91        1.400016   1.000000
   92        1.418408   1.000000
   93        1.446549   1.000000
   94        1.515135   1.000000
   95        1.647670   1.000000
   96        1.757043   1.000000
   97        2.026185   1.000001
   98        2.214051   1.000205