   75   75   85    1
  0.2059393E+02  0.1036705E-08  0.2428040E-08  0.6136055E-09  0.5000000E-15
   1.0000000000000000E-004
  CAR 
 Name                                    
    279     15    180

  0.3742002E-15  0.1262379E-14  0.3742002E-15  0.2222222E-01
    1      -14.073657   1.000000
    2      -12.902507   1.000000
    3      -12.889223   1.000000
    4      -12.873764   1.000000
    5      -11.936192   1.000000
    6      -11.778766   1.000000
    7      -11.747911   1.000000
    8      -11.519725   1.000000
    9      -11.511817   1.000000
   10      -11.341802   1.000000
   11      -11.319872   1.000000
   12      -11.080318   1.000000
   13      -11.006552   1.000000
   14      -10.544245   1.000000
   15      -10.511072   1.000000
   16      -10.381681   1.000000
   17      -10.252580   1.000000
   18      -10.146743   1.000000
   19       -9.780206   1.000000
   20       -9.649333   1.000000
   21       -9.605852   1.000000
   22       -9.548893   1.000000
   23       -9.454977   1.000000
   24       -9.411774   1.000000
   25       -8.935131   1.000000
   26       -8.880619   1.000000
   27       -8.634008   1.000000
   28       -8.559632   1.000000
   29       -8.281527   1.000000
   30       -8.267701   1.000000
   31       -8.216492   1.000000
   32       -7.852579   1.000000
   33       -7.821801   1.000000
   34       -7.416709   1.000000
   35       -7.313415   1.000000
   36       -7.273177   1.000000
   37       -7.091584   1.000000
   38       -6.974456   1.000000
   39       -6.898472   1.000000
   40       -6.784474   1.000000
   41       -6.774468   1.000000
   42       -6.771925   1.000000
   43       -6.626557   1.000000
   44       -6.577966   1.000000
   45       -6.521822   1.000000
   46       -6.322927   1.000000
   47       -6.282886   1.000000
   48       -6.185071   1.000000
   49       -6.179229   1.000000
   50       -5.990793   1.000000
   51       -5.859931   1.000000
   52       -5.742298   1.000000
   53       -5.725238   1.000000
   54       -5.704830   1.000000
   55       -5.677139   1.000000
   56       -5.625473   1.000000
   57       -5.543317   1.000000
   58       -5.390294   1.000000
   59       -5.298277   1.000000
   60       -5.276827   1.000000
   61       -5.234643   1.000000
   62       -5.004171   1.000000
   63       -4.968756   1.000000
   64       -4.777021   1.000000
   65       -4.769213   1.000000
   66       -4.751468   1.000000
   67       -4.616430   1.000000
   68       -4.583469   1.000000
   69       -4.477447   1.000000
   70       -4.336173   1.000000
   71       -4.256339   1.000000
   72       -4.218342   1.000000
   73       -4.163505   1.000000
   74       -4.111593   1.000000
   75       -4.092914   1.000000
   76       -4.022092   1.000000
   77       -4.003776   1.000000
   78       -4.000814   1.000000
   79       -3.972833   1.000000
   80       -3.967717   1.000000
   81       -3.865083   1.000000
   82       -3.683028   1.000000
   83       -3.674940   1.000000
   84       -3.656191   1.000000
   85       -3.646880   1.000000
   86       -3.595794   1.000000
   87       -3.577653   1.000000
   88       -3.569932   1.000000
   89       -3.553396   1.000000
   90       -3.548912   1.000000
   91       -3.527883   1.000000
   92       -3.464335   1.000000
   93       -3.335457   1.000000
   94       -3.276280   1.000000
   95       -3.100110   1.000000
   96       -3.011844   1.000000
   97       -2.986679   1.000000
   98       -2.946016   1.000000
   99       -2.853101   1.000000
  100       -2.759004   1.000000
  101       -2.673827   1.000000
  102       -2.530746   1.000000
  103       -2.519965   1.000000
  104       -2.409313   1.000000
  105       -2.371587   1.000000
  106       -2.298916   1.000000
  107       -2.200395   1.000000
  108       -2.102030   1.000000
  109       -2.094976   1.000000
  110       -2.059058   1.000000
  111       -2.056925   1.000000
  112       -1.997249   1.000000
  113       -1.847407   1.000000
  114       -1.807984   1.000000
  115       -1.795597   1.000000
  116       -1.756475   1.000000
  117       -1.677907   1.000000
  118       -1.660042   1.000000
  119       -1.607199   1.000000
  120       -1.479339   1.000000
  121       -1.442515   1.000000
  122       -1.260020   1.000000
  123       -1.225037   1.000000
  124       -0.931412   1.000000
  125       -0.873962   1.000000
  126       -0.730212   1.000000
  127       -0.583182   1.000000
  128       -0.523031   1.000000
  129       -0.487811   1.000000
  130       -0.405189   1.000000
  131       -0.164201   1.000000
  132       -0.109447   1.000000
  133       -0.005152   1.000047
  134        0.163063   1.030255
  135        0.193402   1.034086
  136        0.199696   1.031130
  137        0.254211   0.884942
  138        0.325196   0.348671
  139        0.393363  -0.004617
  140        0.401460  -0.018406
  141        0.479164  -0.017607
  142        0.485991  -0.014816
  143        0.531200  -0.003387
  144        0.544818  -0.001960
  145        0.549640  -0.001597
  146        0.565222  -0.000795
  147        0.597944  -0.000153
  148        0.600805  -0.000131
  149        0.721727  -0.000000
  150        0.772568  -0.000000
  151        0.857407  -0.000000
  152        0.915754  -0.000000
  153        1.006772  -0.000000
  154        1.066516  -0.000000
  155        1.095898  -0.000000
  156        1.106318  -0.000000
  157        1.126272  -0.000000
  158        1.234401  -0.000000
  159        1.251774  -0.000000
  160        1.288603  -0.000000
  161        1.293267  -0.000000
  162        1.346858  -0.000000
  163        1.352019  -0.000000
  164        1.371763  -0.000000
  165        1.415951  -0.000000
  166        1.506344  -0.000000
  167        1.538655  -0.000000
  168        1.543817  -0.000000
  169        1.556708  -0.000000
  170        1.602656  -0.000000
  171        1.613591  -0.000000
  172        1.619477  -0.000000
  173        1.632585  -0.000000
  174        1.664690  -0.000000
  175        1.673135  -0.000000
  176        1.711102  -0.000000
  177        1.740279  -0.000000
  178        1.796747  -0.000000
  179        1.881396  -0.000000
  180        1.899474  -0.000000

  0.2000000E+00  0.1262379E-14  0.3742002E-15  0.4444444E-01
    1      -14.024401   1.000000
    2      -13.305479   1.000000
    3      -12.836784   1.000000
    4      -12.402496   1.000000
    5      -12.156978   1.000000
    6      -11.920050   1.000000
    7      -11.670461   1.000000
    8      -11.331279   1.000000
    9      -11.324753   1.000000
   10      -11.312113   1.000000
   11      -11.268155   1.000000
   12      -11.147277   1.000000
   13      -10.911233   1.000000
   14      -10.681238   1.000000
   15      -10.639720   1.000000
   16      -10.607100   1.000000
   17      -10.540304   1.000000
   18       -9.891293   1.000000
   19       -9.778625   1.000000
   20       -9.645701   1.000000
   21       -9.542303   1.000000
   22       -9.520032   1.000000
   23       -9.499149   1.000000
   24       -9.395728   1.000000
   25       -9.080940   1.000000
   26       -8.914760   1.000000
   27       -8.332940   1.000000
   28       -8.268867   1.000000
   29       -8.239678   1.000000
   30       -8.223621   1.000000
   31       -8.169634   1.000000
   32       -8.137672   1.000000
   33       -7.679086   1.000000
   34       -7.552712   1.000000
   35       -7.294262   1.000000
   36       -7.281213   1.000000
   37       -7.246488   1.000000
   38       -7.166645   1.000000
   39       -6.953174   1.000000
   40       -6.838213   1.000000
   41       -6.759032   1.000000
   42       -6.738290   1.000000
   43       -6.691151   1.000000
   44       -6.571116   1.000000
   45       -6.482091   1.000000
   46       -6.376278   1.000000
   47       -6.251889   1.000000
   48       -6.153950   1.000000
   49       -6.132879   1.000000
   50       -6.103276   1.000000
   51       -5.792318   1.000000
   52       -5.753099   1.000000
   53       -5.661817   1.000000
   54       -5.498692   1.000000
   55       -5.472387   1.000000
   56       -5.446369   1.000000
   57       -5.428013   1.000000
   58       -5.419668   1.000000
   59       -5.393180   1.000000
   60       -5.338214   1.000000
   61       -5.277279   1.000000
   62       -5.131719   1.000000
   63       -4.918667   1.000000
   64       -4.904746   1.000000
   65       -4.812364   1.000000
   66       -4.784388   1.000000
   67       -4.630550   1.000000
   68       -4.621676   1.000000
   69       -4.560817   1.000000
   70       -4.319303   1.000000
   71       -4.272590   1.000000
   72       -4.195614   1.000000
   73       -4.180630   1.000000
   74       -4.110522   1.000000
   75       -4.076375   1.000000
   76       -4.075120   1.000000
   77       -3.971799   1.000000
   78       -3.963130   1.000000
   79       -3.915644   1.000000
   80       -3.851514   1.000000
   81       -3.816714   1.000000
   82       -3.809584   1.000000
   83       -3.706017   1.000000
   84       -3.681018   1.000000
   85       -3.671555   1.000000
   86       -3.664336   1.000000
   87       -3.607857   1.000000
   88       -3.533171   1.000000
   89       -3.526333   1.000000
   90       -3.513513   1.000000
   91       -3.509810   1.000000
   92       -3.399348   1.000000
   93       -3.386758   1.000000
   94       -3.316074   1.000000
   95       -3.110722   1.000000
   96       -3.064617   1.000000
   97       -3.031756   1.000000
   98       -2.869680   1.000000
   99       -2.847509   1.000000
  100       -2.782944   1.000000
  101       -2.680142   1.000000
  102       -2.576140   1.000000
  103       -2.501205   1.000000
  104       -2.437834   1.000000
  105       -2.397370   1.000000
  106       -2.273776   1.000000
  107       -2.202741   1.000000
  108       -2.082517   1.000000
  109       -2.040991   1.000000
  110       -1.987625   1.000000
  111       -1.960942   1.000000
  112       -1.926663   1.000000
  113       -1.888916   1.000000
  114       -1.827341   1.000000
  115       -1.800834   1.000000
  116       -1.679752   1.000000
  117       -1.636574   1.000000
  118       -1.566103   1.000000
  119       -1.522588   1.000000
  120       -1.490965   1.000000
  121       -1.366200   1.000000
  122       -1.271949   1.000000
  123       -1.173681   1.000000
  124       -0.999623   1.000000
  125       -0.893126   1.000000
  126       -0.836576   1.000000
  127       -0.665921   1.000000
  128       -0.545436   1.000000
  129       -0.493758   1.000000
  130       -0.481407   1.000000
  131       -0.318863   1.000000
  132       -0.274763   1.000000
  133       -0.160493   1.000000
  134        0.045065   1.000669
  135        0.067841   1.001855
  136        0.129832   1.015550
  137        0.211769   1.019421
  138        0.347563   0.185929
  139        0.359536   0.116204
  140        0.472980  -0.020322
  141        0.476044  -0.018958
  142        0.532496  -0.003222
  143        0.555655  -0.001228
  144        0.587348  -0.000268
  145        0.605407  -0.000102
  146        0.627969  -0.000028
  147        0.638676  -0.000014
  148        0.669557  -0.000002
  149        0.762651  -0.000000
  150        0.776268  -0.000000
  151        0.909330  -0.000000
  152        1.004612  -0.000000
  153        1.038104  -0.000000
  154        1.076871  -0.000000
  155        1.157149  -0.000000
  156        1.179258  -0.000000
  157        1.202454  -0.000000
  158        1.251239  -0.000000
  159        1.259493  -0.000000
  160        1.288951  -0.000000
  161        1.338200  -0.000000
  162        1.355275  -0.000000
  163        1.374317  -0.000000
  164        1.422445  -0.000000
  165        1.440334  -0.000000
  166        1.515000  -0.000000
  167        1.531525  -0.000000
  168        1.537359  -0.000000
  169        1.558263  -0.000000
  170        1.574147  -0.000000
  171        1.608146  -0.000000
  172        1.633790  -0.000000
  173        1.659522  -0.000000
  174        1.681802  -0.000000
  175        1.697478  -0.000000
  176        1.763448  -0.000000
  177        1.777485  -0.000000
  178        1.849852  -0.000000
  179        1.889020  -0.000000
  180        1.960535  -0.000000

  0.4000000E+00  0.1262379E-14  0.3742002E-15  0.4444444E-01
    1      -13.877707   1.000000
    2      -13.636212   1.000000
    3      -12.699760   1.000000
    4      -12.469896   1.000000
    5      -11.871538   1.000000
    6      -11.848018   1.000000
    7      -11.788582   1.000000
    8      -11.295740   1.000000
    9      -11.250069   1.000000
   10      -11.242791   1.000000
   11      -11.164937   1.000000
   12      -11.083195   1.000000
   13      -10.955034   1.000000
   14      -10.850796   1.000000
   15      -10.773964   1.000000
   16      -10.755992   1.000000
   17      -10.637432   1.000000
   18      -10.168907   1.000000
   19       -9.768799   1.000000
   20       -9.701615   1.000000
   21       -9.453476   1.000000
   22       -9.448502   1.000000
   23       -9.401561   1.000000
   24       -9.352189   1.000000
   25       -9.146667   1.000000
   26       -8.862648   1.000000
   27       -8.368993   1.000000
   28       -8.124350   1.000000
   29       -7.934345   1.000000
   30       -7.912955   1.000000
   31       -7.891228   1.000000
   32       -7.862097   1.000000
   33       -7.830209   1.000000
   34       -7.792719   1.000000
   35       -7.572184   1.000000
   36       -7.535421   1.000000
   37       -7.429457   1.000000
   38       -7.359201   1.000000
   39       -7.246660   1.000000
   40       -6.967085   1.000000
   41       -6.816097   1.000000
   42       -6.625365   1.000000
   43       -6.594895   1.000000
   44       -6.495219   1.000000
   45       -6.460729   1.000000
   46       -6.238981   1.000000
   47       -6.213311   1.000000
   48       -6.059967   1.000000
   49       -6.006142   1.000000
   50       -5.928946   1.000000
   51       -5.919280   1.000000
   52       -5.800952   1.000000
   53       -5.794844   1.000000
   54       -5.650624   1.000000
   55       -5.514868   1.000000
   56       -5.401150   1.000000
   57       -5.393497   1.000000
   58       -5.233520   1.000000
   59       -5.199876   1.000000
   60       -5.187149   1.000000
   61       -5.168875   1.000000
   62       -5.107978   1.000000
   63       -4.988253   1.000000
   64       -4.962556   1.000000
   65       -4.878409   1.000000
   66       -4.749469   1.000000
   67       -4.724377   1.000000
   68       -4.654855   1.000000
   69       -4.500217   1.000000
   70       -4.429801   1.000000
   71       -4.342595   1.000000
   72       -4.241957   1.000000
   73       -4.213947   1.000000
   74       -4.164633   1.000000
   75       -4.153022   1.000000
   76       -4.079504   1.000000
   77       -4.045176   1.000000
   78       -4.008596   1.000000
   79       -3.877403   1.000000
   80       -3.838624   1.000000
   81       -3.791742   1.000000
   82       -3.775436   1.000000
   83       -3.766140   1.000000
   84       -3.745298   1.000000
   85       -3.711881   1.000000
   86       -3.633653   1.000000
   87       -3.560231   1.000000
   88       -3.543098   1.000000
   89       -3.516879   1.000000
   90       -3.414811   1.000000
   91       -3.341087   1.000000
   92       -3.327069   1.000000
   93       -3.309309   1.000000
   94       -3.269056   1.000000
   95       -3.186710   1.000000
   96       -3.153197   1.000000
   97       -3.070842   1.000000
   98       -3.026852   1.000000
   99       -2.909502   1.000000
  100       -2.870242   1.000000
  101       -2.717313   1.000000
  102       -2.571288   1.000000
  103       -2.460165   1.000000
  104       -2.423106   1.000000
  105       -2.274509   1.000000
  106       -2.245432   1.000000
  107       -2.228326   1.000000
  108       -2.099327   1.000000
  109       -2.023134   1.000000
  110       -2.004096   1.000000
  111       -1.980715   1.000000
  112       -1.851582   1.000000
  113       -1.786064   1.000000
  114       -1.717162   1.000000
  115       -1.664594   1.000000
  116       -1.583733   1.000000
  117       -1.559281   1.000000
  118       -1.516389   1.000000
  119       -1.362784   1.000000
  120       -1.290152   1.000000
  121       -1.176013   1.000000
  122       -1.162415   1.000000
  123       -1.156047   1.000000
  124       -1.126703   1.000000
  125       -1.024529   1.000000
  126       -0.975310   1.000000
  127       -0.818563   1.000000
  128       -0.788072   1.000000
  129       -0.762734   1.000000
  130       -0.635743   1.000000
  131       -0.502207   1.000000
  132       -0.474260   1.000000
  133       -0.168312   1.000000
  134       -0.144124   1.000000
  135       -0.000828   1.000060
  136        0.154249   1.026417
  137        0.214092   1.016091
  138        0.270625   0.786302
  139        0.393298  -0.004486
  140        0.415424  -0.031815
  141        0.465896  -0.023569
  142        0.503762  -0.008859
  143        0.551487  -0.001475
  144        0.573820  -0.000528
  145        0.613793  -0.000063
  146        0.639690  -0.000013
  147        0.659657  -0.000004
  148        0.758830  -0.000000
  149        0.796177  -0.000000
  150        0.909739  -0.000000
  151        1.067056  -0.000000
  152        1.114562  -0.000000
  153        1.121981  -0.000000
  154        1.141599  -0.000000
  155        1.197924  -0.000000
  156        1.212228  -0.000000
  157        1.252171  -0.000000
  158        1.330046  -0.000000
  159        1.365462  -0.000000
  160        1.380478  -0.000000
  161        1.395878  -0.000000
  162        1.406725  -0.000000
  163        1.427692  -0.000000
  164        1.490482  -0.000000
  165        1.503684  -0.000000
  166        1.538843  -0.000000
  167        1.556145  -0.000000
  168        1.572273  -0.000000
  169        1.576483  -0.000000
  170        1.631592  -0.000000
  171        1.654961  -0.000000
  172        1.672658  -0.000000
  173        1.694051  -0.000000
  174        1.721028  -0.000000
  175        1.742302  -0.000000
  176        1.768038  -0.000000
  177        1.800154  -0.000000
  178        1.818659  -0.000000
  179        1.869872  -0.000000
  180        1.915532  -0.000000

  0.3742002E-15  0.1262379E-14  0.1111111E+00  0.4444444E-01
    1      -14.028168   1.000000
    2      -12.866424   1.000000
    3      -12.854509   1.000000
    4      -12.836277   1.000000
    5      -12.041982   1.000000
    6      -11.750392   1.000000
    7      -11.718495   1.000000
    8      -11.565338   1.000000
    9      -11.558822   1.000000
   10      -11.409671   1.000000
   11      -11.281607   1.000000
   12      -11.090094   1.000000
   13      -11.018620   1.000000
   14      -10.535937   1.000000
   15      -10.520316   1.000000
   16      -10.351153   1.000000
   17      -10.236245   1.000000
   18      -10.107542   1.000000
   19       -9.801127   1.000000
   20       -9.680135   1.000000
   21       -9.587598   1.000000
   22       -9.576508   1.000000
   23       -9.455572   1.000000
   24       -9.397985   1.000000
   25       -8.910199   1.000000
   26       -8.906795   1.000000
   27       -8.632778   1.000000
   28       -8.551329   1.000000
   29       -8.322740   1.000000
   30       -8.248398   1.000000
   31       -8.049944   1.000000
   32       -7.919165   1.000000
   33       -7.864936   1.000000
   34       -7.473121   1.000000
   35       -7.378290   1.000000
   36       -7.346275   1.000000
   37       -7.065422   1.000000
   38       -6.976092   1.000000
   39       -6.884542   1.000000
   40       -6.722334   1.000000
   41       -6.711690   1.000000
   42       -6.698194   1.000000
   43       -6.626068   1.000000
   44       -6.561151   1.000000
   45       -6.511417   1.000000
   46       -6.337849   1.000000
   47       -6.309927   1.000000
   48       -6.230554   1.000000
   49       -6.199388   1.000000
   50       -5.940818   1.000000
   51       -5.806500   1.000000
   52       -5.801191   1.000000
   53       -5.753288   1.000000
   54       -5.710518   1.000000
   55       -5.644882   1.000000
   56       -5.526458   1.000000
   57       -5.488341   1.000000
   58       -5.390344   1.000000
   59       -5.295747   1.000000
   60       -5.255858   1.000000
   61       -5.167115   1.000000
   62       -4.993488   1.000000
   63       -4.937656   1.000000
   64       -4.741532   1.000000
   65       -4.728184   1.000000
   66       -4.689544   1.000000
   67       -4.612275   1.000000
   68       -4.573150   1.000000
   69       -4.480987   1.000000
   70       -4.328308   1.000000
   71       -4.281974   1.000000
   72       -4.199869   1.000000
   73       -4.163568   1.000000
   74       -4.147200   1.000000
   75       -4.088237   1.000000
   76       -4.062030   1.000000
   77       -4.053235   1.000000
   78       -4.021020   1.000000
   79       -3.999014   1.000000
   80       -3.998928   1.000000
   81       -3.913188   1.000000
   82       -3.839935   1.000000
   83       -3.820171   1.000000
   84       -3.748665   1.000000
   85       -3.721872   1.000000
   86       -3.693548   1.000000
   87       -3.626678   1.000000
   88       -3.594644   1.000000
   89       -3.563287   1.000000
   90       -3.535507   1.000000
   91       -3.519618   1.000000
   92       -3.465744   1.000000
   93       -3.349581   1.000000
   94       -3.276482   1.000000
   95       -3.124940   1.000000
   96       -3.012959   1.000000
   97       -2.954202   1.000000
   98       -2.906234   1.000000
   99       -2.769258   1.000000
  100       -2.708542   1.000000
  101       -2.588801   1.000000
  102       -2.561719   1.000000
  103       -2.540744   1.000000
  104       -2.458574   1.000000
  105       -2.343733   1.000000
  106       -2.279709   1.000000
  107       -2.243482   1.000000
  108       -2.144569   1.000000
  109       -2.100259   1.000000
  110       -2.061486   1.000000
  111       -2.040057   1.000000
  112       -1.959526   1.000000
  113       -1.851191   1.000000
  114       -1.847741   1.000000
  115       -1.748592   1.000000
  116       -1.742038   1.000000
  117       -1.708859   1.000000
  118       -1.676888   1.000000
  119       -1.562097   1.000000
  120       -1.396235   1.000000
  121       -1.367232   1.000000
  122       -1.282916   1.000000
  123       -1.164020   1.000000
  124       -0.973276   1.000000
  125       -0.840043   1.000000
  126       -0.711196   1.000000
  127       -0.636555   1.000000
  128       -0.592673   1.000000
  129       -0.529218   1.000000
  130       -0.334289   1.000000
  131       -0.297191   1.000000
  132       -0.224365   1.000000
  133        0.072843   1.002283
  134        0.131416   1.016192
  135        0.177513   1.034773
  136        0.180990   1.035276
  137        0.210589   1.020969
  138        0.231317   0.978113
  139        0.318061   0.406888
  140        0.368818   0.071922
  141        0.371034   0.062636
  142        0.390188   0.002202
  143        0.527305  -0.003928
  144        0.538372  -0.002553
  145        0.571724  -0.000584
  146        0.725155  -0.000000
  147        0.760460  -0.000000
  148        0.774439  -0.000000
  149        0.840525  -0.000000
  150        0.880282  -0.000000
  151        0.902022  -0.000000
  152        0.961456  -0.000000
  153        0.991008  -0.000000
  154        1.009042  -0.000000
  155        1.056898  -0.000000
  156        1.091872  -0.000000
  157        1.186542  -0.000000
  158        1.198635  -0.000000
  159        1.252033  -0.000000
  160        1.270520  -0.000000
  161        1.332329  -0.000000
  162        1.333909  -0.000000
  163        1.375617  -0.000000
  164        1.392972  -0.000000
  165        1.415814  -0.000000
  166        1.486677  -0.000000
  167        1.495062  -0.000000
  168        1.509279  -0.000000
  169        1.555107  -0.000000
  170        1.576948  -0.000000
  171        1.591948  -0.000000
  172        1.610297  -0.000000
  173        1.661628  -0.000000
  174        1.692649  -0.000000
  175        1.703328  -0.000000
  176        1.761485  -0.000000
  177        1.771808  -0.000000
  178        1.834427  -0.000000
  179        1.853230  -0.000000
  180        1.862018  -0.000000

  0.2000000E+00  0.1262379E-14  0.1111111E+00  0.8888889E-01
    1      -13.979312   1.000000
    2      -13.266674   1.000000
    3      -12.798399   1.000000
    4      -12.373316   1.000000
    5      -12.124441   1.000000
    6      -12.022876   1.000000
    7      -11.732435   1.000000
    8      -11.393828   1.000000
    9      -11.358126   1.000000
   10      -11.282486   1.000000
   11      -11.235574   1.000000
   12      -11.170102   1.000000
   13      -10.913326   1.000000
   14      -10.654876   1.000000
   15      -10.624538   1.000000
   16      -10.589782   1.000000
   17      -10.552046   1.000000
   18       -9.871372   1.000000
   19       -9.801474   1.000000
   20       -9.643189   1.000000
   21       -9.542826   1.000000
   22       -9.532949   1.000000
   23       -9.486388   1.000000
   24       -9.401130   1.000000
   25       -9.079492   1.000000
   26       -8.908671   1.000000
   27       -8.358069   1.000000
   28       -8.282807   1.000000
   29       -8.230087   1.000000
   30       -8.219746   1.000000
   31       -8.177597   1.000000
   32       -7.981149   1.000000
   33       -7.761300   1.000000
   34       -7.632609   1.000000
   35       -7.370410   1.000000
   36       -7.240180   1.000000
   37       -7.167247   1.000000
   38       -7.151644   1.000000
   39       -6.958730   1.000000
   40       -6.836103   1.000000
   41       -6.780638   1.000000
   42       -6.745951   1.000000
   43       -6.634464   1.000000
   44       -6.561440   1.000000
   45       -6.552376   1.000000
   46       -6.463307   1.000000
   47       -6.235569   1.000000
   48       -6.191437   1.000000
   49       -6.055938   1.000000
   50       -5.931906   1.000000
   51       -5.821910   1.000000
   52       -5.779682   1.000000
   53       -5.640239   1.000000
   54       -5.563543   1.000000
   55       -5.493723   1.000000
   56       -5.464353   1.000000
   57       -5.400119   1.000000
   58       -5.364320   1.000000
   59       -5.316168   1.000000
   60       -5.279354   1.000000
   61       -5.221949   1.000000
   62       -5.104908   1.000000
   63       -4.911356   1.000000
   64       -4.874818   1.000000
   65       -4.776445   1.000000
   66       -4.748529   1.000000
   67       -4.621035   1.000000
   68       -4.609305   1.000000
   69       -4.495835   1.000000
   70       -4.327412   1.000000
   71       -4.274518   1.000000
   72       -4.215068   1.000000
   73       -4.183478   1.000000
   74       -4.130863   1.000000
   75       -4.086242   1.000000
   76       -4.059165   1.000000
   77       -4.036465   1.000000
   78       -4.022968   1.000000
   79       -3.965656   1.000000
   80       -3.891324   1.000000
   81       -3.852724   1.000000
   82       -3.830538   1.000000
   83       -3.817414   1.000000
   84       -3.774028   1.000000
   85       -3.766504   1.000000
   86       -3.712647   1.000000
   87       -3.664943   1.000000
   88       -3.618704   1.000000
   89       -3.581966   1.000000
   90       -3.531896   1.000000
   91       -3.433953   1.000000
   92       -3.405840   1.000000
   93       -3.363047   1.000000
   94       -3.310625   1.000000
   95       -3.115181   1.000000
   96       -3.013547   1.000000
   97       -2.973851   1.000000
   98       -2.915244   1.000000
   99       -2.875277   1.000000
  100       -2.763384   1.000000
  101       -2.678542   1.000000
  102       -2.581777   1.000000
  103       -2.451990   1.000000
  104       -2.415196   1.000000
  105       -2.396699   1.000000
  106       -2.271928   1.000000
  107       -2.230786   1.000000
  108       -2.119271   1.000000
  109       -2.065976   1.000000
  110       -2.013051   1.000000
  111       -1.974999   1.000000
  112       -1.881242   1.000000
  113       -1.845577   1.000000
  114       -1.811717   1.000000
  115       -1.769458   1.000000
  116       -1.719126   1.000000
  117       -1.647522   1.000000
  118       -1.638480   1.000000
  119       -1.518817   1.000000
  120       -1.431311   1.000000
  121       -1.332215   1.000000
  122       -1.283154   1.000000
  123       -1.178178   1.000000
  124       -0.964511   1.000000
  125       -0.940696   1.000000
  126       -0.805686   1.000000
  127       -0.733009   1.000000
  128       -0.691984   1.000000
  129       -0.480913   1.000000
  130       -0.453177   1.000000
  131       -0.293625   1.000000
  132       -0.121117   1.000000
  133       -0.011572   1.000032
  134        0.042624   1.000595
  135        0.071157   1.002130
  136        0.097786   1.005873
  137        0.123092   1.012981
  138        0.266373   0.814267
  139        0.286132   0.672274
  140        0.376633   0.041355
  141        0.432110  -0.035353
  142        0.476655  -0.018691
  143        0.556257  -0.001196
  144        0.562898  -0.000885
  145        0.579980  -0.000390
  146        0.673373  -0.000001
  147        0.725636  -0.000000
  148        0.778859  -0.000000
  149        0.878781  -0.000000
  150        0.918319  -0.000000
  151        0.965812  -0.000000
  152        0.981184  -0.000000
  153        1.009196  -0.000000
  154        1.075879  -0.000000
  155        1.145045  -0.000000
  156        1.205875  -0.000000
  157        1.228144  -0.000000
  158        1.244033  -0.000000
  159        1.259417  -0.000000
  160        1.271769  -0.000000
  161        1.330479  -0.000000
  162        1.346400  -0.000000
  163        1.353872  -0.000000
  164        1.437836  -0.000000
  165        1.450342  -0.000000
  166        1.456816  -0.000000
  167        1.482689  -0.000000
  168        1.533926  -0.000000
  169        1.567251  -0.000000
  170        1.597602  -0.000000
  171        1.620361  -0.000000
  172        1.628341  -0.000000
  173        1.660000  -0.000000