   51   51   85    1
  0.2316787E+02  0.8645320E-09  0.6085000E-09  0.2593596E-08  0.5000000E-15
   1.0000000000000000E-004
  CAR 
 Name                                    
    191    149    128

  0.3742002E-15  0.3742002E-15  0.3742002E-15  0.3367003E-02
    1      -13.984385   1.000000
    2      -12.673935   1.000000
    3      -12.470167   1.000000
    4      -12.016178   1.000000
    5      -11.716111   1.000000
    6      -11.224513   1.000000
    7      -11.176585   1.000000
    8      -11.127875   1.000000
    9      -11.124256   1.000000
   10      -10.698479   1.000000
   11      -10.695183   1.000000
   12      -10.375313   1.000000
   13      -10.236389   1.000000
   14      -10.186234   1.000000
   15       -9.881627   1.000000
   16       -9.830645   1.000000
   17       -9.251969   1.000000
   18       -8.895947   1.000000
   19       -8.876284   1.000000
   20       -8.824628   1.000000
   21       -8.748261   1.000000
   22       -8.628567   1.000000
   23       -8.553486   1.000000
   24       -8.157696   1.000000
   25       -8.034506   1.000000
   26       -8.009873   1.000000
   27       -7.461371   1.000000
   28       -7.344912   1.000000
   29       -6.941500   1.000000
   30       -6.842873   1.000000
   31       -6.546282   1.000000
   32       -6.534404   1.000000
   33       -6.392777   1.000000
   34       -6.053548   1.000000
   35       -5.996451   1.000000
   36       -5.724378   1.000000
   37       -5.673637   1.000000
   38       -5.602248   1.000000
   39       -5.481281   1.000000
   40       -5.379924   1.000000
   41       -5.333072   1.000000
   42       -5.232133   1.000000
   43       -5.164049   1.000000
   44       -5.089876   1.000000
   45       -5.079643   1.000000
   46       -4.912651   1.000000
   47       -4.811740   1.000000
   48       -4.769440   1.000000
   49       -4.638688   1.000000
   50       -4.576295   1.000000
   51       -4.572661   1.000000
   52       -4.509641   1.000000
   53       -4.495518   1.000000
   54       -4.445553   1.000000
   55       -4.385783   1.000000
   56       -4.227684   1.000000
   57       -4.147176   1.000000
   58       -4.113982   1.000000
   59       -4.103647   1.000000
   60       -4.077491   1.000000
   61       -3.910613   1.000000
   62       -3.805939   1.000000
   63       -3.581039   1.000000
   64       -3.506723   1.000000
   65       -3.446267   1.000000
   66       -3.428976   1.000000
   67       -3.368870   1.000000
   68       -3.351260   1.000000
   69       -3.292189   1.000000
   70       -3.283058   1.000000
   71       -3.263121   1.000000
   72       -3.102077   1.000000
   73       -2.795340   1.000000
   74       -2.711980   1.000000
   75       -2.581416   1.000000
   76       -2.544816   1.000000
   77       -2.307137   1.000000
   78       -2.256348   1.000000
   79       -2.248603   1.000000
   80       -2.246055   1.000000
   81       -1.945998   1.000000
   82       -1.786803   1.000000
   83       -1.554139   1.000000
   84       -1.320379   1.000000
   85       -1.160289   1.000000
   86       -1.122224   1.000000
   87       -1.080019   1.000000
   88       -0.994772   1.000000
   89       -0.906507   1.000000
   90       -0.392086   1.000000
   91       -0.345954   1.000000
   92       -0.105501   1.020080
   93       -0.004609   0.943743
   94        0.016897   0.836231
   95        0.035723   0.706802
   96        0.159455  -0.023408
   97        0.215016  -0.025848
   98        0.498350  -0.000000
   99        0.550436  -0.000000
  100        0.569704  -0.000000
  101        0.597375  -0.000000
  102        0.680455  -0.000000
  103        0.756873  -0.000000
  104        0.810592  -0.000000
  105        0.854452  -0.000000
  106        1.016860  -0.000000
  107        1.209698  -0.000000
  108        1.274333  -0.000000
  109        1.286156  -0.000000
  110        1.388857  -0.000000
  111        1.402371  -0.000000
  112        1.460157  -0.000000
  113        1.475015  -0.000000
  114        1.569774  -0.000000
  115        1.605224  -0.000000
  116        1.681060  -0.000000
  117        1.697430  -0.000000
  118        1.745542  -0.000000
  119        1.768235  -0.000000
  120        1.872410  -0.000000
  121        1.945203  -0.000000
  122        2.076638  -0.000000
  123        2.129361  -0.000000
  124        2.190169  -0.000000
  125        2.227100  -0.000000
  126        2.278802  -0.000000
  127        2.312513  -0.000000
  128        2.322201  -0.000000

  0.1111111E+00  0.3729374E-15  0.3860503E-15  0.6734007E-02
    1      -13.957333   1.000000
    2      -12.651708   1.000000
    3      -12.592323   1.000000
    4      -11.954482   1.000000
    5      -11.698884   1.000000
    6      -11.227137   1.000000
    7      -11.186945   1.000000
    8      -11.129921   1.000000
    9      -11.119970   1.000000
   10      -10.698594   1.000000
   11      -10.693348   1.000000
   12      -10.400123   1.000000
   13      -10.226300   1.000000
   14      -10.183482   1.000000
   15       -9.864161   1.000000
   16       -9.812473   1.000000
   17       -9.242514   1.000000
   18       -8.909488   1.000000
   19       -8.866223   1.000000
   20       -8.807667   1.000000
   21       -8.758998   1.000000
   22       -8.629220   1.000000
   23       -8.591817   1.000000
   24       -8.152042   1.000000
   25       -8.072708   1.000000
   26       -8.040051   1.000000
   27       -7.506845   1.000000
   28       -7.402862   1.000000
   29       -6.897170   1.000000
   30       -6.796513   1.000000
   31       -6.526192   1.000000
   32       -6.512340   1.000000
   33       -6.392642   1.000000
   34       -6.039817   1.000000
   35       -5.994386   1.000000
   36       -5.729412   1.000000
   37       -5.650597   1.000000
   38       -5.596243   1.000000
   39       -5.486764   1.000000
   40       -5.397864   1.000000
   41       -5.333264   1.000000
   42       -5.228903   1.000000
   43       -5.143005   1.000000
   44       -5.076806   1.000000
   45       -5.049060   1.000000
   46       -4.887372   1.000000
   47       -4.817964   1.000000
   48       -4.736601   1.000000
   49       -4.670798   1.000000
   50       -4.553656   1.000000
   51       -4.550278   1.000000
   52       -4.514246   1.000000
   53       -4.480074   1.000000
   54       -4.429378   1.000000
   55       -4.363002   1.000000
   56       -4.221722   1.000000
   57       -4.145907   1.000000
   58       -4.121808   1.000000
   59       -4.109873   1.000000
   60       -4.074521   1.000000
   61       -3.898402   1.000000
   62       -3.806945   1.000000
   63       -3.597610   1.000000
   64       -3.515061   1.000000
   65       -3.435473   1.000000
   66       -3.418071   1.000000
   67       -3.398915   1.000000
   68       -3.351363   1.000000
   69       -3.305925   1.000000
   70       -3.271651   1.000000
   71       -3.228760   1.000000
   72       -3.123840   1.000000
   73       -2.878843   1.000000
   74       -2.709172   1.000000
   75       -2.593271   1.000000
   76       -2.511193   1.000000
   77       -2.344300   1.000000
   78       -2.311932   1.000000
   79       -2.300558   1.000000
   80       -2.238120   1.000000
   81       -1.942271   1.000000
   82       -1.683582   1.000000
   83       -1.580998   1.000000
   84       -1.333944   1.000000
   85       -1.170185   1.000000
   86       -1.139042   1.000000
   87       -1.042462   1.000000
   88       -0.978201   1.000000
   89       -0.808056   1.000000
   90       -0.459772   1.000000
   91       -0.413799   1.000000
   92       -0.085694   1.029082
   93       -0.060129   1.035431
   94        0.049155   0.599767
   95        0.088466   0.277271
   96        0.172829  -0.033434
   97        0.193969  -0.034002
   98        0.493531  -0.000000
   99        0.518022  -0.000000
  100        0.562096  -0.000000
  101        0.622483  -0.000000
  102        0.705955  -0.000000
  103        0.776767  -0.000000
  104        0.829245  -0.000000
  105        0.861357  -0.000000
  106        1.047811  -0.000000
  107        1.214058  -0.000000
  108        1.263196  -0.000000
  109        1.302698  -0.000000
  110        1.386517  -0.000000
  111        1.430222  -0.000000
  112        1.476189  -0.000000
  113        1.498998  -0.000000
  114        1.573422  -0.000000
  115        1.631384  -0.000000
  116        1.660759  -0.000000
  117        1.672784  -0.000000
  118        1.752553  -0.000000
  119        1.766586  -0.000000
  120        1.872767  -0.000000
  121        1.948554  -0.000000
  122        2.033853  -0.000000
  123        2.106196  -0.000000
  124        2.164651  -0.000000
  125        2.198489  -0.000000
  126        2.235026  -0.000000
  127        2.290524  -0.000000
  128        2.325865  -0.000000

  0.2222222E+00  0.3922785E-15  0.3630220E-15  0.6734007E-02
    1      -13.876941   1.000000
    2      -12.838136   1.000000
    3      -12.578209   1.000000
    4      -11.914070   1.000000
    5      -11.649048   1.000000
    6      -11.287062   1.000000
    7      -11.153601   1.000000
    8      -11.120689   1.000000
    9      -11.093124   1.000000
   10      -10.696999   1.000000
   11      -10.687797   1.000000
   12      -10.483136   1.000000
   13      -10.209784   1.000000
   14      -10.180846   1.000000
   15       -9.809358   1.000000
   16       -9.755659   1.000000
   17       -9.218379   1.000000
   18       -8.910216   1.000000
   19       -8.849653   1.000000
   20       -8.836140   1.000000
   21       -8.774789   1.000000
   22       -8.686496   1.000000
   23       -8.596981   1.000000
   24       -8.225267   1.000000
   25       -8.183005   1.000000
   26       -7.984835   1.000000
   27       -7.699790   1.000000
   28       -7.388874   1.000000
   29       -6.870379   1.000000
   30       -6.722436   1.000000
   31       -6.489292   1.000000
   32       -6.469566   1.000000
   33       -6.379189   1.000000
   34       -6.098371   1.000000
   35       -5.928512   1.000000
   36       -5.738117   1.000000
   37       -5.634360   1.000000
   38       -5.587362   1.000000
   39       -5.505575   1.000000
   40       -5.292849   1.000000
   41       -5.248195   1.000000
   42       -5.199705   1.000000
   43       -5.140235   1.000000
   44       -5.034943   1.000000
   45       -4.977657   1.000000
   46       -4.959564   1.000000
   47       -4.857082   1.000000
   48       -4.699110   1.000000
   49       -4.627122   1.000000
   50       -4.534286   1.000000
   51       -4.504305   1.000000
   52       -4.466708   1.000000
   53       -4.443829   1.000000
   54       -4.404462   1.000000
   55       -4.309802   1.000000
   56       -4.224005   1.000000
   57       -4.143385   1.000000
   58       -4.128016   1.000000
   59       -4.099095   1.000000
   60       -4.061510   1.000000
   61       -3.867931   1.000000
   62       -3.803962   1.000000
   63       -3.661386   1.000000
   64       -3.588676   1.000000
   65       -3.445900   1.000000
   66       -3.412653   1.000000
   67       -3.385872   1.000000
   68       -3.368606   1.000000
   69       -3.295869   1.000000
   70       -3.240644   1.000000
   71       -3.199329   1.000000
   72       -3.132783   1.000000
   73       -3.009626   1.000000
   74       -2.736228   1.000000
   75       -2.586728   1.000000
   76       -2.497862   1.000000
   77       -2.475775   1.000000
   78       -2.458315   1.000000
   79       -2.381180   1.000000
   80       -2.160990   1.000000
   81       -1.967985   1.000000
   82       -1.645071   1.000000
   83       -1.476196   1.000000
   84       -1.361846   1.000000
   85       -1.233685   1.000000
   86       -1.086598   1.000000
   87       -0.971875   1.000000
   88       -0.923036   1.000000
   89       -0.599974   1.000000
   90       -0.579989   1.000000
   91       -0.555390   1.000000
   92       -0.231270   1.000143
   93        0.007356   0.889639
   94        0.052354   0.573175
   95        0.090140   0.264890
   96        0.203127  -0.030983
   97        0.379769  -0.000032
   98        0.394287  -0.000013
   99        0.486084  -0.000000
  100        0.494135  -0.000000
  101        0.640989  -0.000000
  102        0.775438  -0.000000
  103        0.815866  -0.000000
  104        0.871891  -0.000000
  105        0.899559  -0.000000
  106        1.160372  -0.000000
  107        1.180206  -0.000000
  108        1.272005  -0.000000
  109        1.373018  -0.000000
  110        1.402190  -0.000000
  111        1.455999  -0.000000
  112        1.495254  -0.000000
  113        1.545222  -0.000000
  114        1.581292  -0.000000
  115        1.607745  -0.000000
  116        1.642779  -0.000000
  117        1.704434  -0.000000
  118        1.743540  -0.000000
  119        1.751235  -0.000000
  120        1.880865  -0.000000
  121        1.942950  -0.000000
  122        1.972320  -0.000000
  123        2.041968  -0.000000
  124        2.060940  -0.000000
  125        2.146047  -0.000000
  126        2.180105  -0.000000
  127        2.311606  -0.000000
  128        2.346615  -0.000000

  0.3333333E+00  0.3713828E-15  0.3468587E-15  0.6734007E-02
    1      -13.745571   1.000000
    2      -13.100237   1.000000
    3      -12.465576   1.000000
    4      -11.992270   1.000000
    5      -11.575904   1.000000
    6      -11.336680   1.000000
    7      -11.117714   1.000000
    8      -11.104791   1.000000
    9      -11.025278   1.000000
   10      -10.695706   1.000000
   11      -10.680642   1.000000
   12      -10.607989   1.000000
   13      -10.204347   1.000000
   14      -10.184967   1.000000
   15       -9.721934   1.000000
   16       -9.662604   1.000000
   17       -9.208414   1.000000
   18       -9.006572   1.000000
   19       -8.913514   1.000000
   20       -8.825742   1.000000
   21       -8.752202   1.000000
   22       -8.643141   1.000000
   23       -8.585228   1.000000
   24       -8.346761   1.000000
   25       -8.317173   1.000000
   26       -7.962461   1.000000
   27       -7.806453   1.000000
   28       -7.255067   1.000000
   29       -7.005739   1.000000
   30       -6.711916   1.000000
   31       -6.470752   1.000000
   32       -6.416552   1.000000
   33       -6.340781   1.000000
   34       -6.226364   1.000000
   35       -5.822423   1.000000
   36       -5.786258   1.000000
   37       -5.523105   1.000000
   38       -5.496463   1.000000
   39       -5.433741   1.000000
   40       -5.245493   1.000000
   41       -5.213461   1.000000
   42       -5.184683   1.000000
   43       -5.149011   1.000000
   44       -5.041889   1.000000
   45       -4.967992   1.000000
   46       -4.892593   1.000000
   47       -4.837976   1.000000
   48       -4.682573   1.000000
   49       -4.600944   1.000000
   50       -4.510417   1.000000
   51       -4.487339   1.000000
   52       -4.423021   1.000000
   53       -4.401429   1.000000
   54       -4.361557   1.000000
   55       -4.254500   1.000000
   56       -4.214754   1.000000
   57       -4.182193   1.000000
   58       -4.069802   1.000000
   59       -4.044439   1.000000
   60       -4.016879   1.000000
   61       -3.881786   1.000000
   62       -3.807849   1.000000
   63       -3.718903   1.000000
   64       -3.692180   1.000000
   65       -3.448159   1.000000
   66       -3.439032   1.000000
   67       -3.418504   1.000000
   68       -3.368295   1.000000
   69       -3.354644   1.000000
   70       -3.218914   1.000000
   71       -3.167870   1.000000
   72       -3.025358   1.000000
   73       -3.014907   1.000000
   74       -2.814795   1.000000
   75       -2.704179   1.000000
   76       -2.647876   1.000000
   77       -2.582957   1.000000
   78       -2.484001   1.000000
   79       -2.392954   1.000000
   80       -2.137102   1.000000
   81       -1.933569   1.000000
   82       -1.701137   1.000000
   83       -1.533485   1.000000
   84       -1.322060   1.000000
   85       -1.174354   1.000000
   86       -0.954496   1.000000
   87       -0.906163   1.000000
   88       -0.819731   1.000000
   89       -0.738097   1.000000
   90       -0.703749   1.000000
   91       -0.427854   1.000000
   92       -0.269854   1.000015
   93       -0.024577   1.003047
   94        0.017628   0.831777
   95        0.131436   0.038738
   96        0.278703  -0.004336
   97        0.313831  -0.001021
   98        0.352570  -0.000149
   99        0.408023  -0.000005
  100        0.611390  -0.000000
  101        0.765806  -0.000000
  102        0.815187  -0.000000
  103        0.853554  -0.000000
  104        0.894356  -0.000000
  105        1.002119  -0.000000
  106        1.027513  -0.000000
  107        1.317171  -0.000000
  108        1.360671  -0.000000
  109        1.410677  -0.000000
  110        1.437974  -0.000000
  111        1.493327  -0.000000
  112        1.525507  -0.000000
  113        1.533677  -0.000000
  114        1.554815  -0.000000
  115        1.601970  -0.000000
  116        1.648751  -0.000000
  117        1.674212  -0.000000
  118        1.726989  -0.000000
  119        1.778785  -0.000000
  120        1.838979  -0.000000
  121        1.904003  -0.000000
  122        1.921131  -0.000000
  123        2.007226  -0.000000
  124        2.057296  -0.000000
  125        2.101670  -0.000000
  126        2.133685  -0.000000
  127        2.140019  -0.000000
  128        2.308744  -0.000000

  0.4444444E+00  0.3870091E-15  0.3932070E-15  0.6734007E-02
    1      -13.567508   1.000000
    2      -13.348678   1.000000
    3      -12.320635   1.000000
    4      -12.142920   1.000000
    5      -11.503331   1.000000
    6      -11.377581   1.000000
    7      -11.102469   1.000000
    8      -11.093768   1.000000
    9      -10.916473   1.000000
   10      -10.774349   1.000000
   11      -10.678905   1.000000
   12      -10.661290   1.000000
   13      -10.207779   1.000000
   14      -10.191537   1.000000
   15       -9.638716   1.000000
   16       -9.565284   1.000000
   17       -9.234675   1.000000
   18       -9.114982   1.000000
   19       -9.010936   1.000000
   20       -8.783261   1.000000
   21       -8.657213   1.000000
   22       -8.629891   1.000000
   23       -8.532094   1.000000
   24       -8.416779   1.000000
   25       -8.387680   1.000000
   26       -8.210906   1.000000
   27       -7.562842   1.000000
   28       -7.271926   1.000000
   29       -7.073877   1.000000
   30       -6.727774   1.000000
   31       -6.579051   1.000000
   32       -6.401192   1.000000
   33       -6.341499   1.000000
   34       -6.212562   1.000000
   35       -5.801974   1.000000
   36       -5.640339   1.000000
   37       -5.479027   1.000000
   38       -5.424111   1.000000
   39       -5.405647   1.000000
   40       -5.321970   1.000000
   41       -5.238051   1.000000
   42       -5.186742   1.000000
   43       -5.162269   1.000000
   44       -4.967193   1.000000
   45       -4.895751   1.000000
   46       -4.850978   1.000000
   47       -4.737922   1.000000
   48       -4.703294   1.000000
   49       -4.654784   1.000000
   50       -4.553948   1.000000
   51       -4.466359   1.000000
   52       -4.388808   1.000000
   53       -4.347112   1.000000
   54       -4.313528   1.000000
   55       -4.294915   1.000000
   56       -4.156996   1.000000
   57       -4.125744   1.000000
   58       -4.059711   1.000000
   59       -4.041419   1.000000
   60       -3.957246   1.000000
   61       -3.893644   1.000000
   62       -3.828489   1.000000
   63       -3.771180   1.000000
   64       -3.688042   1.000000
   65       -3.637223   1.000000
   66       -3.415182   1.000000
   67       -3.396124   1.000000
   68       -3.361324   1.000000
   69       -3.352356   1.000000
   70       -3.186166   1.000000
   71       -3.099023   1.000000
   72       -3.000205   1.000000
   73       -2.955180   1.000000
   74       -2.900997   1.000000
   75       -2.851642   1.000000
   76       -2.742138   1.000000
   77       -2.699188   1.000000
   78       -2.414913   1.000000
   79       -2.364718   1.000000
   80       -2.248128   1.000000
   81       -1.789009   1.000000
   82       -1.735603   1.000000
   83       -1.633307   1.000000
   84       -1.389274   1.000000
   85       -1.037782   1.000000
   86       -0.943954   1.000000
   87       -0.882301   1.000000
   88       -0.838921   1.000000
   89       -0.718960   1.000000
   90       -0.590692   1.000000
   91       -0.524715   1.000000
   92       -0.195656   1.000854
   93       -0.042382   1.028321
   94       -0.003412   0.938976
   95        0.071009   0.416069
   96        0.232068  -0.018100
   97        0.282435  -0.003772
   98        0.353947  -0.000138
   99        0.574575  -0.000000
  100        0.609058  -0.000000
  101        0.739278  -0.000000
  102        0.793857  -0.000000
  103        0.840861  -0.000000
  104        0.899752  -0.000000
  105        1.177442  -0.000000
  106        1.189419  -0.000000
  107        1.320585  -0.000000
  108        1.409853  -0.000000
  109        1.432988  -0.000000
  110        1.454737  -0.000000
  111        1.465239  -0.000000
  112        1.527860  -0.000000
  113        1.542352  -0.000000
  114        1.561805  -0.000000
  115        1.596626  -0.000000
  116        1.649863  -0.000000
  117        1.666289  -0.000000
  118        1.685798  -0.000000
  119        1.733725  -0.000000
  120        1.832995  -0.000000
  121        1.857178  -0.000000
  122        1.890518  -0.000000
  123        1.950524  -0.000000
  124        2.053823  -0.000000
  125        2.089658  -0.000000
  126        2.122403  -0.000000
  127        2.178733  -0.000000
  128        2.306756  -0.000000

  0.3742002E-15  0.9090909E-01  0.3596334E-15  0.6734007E-02
    1      -13.951054   1.000000
    2      -12.644637   1.000000
    3      -12.477493   1.000000
    4      -11.982612   1.000000
    5      -11.695269   1.000000
    6      -11.339974   1.000000
    7      -11.302709   1.000000
    8      -11.174831   1.000000
    9      -11.137704   1.000000
   10      -10.731496   1.000000
   11      -10.682164   1.000000
   12      -10.355397   1.000000
   13      -10.184587   1.000000
   14      -10.120883   1.000000
   15       -9.876704   1.000000
   16       -9.822782   1.000000
   17       -9.228059   1.000000
   18       -9.077885   1.000000
   19       -8.967272   1.000000
   20       -8.784141   1.000000
   21       -8.709100   1.000000
   22       -8.563841   1.000000
   23       -8.350363   1.000000
   24       -8.062204   1.000000
   25       -7.921860   1.000000
   26       -7.878266   1.000000
   27       -7.451161   1.000000
   28       -7.378828   1.000000
   29       -6.908615   1.000000
   30       -6.825288   1.000000
   31       -6.584214   1.000000
   32       -6.532341   1.000000
   33       -6.384255   1.000000
   34       -6.067491   1.000000
   35       -6.008746   1.000000
   36       -5.752708   1.000000
   37       -5.668538   1.000000
   38       -5.587089   1.000000
   39       -5.430228   1.000000
   40       -5.368058   1.000000
   41       -5.351501   1.000000
   42       -5.263789   1.000000
   43       -5.196206   1.000000
   44       -5.116854   1.000000
   45       -5.074662   1.000000
   46       -5.036688   1.000000
   47       -4.889704   1.000000
   48       -4.801082   1.000000
   49       -4.722984   1.000000
   50       -4.616570   1.000000
   51       -4.573238   1.000000
   52       -4.531581   1.000000
   53       -4.461433   1.000000
   54       -4.436006   1.000000
   55       -4.405065   1.000000
   56       -4.340186   1.000000
   57       -4.198518   1.000000
   58       -4.106625   1.000000
   59       -4.051740   1.000000
   60       -3.948617   1.000000
   61       -3.911086   1.000000
   62       -3.818988   1.000000
   63       -3.593874   1.000000
   64       -3.535561   1.000000
   65       -3.483012   1.000000
   66       -3.462658   1.000000
   67       -3.392048   1.000000
   68       -3.368579   1.000000
   69       -3.259592   1.000000
   70       -3.247447   1.000000
   71       -3.205408   1.000000
   72       -3.127645   1.000000
   73       -2.866697   1.000000
   74       -2.718415   1.000000
   75       -2.563744   1.000000
   76       -2.479188   1.000000
   77       -2.308401   1.000000
   78       -2.288585   1.000000
   79       -2.225817   1.000000
   80       -2.201257   1.000000
   81       -1.944015   1.000000
   82       -1.763967   1.000000
   83       -1.529010   1.000000
   84       -1.363613   1.000000
   85       -1.238887   1.000000
   86       -1.123298   1.000000
   87       -1.068217   1.000000
   88       -1.023831   1.000000
   89       -0.925186   1.000000
   90       -0.536763   1.000000
   91       -0.333793   1.000000
   92       -0.207949   1.000476
   93       -0.117019   1.015190
   94       -0.061532   1.035458
   95        0.049482   0.597063
   96        0.144375   0.001897
   97        0.197856  -0.032869
   98        0.370061  -0.000056
   99        0.400272  -0.000009
  100        0.564599  -0.000000
  101        0.718954  -0.000000
  102        0.784832  -0.000000
  103        0.814866  -0.000000
  104        0.909532  -0.000000
  105        0.969091  -0.000000
  106        1.045084  -0.000000
  107        1.152238  -0.000000
  108        1.246070  -0.000000
  109        1.304969  -0.000000
  110        1.395235  -0.000000
  111        1.416120  -0.000000
  112        1.469035  -0.000000
  113        1.506057  -0.000000
  114        1.582599  -0.000000
  115        1.628865  -0.000000
  116        1.666963  -0.000000
  117        1.691175  -0.000000
  118        1.727827  -0.000000
  119        1.757696  -0.000000
  120        1.913519  -0.000000
  121        1.972098  -0.000000
  122        2.028267  -0.000000
  123        2.102880  -0.000000
  124        2.153350  -0.000000
  125        2.215694  -0.000000
  126        2.250322  -0.000000
  127        2.275002  -0.000000
  128        2.362711  -0.000000

  0.1111111E+00  0.9090909E-01  0.4822234E-15  0.6734007E-02
    1      -13.902081   1.000000
    2      -12.670262   1.000000
    3      -12.598367   1.000000
    4      -11.908894   1.000000
    5      -11.662972   1.000000
    6      -11.385479   1.000000
    7      -11.254570   1.000000
    8      -11.212516   1.000000
    9      -11.125150   1.000000
   10      -10.742397   1.000000
   11      -10.615880   1.000000
   12      -10.407313   1.000000
   13      -10.218141   1.000000
   14      -10.139937   1.000000
   15       -9.823384   1.000000
   16       -9.773534   1.000000
   17       -9.221680   1.000000
   18       -9.100319   1.000000
   19       -8.931801   1.000000
   20       -8.804079   1.000000
   21       -8.731053   1.000000
   22       -8.565214   1.000000
   23       -8.383056   1.000000
   24       -8.085146   1.000000
   25       -7.945738   1.000000
   26       -7.916858   1.000000
   27       -7.583991   1.000000
   28       -7.389762   1.000000
   29       -6.876315   1.000000
   30       -6.749756   1.000000
   31       -6.612839   1.000000
   32       -6.448726   1.000000
   33       -6.371466   1.000000
   34       -6.075109   1.000000
   35       -6.017182   1.000000
   36       -5.746882   1.000000
   37       -5.636078   1.000000
   38       -5.541663   1.000000
   39       -5.503946   1.000000
   40       -5.348667   1.000000
   41       -5.314000   1.000000
   42       -5.241369   1.000000
   43       -5.160407   1.000000
   44       -5.106931   1.000000
   45       -5.070144   1.000000
   46       -5.023063   1.000000
   47       -4.857979   1.000000
   48       -4.772910   1.000000
   49       -4.673898   1.000000
   50       -4.565824   1.000000
   51       -4.542359   1.000000
   52       -4.526254   1.000000
   53       -4.484628   1.000000
   54       -4.407195   1.000000
   55       -4.388712   1.000000
   56       -4.325305   1.000000
   57       -4.189996   1.000000
   58       -4.136104   1.000000
   59       -4.053933   1.000000
   60       -3.950042   1.000000
   61       -3.882943   1.000000
   62       -3.811675   1.000000
   63       -3.625518   1.000000
   64       -3.571270   1.000000
   65       -3.521550   1.000000
   66       -3.449567   1.000000
   67       -3.389043   1.000000
   68       -3.347585   1.000000
   69       -3.278286   1.000000
   70       -3.249835   1.000000
   71       -3.167218   1.000000
   72       -3.121228   1.000000
   73       -2.948016   1.000000
   74       -2.746401   1.000000
   75       -2.587335   1.000000
   76       -2.467779   1.000000
   77       -2.438502   1.000000
   78       -2.358910   1.000000
   79       -2.252851   1.000000
   80       -2.171216   1.000000
   81       -1.987245   1.000000
   82       -1.687072   1.000000
   83       -1.507021   1.000000
   84       -1.418453   1.000000
   85       -1.267042   1.000000
   86       -1.099898   1.000000
   87       -1.018040   1.000000
   88       -0.926761   1.000000
   89       -0.801098   1.000000
   90       -0.606282   1.000000
   91       -0.402963   1.000000
   92       -0.191801   1.001019
   93       -0.130794   1.010316
   94        0.029603   0.752000
   95        0.062401   0.488452
   96        0.163237  -0.027262
   97        0.191355  -0.034607
   98        0.299168  -0.001936
   99        0.337940  -0.000320
  100        0.631993  -0.000000
  101        0.759850  -0.000000
  102        0.799664  -0.000000
  103        0.815371  -0.000000
  104        0.934640  -0.000000
  105        0.952191  -0.000000
  106        1.040276  -0.000000
  107        1.243344  -0.000000
  108        1.251260  -0.000000
  109        1.288418  -0.000000
  110        1.353467  -0.000000
  111        1.436181  -0.000000
  112        1.517023  -0.000000
  113        1.529802  -0.000000
  114        1.574618  -0.000000
  115        1.624020  -0.000000
  116        1.648402  -0.000000
  117        1.705714  -0.000000
  118        1.734512  -0.000000
  119        1.777455  -0.000000
  120        1.930533  -0.000000
  121        1.932784  -0.000000
  122        1.988726  -0.000000