 running on   48 total cores
 distrk:  each k-point on   48 cores,    1 groups
 distr:  one band on    6 cores,    8 groups
 using from now: INCAR     
 vasp.5.4.4.18Apr17-6-g9f103f2a35 (build Dec  7 2020 12:43:57) complex           
 POSCAR found type information on POSCAR  Mo V  B  H 
 POSCAR found :  4 types and      51 ions
 scaLAPACK will be used
 LDA part: xc-table for Pade appr. of Perdew
 POSCAR, INCAR and KPOINTS ok, starting setup
 resort distribution
 resort distribution
 resort distribution
 resort distribution
 resort distribution
 resort distribution
 resort distribution
 resort distribution
 resort distribution
 resort distribution
 resort distribution
 resort distribution
 resort distribution
 resort distribution
 resort distribution
 resort distribution
 resort distribution
 resort distribution
 resort distribution
 resort distribution
 resort distribution
 resort distribution
 resort distribution
 resort distribution
 resort distribution
 resort distribution
 resort distribution
 resort distribution
 resort distribution
 resort distribution
 resort distribution
 resort distribution
 resort distribution
 resort distribution
 resort distribution
 resort distribution
 resort distribution
 resort distribution
 resort distribution
 resort distribution
 resort distribution
 resort distribution
 resort distribution
 resort distribution
 resort distribution
 resort distribution
 resort distribution
 resort distribution
 FFT: planning ...
 WAVECAR not read
 augmentation electrons   191.00950098673439     
 soft         electrons   0.0000000000000000     
 augmentation electrons   191.00950098673439     
 soft         electrons   0.0000000000000000     
 augmentation electrons   191.00950098673439     
 soft         electrons   0.0000000000000000     
 augmentation electrons   191.00950098673439     
 soft         electrons   0.0000000000000000     
 augmentation electrons   191.00950098673439     
 soft         electrons   0.0000000000000000     
 augmentation electrons   191.00950098673439     
 soft         electrons   0.0000000000000000     
 augmentation electrons   191.00950098673439     
 soft         electrons   0.0000000000000000     
 augmentation electrons   191.00950098673439     
 soft         electrons   0.0000000000000000     
 augmentation electrons   191.00950098673439     
 soft         electrons   0.0000000000000000     
 augmentation electrons   191.00950098673439     
 soft         electrons   0.0000000000000000     
 augmentation electrons   191.00950098673439     
 soft         electrons   0.0000000000000000     
 augmentation electrons   191.00950098673439     
 soft         electrons   0.0000000000000000     
 augmentation electrons   191.00950098673439     
 soft         electrons   0.0000000000000000     
 augmentation electrons   191.00950098673439     
 soft         electrons   0.0000000000000000     
 augmentation electrons   191.00950098673439     
 soft         electrons   0.0000000000000000     
 augmentation electrons   191.00950098673439     
 soft         electrons   0.0000000000000000     
 augmentation electrons   191.00950098673439     
 soft         electrons   0.0000000000000000     
 augmentation electrons   191.00950098673439     
 soft         electrons   0.0000000000000000     
 augmentation electrons   191.00950098673439     
 soft         electrons   0.0000000000000000     
 augmentation electrons   191.00950098673439     
 soft         electrons   0.0000000000000000     
 augmentation electrons   191.00950098673439     
 soft         electrons   0.0000000000000000     
 augmentation electrons   191.00950098673439     
 soft         electrons   0.0000000000000000     
 augmentation electrons   191.00950098673439     
 soft         electrons   0.0000000000000000     
 augmentation electrons   191.00950098673439     
 soft         electrons   0.0000000000000000     
 augmentation electrons   191.00950098673439     
 soft         electrons   0.0000000000000000     
 augmentation electrons   191.00950098673439     
 soft         electrons   0.0000000000000000     
 augmentation electrons   191.00950098673439     
 soft         electrons   0.0000000000000000     
 augmentation electrons   191.00950098673439     
 soft         electrons   0.0000000000000000     
 augmentation electrons   191.00950098673439     
 soft         electrons   0.0000000000000000     
 augmentation electrons   191.00950098673439     
 soft         electrons   0.0000000000000000     
 augmentation electrons   191.00950098673439     
 soft         electrons   0.0000000000000000     
 augmentation electrons   191.00950098673439     
 soft         electrons   0.0000000000000000     
 augmentation electrons   191.00950098673439     
 soft         electrons   0.0000000000000000     
 augmentation electrons   191.00950098673439     
 soft         electrons   0.0000000000000000     
 augmentation electrons   191.00950098673439     
 soft         electrons   0.0000000000000000     
 augmentation electrons   191.00950098673439     
 soft         electrons   0.0000000000000000     
 augmentation electrons   191.00950098673439     
 soft         electrons   0.0000000000000000     
 augmentation electrons   191.00950098673439     
 soft         electrons   0.0000000000000000     
 augmentation electrons   191.00950098673439     
 soft         electrons   0.0000000000000000     
 augmentation electrons   191.00950098673439     
 soft         electrons   0.0000000000000000     
 augmentation electrons   191.00950098673439     
 soft         electrons   0.0000000000000000     
 augmentation electrons   191.00950098673439     
 soft         electrons   0.0000000000000000     
 augmentation electrons   191.00950098673439     
 soft         electrons   0.0000000000000000     
 augmentation electrons   191.00950098673439     
 soft         electrons   0.0000000000000000     
 augmentation electrons   191.00950098673439     
 soft         electrons   0.0000000000000000     
 augmentation electrons   191.00950098673439     
 soft         electrons   0.0000000000000000     
 augmentation electrons   191.00950098673439     
 soft         electrons   0.0000000000000000     
 augmentation electrons   191.00950098673439     
 soft         electrons   0.0000000000000000     
 total        electrons   191.00950098673439     
 total        electrons   191.00950098673439     
 total        electrons   191.00950098673439     
 total        electrons   191.00950098673439     
 total        electrons   191.00950098673439     
 total        electrons   191.00950098673439     
 total        electrons   191.00950098673439     
 total        electrons   191.00950098673439     
 total        electrons   191.00950098673439     
 total        electrons   191.00950098673439     
 total        electrons   191.00950098673439     
 total        electrons   191.00950098673439     
 total        electrons   191.00950098673439     
 total        electrons   191.00950098673439     
 total        electrons   191.00950098673439     
 total        electrons   191.00950098673439     
 total        electrons   191.00950098673439     
 total        electrons   191.00950098673439     
 total        electrons   191.00950098673439     
 total        electrons   191.00950098673439     
 total        electrons   191.00950098673439     
 total        electrons   191.00950098673439     
 total        electrons   191.00950098673439     
 total        electrons   191.00950098673439     
 total        electrons   191.00950098673439     
 total        electrons   191.00950098673439     
 total        electrons   191.00950098673439     
 total        electrons   191.00950098673439     
 total        electrons   191.00950098673439     
 total        electrons   191.00950098673439     
 total        electrons   191.00950098673439     
 total        electrons   191.00950098673439     
 total        electrons   191.00950098673439     
 total        electrons   191.00950098673439     
 total        electrons   191.00950098673439     
 total        electrons   191.00950098673439     
 total        electrons   191.00950098673439     
 total        electrons   191.00950098673439     
 total        electrons   191.00950098673439     
 total        electrons   191.00950098673439     
 total        electrons   191.00950098673439     
 total        electrons   191.00950098673439     
 total        electrons   191.00950098673439     
 total        electrons   191.00950098673439     
 total        electrons   191.00950098673439     
 total        electrons   191.00950098673439     
 total        electrons   191.00950098673439     
 total        electrons   191.00950098673439     
 augmentation electrons   591.20326879775143     
 soft         electrons   0.0000000000000000     
 augmentation electrons   591.20326879775143     
 soft         electrons   0.0000000000000000     
 augmentation electrons   591.20326879775143     
 soft         electrons   0.0000000000000000     
 augmentation electrons   591.20326879775143     
 soft         electrons   0.0000000000000000     
 augmentation electrons   591.20326879775143     
 soft         electrons   0.0000000000000000     
 augmentation electrons   591.20326879775143     
 soft         electrons   0.0000000000000000     
 augmentation electrons   591.20326879775143     
 soft         electrons   0.0000000000000000     
 augmentation electrons   591.20326879775143     
 soft         electrons   0.0000000000000000     
 augmentation electrons   591.20326879775143     
 soft         electrons   0.0000000000000000     
 augmentation electrons   591.20326879775143     
 soft         electrons   0.0000000000000000     
 augmentation electrons   591.20326879775143     
 soft         electrons   0.0000000000000000     
 augmentation electrons   591.20326879775143     
 soft         electrons   0.0000000000000000     
 augmentation electrons   591.20326879775143     
 soft         electrons   0.0000000000000000     
 augmentation electrons   591.20326879775143     
 soft         electrons   0.0000000000000000     
 augmentation electrons   591.20326879775143     
 soft         electrons   0.0000000000000000     
 augmentation electrons   591.20326879775143     
 soft         electrons   0.0000000000000000     
 augmentation electrons   591.20326879775143     
 soft         electrons   0.0000000000000000     
 augmentation electrons   591.20326879775143     
 soft         electrons   0.0000000000000000     
 augmentation electrons   591.20326879775143     
 soft         electrons   0.0000000000000000     
 augmentation electrons   591.20326879775143     
 soft         electrons   0.0000000000000000     
 augmentation electrons   591.20326879775143     
 soft         electrons   0.0000000000000000     
 augmentation electrons   591.20326879775143     
 soft         electrons   0.0000000000000000     
 augmentation electrons   591.20326879775143     
 soft         electrons   0.0000000000000000     
 augmentation electrons   591.20326879775143     
 soft         electrons   0.0000000000000000     
 augmentation electrons   591.20326879775143     
 soft         electrons   0.0000000000000000     
 augmentation electrons   591.20326879775143     
 soft         electrons   0.0000000000000000     
 augmentation electrons   591.20326879775143     
 soft         electrons   0.0000000000000000     
 augmentation electrons   591.20326879775143     
 soft         electrons   0.0000000000000000     
 augmentation electrons   591.20326879775143     
 soft         electrons   0.0000000000000000     
 augmentation electrons   591.20326879775143     
 soft         electrons   0.0000000000000000     
 augmentation electrons   591.20326879775143     
 soft         electrons   0.0000000000000000     
 augmentation electrons   591.20326879775143     
 soft         electrons   0.0000000000000000     
 augmentation electrons   591.20326879775143     
 soft         electrons   0.0000000000000000     
 augmentation electrons   591.20326879775143     
 soft         electrons   0.0000000000000000     
 augmentation electrons   591.20326879775143     
 augmentation electrons   591.20326879775143     
 soft         electrons   0.0000000000000000     
 augmentation electrons   591.20326879775143     
 soft         electrons   0.0000000000000000     
 augmentation electrons   591.20326879775143     
 soft         electrons   0.0000000000000000     
 augmentation electrons   591.20326879775143     
 soft         electrons   0.0000000000000000     
 augmentation electrons   591.20326879775143     
 soft         electrons   0.0000000000000000     
 augmentation electrons   591.20326879775143     
 soft         electrons   0.0000000000000000     
 augmentation electrons   591.20326879775143     
 soft         electrons   0.0000000000000000     
 augmentation electrons   591.20326879775143     
 soft         electrons   0.0000000000000000     
 augmentation electrons   591.20326879775143     
 soft         electrons   0.0000000000000000     
 augmentation electrons   591.20326879775143     
 soft         electrons   0.0000000000000000     
 augmentation electrons   591.20326879775143     
 soft         electrons   0.0000000000000000     
 augmentation electrons   591.20326879775143     
 soft         electrons   0.0000000000000000     
 augmentation electrons   591.20326879775143     
 soft         electrons   0.0000000000000000     
 soft         electrons   0.0000000000000000     
 total        electrons   591.20326879775143     
 total        electrons   591.20326879775143     
 total        electrons   591.20326879775143     
 total        electrons   591.20326879775143     
 total        electrons   591.20326879775143     
 total        electrons   591.20326879775143     
 total        electrons   591.20326879775143     
 total        electrons   591.20326879775143     
 total        electrons   591.20326879775143     
 total        electrons   591.20326879775143     
 total        electrons   591.20326879775143     
 total        electrons   591.20326879775143     
 total        electrons   591.20326879775143     
 total        electrons   591.20326879775143     
 total        electrons   591.20326879775143     
 total        electrons   591.20326879775143     
 total        electrons   591.20326879775143     
 total        electrons   591.20326879775143     
 total        electrons   591.20326879775143     
 total        electrons   591.20326879775143     
 total        electrons   591.20326879775143     
 total        electrons   591.20326879775143     
 total        electrons   591.20326879775143     
 total        electrons   591.20326879775143     
 total        electrons   591.20326879775143     
 total        electrons   591.20326879775143     
 total        electrons   591.20326879775143     
 total        electrons   591.20326879775143     
 total        electrons   591.20326879775143     
 total        electrons   591.20326879775143     
 total        electrons   591.20326879775143     
 total        electrons   591.20326879775143     
 total        electrons   591.20326879775143     
 total        electrons   591.20326879775143     
 total        electrons   591.20326879775143     
 total        electrons   591.20326879775143     
 total        electrons   591.20326879775143     
 total        electrons   591.20326879775143     
 total        electrons   591.20326879775143     
 total        electrons   591.20326879775143     
 total        electrons   591.20326879775143     
 total        electrons   591.20326879775143     
 total        electrons   591.20326879775143     
 total        electrons   591.20326879775143     
 total        electrons   591.20326879775143     
 total        electrons   591.20326879775143     
 total        electrons   591.20326879775143     
 total        electrons   591.20326879775143     
 entering main loop
       N       E                     dE             d eps       ncg     rms          rms(c)
RMM:   1     0.194203649625E+04    0.19420E+04   -0.56974E+04 19072   0.105E+03
RMM:   2     0.421129002035E+03   -0.15209E+04   -0.17452E+04 19072   0.254E+02
RMM:   3    -0.473950442917E+02   -0.46852E+03   -0.59032E+03 19072   0.159E+02
RMM:   4    -0.234073950273E+03   -0.18668E+03   -0.19181E+03 19072   0.185E+02
RMM:   5    -0.341751195150E+03   -0.10768E+03   -0.84992E+02 19072   0.105E+02
RMM:   6    -0.393657194391E+03   -0.51906E+02   -0.40244E+02 19072   0.984E+01
RMM:   7    -0.422967410977E+03   -0.29310E+02   -0.25939E+02 19072   0.565E+01
RMM:   8    -0.439857902143E+03   -0.16890E+02   -0.14356E+02 19072   0.586E+01
RMM:   9    -0.468390370081E+03   -0.28532E+02   -0.27492E+02 52626   0.316E+01
RMM:  10    -0.472588758630E+03   -0.41984E+01   -0.41125E+01 52019   0.701E+00
RMM:  11    -0.473409934806E+03   -0.82118E+00   -0.61693E+00 52537   0.227E+00
RMM:  12    -0.473658048997E+03   -0.24811E+00   -0.18589E+00 52768   0.763E-01    0.118E+02
RMM:  13    -0.443493608626E+03    0.30164E+02   -0.71393E+02 47277   0.802E+01    0.687E+01
RMM:  14    -0.513345862440E+03   -0.69852E+02   -0.25119E+02 52905   0.298E+01    0.448E+01
RMM:  15    -0.423166988257E+03    0.90179E+02   -0.69078E+01 49392   0.211E+01    0.291E+01
RMM:  16    -0.413445409099E+03    0.97216E+01   -0.32860E+01 48357   0.165E+01    0.235E+01
RMM:  17    -0.403733421978E+03    0.97120E+01   -0.11482E+01 43751   0.114E+01    0.174E+01
RMM:  18    -0.403939550918E+03   -0.20613E+00   -0.24284E+00 47256   0.484E+00    0.157E+01
RMM:  19    -0.404146341514E+03   -0.20679E+00   -0.10716E+00 49329   0.210E+00    0.141E+01
RMM:  20    -0.403426002930E+03    0.72034E+00   -0.10635E+01 38156   0.134E+01    0.101E+01
RMM:  21    -0.403463107257E+03   -0.37104E-01   -0.47128E+00 51468   0.378E+00    0.919E+00
RMM:  22    -0.402713387565E+03    0.74972E+00   -0.53317E-01 39770   0.252E+00    0.449E+00
RMM:  23    -0.402636568753E+03    0.76819E-01   -0.53648E-01 50580   0.156E+00    0.364E+00
RMM:  24    -0.402521662326E+03    0.11491E+00   -0.16988E-01 42312   0.143E+00    0.173E+00
RMM:  25    -0.402520708285E+03    0.95404E-03   -0.22353E-01 50939   0.103E+00    0.124E+00
RMM:  26    -0.402528009452E+03   -0.73012E-02   -0.98311E-02 38175   0.125E+00    0.149E+00
RMM:  27    -0.402505872724E+03    0.22137E-01   -0.14270E-02 41882   0.474E-01    0.471E-01
RMM:  28    -0.402505250487E+03    0.62224E-03   -0.12509E-02 49265   0.225E-01    0.169E-01
RMM:  29    -0.402509328071E+03   -0.40776E-02   -0.89200E-03 39004   0.327E-01    0.473E-01
RMM:  30    -0.402508586198E+03    0.74187E-03   -0.29402E-03 46091   0.147E-01    0.232E-01
RMM:  31    -0.402509580373E+03   -0.99418E-03   -0.14508E-03 49180   0.527E-02    0.234E-01
RMM:  32    -0.402510044252E+03   -0.46388E-03   -0.42507E-04 42401   0.703E-02    0.145E-01
RMM:  33    -0.402510784629E+03   -0.74038E-03   -0.12615E-03 39445   0.121E-01    0.712E-02
RMM:  34    -0.402511084976E+03   -0.30035E-03   -0.43483E-04 48156   0.333E-02    0.357E-02
RMM:  35    -0.402511192885E+03   -0.10791E-03   -0.40194E-05 40410   0.188E-02    0.187E-02
RMM:  36    -0.402511377028E+03   -0.18414E-03   -0.41100E-05 48005   0.128E-02    0.138E-02
RMM:  37    -0.402511488340E+03   -0.11131E-03   -0.19740E-05 37891   0.118E-02    0.188E-02
RMM:  38    -0.402511508633E+03   -0.20293E-04   -0.73187E-06 28896   0.832E-03    0.532E-03
RMM:  39    -0.402511539301E+03   -0.30668E-04   -0.88355E-06 30161   0.484E-03    0.487E-03
RMM:  40    -0.402511594236E+03   -0.54936E-04   -0.44669E-06 28416   0.568E-03    0.112E-02
RMM:  41    -0.402511641443E+03   -0.47206E-04   -0.31236E-06 26801   0.613E-03    0.272E-03
RMM:  42    -0.402511674218E+03   -0.32776E-04   -0.26444E-06 26707   0.288E-03    0.170E-03
RMM:  43    -0.402511699119E+03   -0.24901E-04   -0.24405E-06 26563   0.450E-03    0.576E-03
RMM:  44    -0.402511709527E+03   -0.10407E-04   -0.14909E-06 25148   0.507E-03    0.230E-03
RMM:  45    -0.402511716002E+03   -0.64751E-05   -0.84411E-07 24137   0.250E-03    0.136E-03
RMM:  46    -0.402511717226E+03   -0.12246E-05   -0.33363E-07 19761   0.202E-03    0.106E-03
RMM:  47    -0.402511719262E+03   -0.20354E-05   -0.27739E-07 19770   0.156E-03    0.736E-04
RMM:  48    -0.402511720046E+03   -0.78440E-06   -0.15414E-07 14500   0.925E-04
   1 F= -.40251172E+03 E0= -.40251074E+03  d E =-.402512E+03
 curvature:   0.00 expect dE= 0.000E+00 dE for cont linesearch  0.000E+00
 trial: gam= 0.00000 g(F)=  0.132E+00 g(S)=  0.000E+00 ort = 0.000E+00 (trialstep = 0.100E+01)
 search vector abs. value=  0.132E+00
 bond charge predicted
       N       E                     dE             d eps       ncg     rms          rms(c)
RMM:   1    -0.402607651522E+03   -0.95932E-01   -0.17570E+00 38627   0.361E+00    0.838E-01
RMM:   2    -0.402642348723E+03   -0.34697E-01   -0.22244E-01 38146   0.282E+00    0.124E+00
RMM:   3    -0.402648286566E+03   -0.59378E-02   -0.39894E-02 39728   0.863E-01    0.121E+00
RMM:   4    -0.402632156014E+03    0.16131E-01   -0.91841E-03 42687   0.392E-01    0.473E-01
RMM:   5    -0.402631269000E+03    0.88701E-03   -0.34524E-03 46250   0.146E-01    0.402E-01
RMM:   6    -0.402631577444E+03   -0.30844E-03   -0.20911E-03 45753   0.132E-01    0.334E-01
RMM:   7    -0.402631040635E+03    0.53681E-03   -0.22687E-03 44176   0.163E-01    0.128E-01
RMM:   8    -0.402631040880E+03   -0.24586E-06   -0.88398E-04 44108   0.101E-01    0.112E-01
RMM:   9    -0.402630813185E+03    0.22770E-03   -0.24393E-04 43653   0.509E-02    0.267E-02
RMM:  10    -0.402630809257E+03    0.39281E-05   -0.10804E-04 49324   0.180E-02    0.211E-02
RMM:  11    -0.402630808545E+03    0.71163E-06   -0.28953E-05 40081   0.169E-02    0.206E-02
RMM:  12    -0.402630803243E+03    0.53029E-05   -0.18992E-05 42522   0.114E-02    0.621E-03
RMM:  13    -0.402630803742E+03   -0.49975E-06   -0.63620E-06 29859   0.575E-03
   2 F= -.40263080E+03 E0= -.40262980E+03  d E =-.119084E+00
 ZBRENT: can't locate minimum, use default step
 trial-energy change:   -0.119084  1 .order   -0.119010   -0.131654   -0.106365
 step:   4.0000(harm=  5.2060)  dis= 0.10086  next Energy=  -402.854413 (dE=-0.343E+00)
 bond charge predicted
       N       E                     dE             d eps       ncg     rms          rms(c)
RMM:   1    -0.402676857507E+03   -0.46054E-01   -0.15880E+01 38742   0.107E+01    0.265E+00
RMM:   2    -0.402899388279E+03   -0.22253E+00   -0.18981E+00 38146   0.806E+00    0.314E+00
RMM:   3    -0.403032820819E+03   -0.13343E+00   -0.35033E-01 41378   0.242E+00    0.389E+00
RMM:   4    -0.402844298557E+03    0.18852E+00   -0.94544E-02 41987   0.128E+00    0.142E+00
RMM:   5    -0.402836530577E+03    0.77680E-02   -0.32210E-02 46174   0.474E-01    0.120E+00
RMM:   6    -0.402838726356E+03   -0.21958E-02   -0.23731E-02 44689   0.457E-01    0.934E-01
RMM:   7    -0.402834951876E+03    0.37745E-02   -0.18590E-02 42674   0.485E-01    0.540E-01
RMM:   8    -0.402834849464E+03    0.10241E-03   -0.90136E-03 43840   0.327E-01    0.373E-01
RMM:   9    -0.402832353274E+03    0.24962E-02   -0.27277E-03 43931   0.172E-01    0.135E-01
RMM:  10    -0.402832297881E+03    0.55394E-04   -0.12743E-03 48160   0.813E-02    0.111E-01
RMM:  11    -0.402832242683E+03    0.55198E-04   -0.49635E-04 42824   0.724E-02    0.878E-02
RMM:  12    -0.402832148037E+03    0.94646E-04   -0.25364E-04 49846   0.362E-02    0.375E-02
RMM:  13    -0.402832140426E+03    0.76110E-05   -0.10154E-04 50898   0.190E-02    0.223E-02
RMM:  14    -0.402832136745E+03    0.36812E-05   -0.26612E-05 43573   0.110E-02    0.104E-02
RMM:  15    -0.402832138465E+03   -0.17202E-05   -0.49245E-06 29264   0.657E-03    0.651E-03
RMM:  16    -0.402832139659E+03   -0.11941E-05   -0.12857E-06 23546   0.399E-03    0.279E-03
RMM:  17    -0.402832141323E+03   -0.16645E-05   -0.92275E-07 23460   0.388E-03    0.171E-03
RMM:  18    -0.402832142480E+03   -0.11570E-05   -0.50352E-07 23439   0.283E-03    0.807E-04
RMM:  19    -0.402832143142E+03   -0.66185E-06   -0.29151E-07 23395   0.203E-03
   3 F= -.40283214E+03 E0= -.40283100E+03  d E =-.320423E+00
 curvature:  -2.39 expect dE=-0.488E-01 dE for cont linesearch -0.131E-01
 ZBRENT: extrapolating
 opt :   5.0118  next Energy=  -402.845714 (dE=-0.334E+00)
 bond charge predicted
       N       E                     dE             d eps       ncg     rms          rms(c)
RMM:   1    -0.402821071599E+03    0.11071E-01   -0.18436E+00 38564   0.366E+00    0.798E-01
RMM:   2    -0.402848897107E+03   -0.27826E-01   -0.21363E-01 38146   0.273E+00    0.889E-01
RMM:   3    -0.402860988378E+03   -0.12091E-01   -0.33610E-02 39919   0.778E-01    0.117E+00
RMM:   4    -0.402845860613E+03    0.15128E-01   -0.88338E-03 42247   0.402E-01    0.403E-01
RMM:   5    -0.402845977388E+03   -0.11678E-03   -0.38349E-03 48263   0.145E-01    0.406E-01
RMM:   6    -0.402846306925E+03   -0.32954E-03   -0.32475E-03 43306   0.185E-01    0.300E-01
RMM:   7    -0.402845336475E+03    0.97045E-03   -0.22020E-03 42292   0.178E-01    0.112E-01
RMM:   8    -0.402845358779E+03   -0.22304E-04   -0.71630E-04 44239   0.895E-02    0.105E-01
RMM:   9    -0.402845176713E+03    0.18207E-03   -0.21946E-04 42977   0.477E-02    0.254E-02
RMM:  10    -0.402845177837E+03   -0.11235E-05   -0.11723E-04 48778   0.183E-02    0.232E-02
RMM:  11    -0.402845174655E+03    0.31811E-05   -0.28003E-05 39569   0.159E-02    0.161E-02
RMM:  12    -0.402845170795E+03    0.38610E-05   -0.15900E-05 40794   0.928E-03    0.559E-03
RMM:  13    -0.402845171093E+03   -0.29851E-06   -0.40062E-06 27965   0.556E-03
   4 F= -.40284517E+03 E0= -.40284396E+03  d E =-.333451E+00
 curvature:  -2.48 expect dE=-0.619E-01 dE for cont linesearch -0.275E-04
 trial: gam= 0.19869 g(F)=  0.250E-01 g(S)=  0.000E+00 ort =-0.121E-02 (trialstep = 0.180E+01)
 search vector abs. value=  0.297E-01
 bond charge predicted
       N       E                     dE             d eps       ncg     rms          rms(c)
RMM:   1    -0.402866944219E+03   -0.21773E-01   -0.12896E+00 38439   0.309E+00    0.544E-01
RMM:   2    -0.402885233801E+03   -0.18290E-01   -0.14742E-01 38144   0.232E+00    0.592E-01
RMM:   3    -0.402891029381E+03   -0.57956E-02   -0.17961E-02 38963   0.605E-01    0.813E-01
RMM:   4    -0.402884420162E+03    0.66092E-02   -0.49909E-03 43843   0.293E-01    0.274E-01
RMM:   5    -0.402884741928E+03   -0.32177E-03   -0.25247E-03 49678   0.102E-01    0.295E-01
RMM:   6    -0.402884522951E+03    0.21898E-03   -0.14826E-03 42589   0.124E-01    0.161E-01
RMM:   7    -0.402884323255E+03    0.19970E-03   -0.11335E-03 42860   0.121E-01    0.978E-02
RMM:   8    -0.402884254053E+03    0.69202E-04   -0.32035E-04 41186   0.666E-02    0.699E-02
RMM:   9    -0.402884191918E+03    0.62135E-04   -0.12343E-04 42565   0.336E-02    0.225E-02
RMM:  10    -0.402884189660E+03    0.22581E-05   -0.60266E-05 44545   0.134E-02    0.165E-02
RMM:  11    -0.402884189662E+03   -0.17571E-08   -0.20248E-05 38550   0.140E-02    0.166E-02
RMM:  12    -0.402884186235E+03    0.34267E-05   -0.12359E-05 38922   0.948E-03    0.361E-03
RMM:  13    -0.402884186450E+03   -0.21440E-06   -0.27903E-06 27306   0.425E-03
   5 F= -.40288419E+03 E0= -.40288289E+03  d E =-.390154E-01
 ZBRENT: can't locate minimum, use default step
 trial-energy change:   -0.039015  1 .order   -0.039018   -0.044537   -0.033499
 step:   7.2094(harm=  7.2719)  dis= 0.11983  next Energy=  -402.935017 (dE=-0.898E-01)
 bond charge predicted
       N       E                     dE             d eps       ncg     rms          rms(c)
RMM:   1    -0.402816297335E+03    0.67889E-01   -0.11668E+01 38515   0.921E+00    0.159E+00
RMM:   2    -0.402949153687E+03   -0.13286E+00   -0.13070E+00 38145   0.686E+00    0.176E+00
RMM:   3    -0.402995466929E+03   -0.46313E-01   -0.16907E-01 38990   0.184E+00    0.234E+00
RMM:   4    -0.402942579836E+03    0.52887E-01   -0.44803E-02 44761   0.841E-01    0.858E-01
RMM:   5    -0.402943278363E+03   -0.69853E-03   -0.21911E-02 49466   0.301E-01    0.852E-01
RMM:   6    -0.402943039613E+03    0.23875E-03   -0.11927E-02 42329   0.355E-01    0.693E-01
RMM:   7    -0.402939352470E+03    0.36871E-02   -0.12469E-02 42349   0.402E-01    0.275E-01
RMM:   8    -0.402939896636E+03   -0.54417E-03   -0.45667E-03 43078   0.239E-01    0.298E-01
RMM:   9    -0.402938594550E+03    0.13021E-02   -0.14889E-03 40925   0.142E-01    0.839E-02
RMM:  10    -0.402938583486E+03    0.11064E-04   -0.76622E-04 49486   0.509E-02    0.727E-02
RMM:  11    -0.402938554785E+03    0.28701E-04   -0.22814E-04 44245   0.464E-02    0.596E-02
RMM:  12    -0.402938508046E+03    0.46739E-04   -0.21185E-04 51416   0.348E-02    0.164E-02
RMM:  13    -0.402938509213E+03   -0.11665E-05   -0.36467E-05 42285   0.942E-03    0.115E-02
RMM:  14    -0.402938510027E+03   -0.81377E-06   -0.68206E-06 32549   0.823E-03
   6 F= -.40293851E+03 E0= -.40293699E+03  d E =-.933389E-01
 curvature:  -4.36 expect dE=-0.418E-01 dE for cont linesearch -0.516E-03
 trial: gam= 0.34114 g(F)=  0.958E-02 g(S)=  0.000E+00 ort = 0.187E-02 (trialstep = 0.288E+01)
 search vector abs. value=  0.143E-01
 bond charge predicted
       N       E                     dE             d eps       ncg     rms          rms(c)
RMM:   1    -0.402939091139E+03   -0.58193E-03   -0.15434E+00 38549   0.337E+00    0.703E-01
RMM:   2    -0.402970781298E+03   -0.31690E-01   -0.23035E-01 38173   0.284E+00    0.106E+00
RMM:   3    -0.402973077409E+03   -0.22961E-02   -0.28301E-02 38582   0.798E-01    0.893E-01
RMM:   4    -0.402964800934E+03    0.82765E-02   -0.83048E-03 46152   0.318E-01    0.411E-01
RMM:   5    -0.402964187848E+03    0.61309E-03   -0.47366E-03 45424   0.179E-01    0.380E-01
RMM:   6    -0.402965333803E+03   -0.11460E-02   -0.37421E-03 41082   0.212E-01    0.431E-01
RMM:   7    -0.402963639068E+03    0.16947E-02   -0.26693E-03 41257   0.194E-01    0.183E-01
RMM:   8    -0.402963512896E+03    0.12617E-03   -0.13587E-03 42995   0.127E-01    0.137E-01
RMM:   9    -0.402963287158E+03    0.22574E-03   -0.47435E-04 45080   0.649E-02    0.524E-02
RMM:  10    -0.402963251873E+03    0.35285E-04   -0.15326E-04 49001   0.207E-02    0.233E-02
RMM:  11    -0.402963248967E+03    0.29063E-05   -0.43257E-05 47070   0.162E-02    0.227E-02
RMM:  12    -0.402963244635E+03    0.43319E-05   -0.21342E-05 38742   0.154E-02    0.132E-02
RMM:  13    -0.402963243427E+03    0.12079E-05   -0.11131E-05 35998   0.774E-03    0.455E-03
RMM:  14    -0.402963243471E+03   -0.44194E-07   -0.19428E-06 25987   0.466E-03
   7 F= -.40296324E+03 E0= -.40296161E+03  d E =-.247334E-01
 trial-energy change:   -0.024733  1 .order   -0.024695   -0.029469   -0.019921
 step:   8.9004(harm=  8.9004)  dis= 0.17034  next Energy=  -402.983987 (dE=-0.455E-01)
 bond charge predicted
       N       E                     dE             d eps       ncg     rms          rms(c)
RMM:   1    -0.402895254694E+03    0.67989E-01   -0.66985E+00 38724   0.699E+00    0.139E+00
RMM:   2    -0.403037937257E+03   -0.14268E+00   -0.10403E+00 38194   0.600E+00    0.260E+00
RMM:   3    -0.403014409717E+03    0.23528E-01   -0.12559E-01 38550   0.170E+00    0.153E+00
RMM:   4    -0.402991473911E+03    0.22936E-01   -0.41371E-02 48160   0.589E-01    0.895E-01
RMM:   5    -0.402988656907E+03    0.28170E-02   -0.16726E-02 45094   0.359E-01    0.837E-01
RMM:   6    -0.402990957914E+03   -0.23010E-02   -0.12756E-02 41475   0.391E-01    0.842E-01
RMM:   7    -0.402985071002E+03    0.58869E-02   -0.13556E-02 42170   0.420E-01    0.347E-01
RMM:   8    -0.402985269685E+03   -0.19868E-03   -0.77580E-03 44752   0.282E-01    0.313E-01
RMM:   9    -0.402984048791E+03    0.12209E-02   -0.21799E-03 43366   0.151E-01    0.133E-01
RMM:  10    -0.402983759779E+03    0.28901E-03   -0.69667E-04 48817   0.552E-02    0.704E-02
RMM:  11    -0.402983727793E+03    0.31985E-04   -0.42830E-04 46470   0.592E-02    0.819E-02
RMM:  12    -0.402983648770E+03    0.79024E-04   -0.24162E-04 45345   0.499E-02    0.284E-02
RMM:  13    -0.402983644027E+03    0.47430E-05   -0.88504E-05 48495   0.160E-02    0.114E-02
RMM:  14    -0.402983643999E+03    0.27840E-07   -0.17320E-05 39212   0.978E-03    0.876E-03
RMM:  15    -0.402983643738E+03    0.26031E-06   -0.37536E-06 27261   0.463E-03
   8 F= -.40298364E+03 E0= -.40298190E+03  d E =-.451337E-01
 curvature:  -6.23 expect dE=-0.169E-01 dE for cont linesearch -0.286E-04
 trial: gam= 0.29872 g(F)=  0.271E-02 g(S)=  0.000E+00 ort =-0.256E-03 (trialstep = 0.409E+01)
 search vector abs. value=  0.383E-02
 bond charge predicted
       N       E                     dE             d eps       ncg     rms          rms(c)
RMM:   1    -0.402975804770E+03    0.78392E-02   -0.84400E-01 39051   0.251E+00    0.616E-01
RMM:   2    -0.403004842581E+03   -0.29038E-01   -0.14968E-01 38152   0.228E+00    0.134E+00
RMM:   3    -0.402994096201E+03    0.10746E-01   -0.24730E-02 38438   0.747E-01    0.656E-01
RMM:   4    -0.402990112019E+03    0.39842E-02   -0.43891E-03 45608   0.239E-01    0.402E-01
RMM:   5    -0.402989435951E+03    0.67607E-03   -0.18164E-03 44556   0.109E-01    0.348E-01
RMM:   6    -0.402989420362E+03    0.15589E-04   -0.78594E-04 45930   0.745E-02    0.314E-01
RMM:   7    -0.402989083537E+03    0.33683E-03   -0.11602E-03 39913   0.129E-01    0.118E-01
RMM:   8    -0.402989211121E+03   -0.12758E-03   -0.95943E-04 45125   0.987E-02    0.113E-01
RMM:   9    -0.402989033406E+03    0.17771E-03   -0.25094E-04 42571   0.549E-02    0.365E-02
RMM:  10    -0.402989017153E+03    0.16253E-04   -0.84748E-05 46598   0.219E-02    0.255E-02
RMM:  11    -0.402989012815E+03    0.43384E-05   -0.23518E-05 37741   0.146E-02    0.207E-02
RMM:  12    -0.402989008198E+03    0.46167E-05   -0.28992E-05 43108   0.170E-02    0.945E-03
RMM:  13    -0.402989008212E+03   -0.14097E-07   -0.71477E-06 30690   0.508E-03
   9 F= -.40298901E+03 E0= -.40298726E+03  d E =-.536447E-02
 trial-energy change:   -0.005364  1 .order   -0.005227   -0.010756    0.000302
 step:   3.9830(harm=  3.9754)  dis= 0.03026  next Energy=  -402.989012 (dE=-0.537E-02)
 bond charge predicted
       N       E                     dE             d eps       ncg     rms          rms(c)
RMM:   1    -0.402989003726E+03    0.44724E-05   -0.55309E-04 39627   0.649E-02    0.176E-02
RMM:   2    -0.402989022976E+03   -0.19250E-04   -0.97486E-05 37693   0.573E-02    0.350E-02
RMM:   3    -0.402989017027E+03    0.59491E-05   -0.18158E-05 36035   0.198E-02    0.196E-02
RMM:   4    -0.402989013065E+03    0.39616E-05   -0.24787E-06 25986   0.716E-03    0.116E-02
RMM:   5    -0.402989012493E+03    0.57231E-06   -0.88075E-07 23883   0.462E-03
  10 F= -.40298901E+03 E0= -.40298726E+03  d E =-.536875E-02
 curvature:  -2.88 expect dE=-0.334E-02 dE for cont linesearch -0.149E-06
 trial: gam= 0.25619 g(F)=  0.116E-02 g(S)=  0.000E+00 ort = 0.141E-04 (trialstep = 0.407E+01)
 search vector abs. value=  0.142E-02
 bond charge predicted
       N       E                     dE             d eps       ncg     rms          rms(c)
RMM:   1    -0.402986489076E+03    0.25240E-02   -0.32251E-01 38541   0.154E+00    0.365E-01
RMM:   2    -0.402994511455E+03   -0.80224E-02   -0.47058E-02 38144   0.132E+00    0.640E-01
RMM:   3    -0.402993149992E+03    0.13615E-02   -0.81412E-03 38725   0.411E-01    0.423E-01
RMM:   4    -0.402991286899E+03    0.18631E-02   -0.13439E-03 42326   0.160E-01    0.174E-01
RMM:   5    -0.402991457567E+03   -0.17067E-03   -0.69221E-04 50482   0.503E-02    0.179E-01
RMM:   6    -0.402991372431E+03    0.85135E-04   -0.37458E-04 41992   0.664E-02    0.133E-01
RMM:   7    -0.402991268548E+03    0.10388E-03   -0.36870E-04 41710   0.701E-02    0.601E-02
RMM:   8    -0.402991256841E+03    0.11707E-04   -0.15821E-04 44827   0.421E-02    0.453E-02
RMM:   9    -0.402991231174E+03    0.25667E-04   -0.46292E-05 41569   0.228E-02    0.176E-02
RMM:  10    -0.402991227627E+03    0.35470E-05   -0.18331E-05 34303   0.903E-03    0.896E-03
RMM:  11    -0.402991227860E+03   -0.23252E-06   -0.53936E-06 28870   0.831E-03
  11 F= -.40299123E+03 E0= -.40298947E+03  d E =-.221537E-02
 trial-energy change:   -0.002215  1 .order   -0.002184   -0.004724    0.000355
 step:   3.7911(harm=  3.7817)  dis= 0.01838  next Energy=  -402.991240 (dE=-0.223E-02)
 bond charge predicted
       N       E                     dE             d eps       ncg     rms          rms(c)
RMM:   1    -0.402991216238E+03    0.11390E-04   -0.14521E-03 38519   0.104E-01    0.261E-02
RMM:   2    -0.402991246727E+03   -0.30490E-04   -0.20380E-04 38136   0.872E-02    0.356E-02
RMM:   3    -0.402991249904E+03   -0.31772E-05   -0.38055E-05 38389   0.275E-02    0.336E-02
RMM:   4    -0.402991237908E+03    0.11997E-04   -0.78169E-06 30243   0.130E-02    0.126E-02
RMM:   5    -0.402991237813E+03    0.94375E-07   -0.17660E-06 25160   0.523E-03
  12 F= -.40299124E+03 E0= -.40298948E+03  d E =-.222532E-02
 curvature:  -2.30 expect dE=-0.162E-02 dE for cont linesearch -0.245E-06
 trial: gam= 0.58808 g(F)=  0.705E-03 g(S)=  0.000E+00 ort = 0.123E-04 (trialstep = 0.401E+01)
 search vector abs. value=  0.121E-02
 bond charge predicted
       N       E                     dE             d eps       ncg     rms          rms(c)
RMM:   1    -0.402988686316E+03    0.25516E-02   -0.26013E-01 38507   0.141E+00    0.295E-01
RMM:   2    -0.402994825265E+03   -0.61389E-02   -0.40818E-02 38144   0.123E+00    0.500E-01
RMM:   3    -0.402994401600E+03    0.42366E-03   -0.56505E-03 38856   0.349E-01    0.374E-01
RMM:   4    -0.402993100212E+03    0.13014E-02   -0.12345E-03 44677   0.141E-01    0.169E-01
RMM:   5    -0.402992978001E+03    0.12221E-03   -0.52125E-04 47656   0.514E-02    0.138E-01
RMM:   6    -0.402992950038E+03    0.27963E-04   -0.34185E-04 45670   0.551E-02    0.784E-02
RMM:   7    -0.402992944887E+03    0.51509E-05   -0.32484E-04 43444   0.620E-02    0.675E-02
RMM:   8    -0.402992901597E+03    0.43290E-04   -0.11245E-04 41803   0.398E-02    0.347E-02
RMM:   9    -0.402992885761E+03    0.15836E-04   -0.31619E-05 41373   0.180E-02    0.147E-02
RMM:  10    -0.402992883125E+03    0.26366E-05   -0.12982E-05 33032   0.100E-02    0.817E-03
RMM:  11    -0.402992883855E+03   -0.73010E-06   -0.60415E-06 29041   0.752E-03
  13 F= -.40299288E+03 E0= -.40299115E+03  d E =-.164604E-02
 trial-energy change:   -0.001646  1 .order   -0.001633   -0.002859   -0.000407
 step:   4.6519(harm=  4.6764)  dis= 0.02340  next Energy=  -402.992916 (dE=-0.168E-02)
 bond charge predicted
       N       E                     dE             d eps       ncg     rms          rms(c)
RMM:   1    -0.402992810432E+03    0.72692E-04   -0.66742E-03 38453   0.225E-01    0.470E-02
RMM:   2    -0.402992975569E+03   -0.16514E-03   -0.10699E-03 38148   0.200E-01    0.837E-02
RMM:   3    -0.402992956240E+03    0.19329E-04   -0.14661E-04 38852   0.564E-02    0.580E-02
RMM:   4    -0.402992926511E+03    0.29729E-04   -0.31930E-05 40995   0.220E-02    0.277E-02
RMM:   5    -0.402992923864E+03    0.26461E-05   -0.14429E-05 31841   0.869E-03    0.235E-02
RMM:   6    -0.402992923202E+03    0.66221E-06   -0.86173E-06 35307   0.943E-03
  14 F= -.40299292E+03 E0= -.40299119E+03  d E =-.168539E-02
 curvature:  -3.96 expect dE=-0.475E-03 dE for cont linesearch -0.670E-06
 trial: gam= 0.12313 g(F)=  0.120E-03 g(S)=  0.000E+00 ort = 0.143E-04 (trialstep = 0.414E+01)
 search vector abs. value=  0.142E-03
 bond charge predicted
       N       E                     dE             d eps       ncg     rms          rms(c)
RMM:   1    -0.402992657705E+03    0.26616E-03   -0.32047E-02 38732   0.492E-01    0.105E-01
RMM:   2    -0.402993299423E+03   -0.64172E-03   -0.44884E-03 38163   0.400E-01    0.143E-01
RMM:   3    -0.402993394057E+03   -0.94634E-04   -0.62925E-04 38638   0.118E-01    0.140E-01
RMM:   4    -0.402993188467E+03    0.20559E-03   -0.14978E-04 43597   0.501E-02    0.630E-02
RMM:   5    -0.402993178226E+03    0.10241E-04   -0.82065E-05 44679   0.195E-02    0.562E-02
RMM:   6    -0.402993183764E+03   -0.55382E-05   -0.34433E-05 39535   0.184E-02    0.514E-02
RMM:   7    -0.402993172199E+03    0.11565E-04   -0.29916E-05 40747   0.194E-02    0.181E-02
RMM:   8    -0.402993175693E+03   -0.34936E-05   -0.23194E-05 37910   0.180E-02    0.233E-02
RMM:   9    -0.402993169406E+03    0.62870E-05   -0.59154E-06 28187   0.986E-03    0.535E-03
RMM:  10    -0.402993169168E+03    0.23780E-06   -0.18910E-06 25890   0.388E-03
  15 F= -.40299317E+03 E0= -.40299145E+03  d E =-.245966E-03
 trial-energy change:   -0.000246  1 .order   -0.000245   -0.000503    0.000012
 step:   4.0391(harm=  4.0391)  dis= 0.00594  next Energy=  -402.993169 (dE=-0.246E-03)
 reached required accuracy - stopping structural energy minimisation
 augmentation electrons   21.024523176751245     
 soft         electrons   170.02956274481599     
 augmentation electrons   21.024523176751245     
 soft         electrons   170.02956274481599     
 total        electrons   191.05408592156724     
 augmentation electrons   21.024523176751245     
 soft         electrons   170.02956274481599     
 total        electrons   191.05408592156724     
 augmentation electrons   21.024523176751245     
 soft         electrons   170.02956274481599     
 total        electrons   191.05408592156724     
 augmentation electrons   21.024523176751245     
 soft         electrons   170.02956274481599     
 total        electrons   191.05408592156724     
 augmentation electrons   21.024523176751245     
 soft         electrons   170.02956274481599     
 total        electrons   191.05408592156724     
 augmentation electrons   21.024523176751245     
 soft         electrons   170.02956274481599     
 total        electrons   191.05408592156724     
 augmentation electrons   21.024523176751245     
 soft         electrons   170.02956274481599     
 total        electrons   191.05408592156724     
 augmentation electrons   21.024523176751245     
 soft         electrons   170.02956274481599     
 total        electrons   191.05408592156724     
 augmentation electrons   21.024523176751245     
 soft         electrons   170.02956274481599     
 total        electrons   191.05408592156724     
 augmentation electrons   21.024523176751245     
 soft         electrons   170.02956274481599     
 total        electrons   191.05408592156724     
 augmentation electrons   21.024523176751245     
 soft         electrons   170.02956274481599     
 total        electrons   191.05408592156724     
 augmentation electrons   21.024523176751245     
 soft         electrons   170.02956274481599     
 total        electrons   191.05408592156724     
 augmentation electrons   21.024523176751245     
 soft         electrons   170.02956274481599     
 total        electrons   191.05408592156724     
 augmentation electrons   21.024523176751245     
 soft         electrons   170.02956274481599     
 total        electrons   191.05408592156724     
 augmentation electrons   21.024523176751245     
 soft         electrons   170.02956274481599     
 total        electrons   191.05408592156724     
 augmentation electrons   21.024523176751245     
 soft         electrons   170.02956274481599     
 total        electrons   191.05408592156724     
 augmentation electrons   21.024523176751245     
 soft         electrons   170.02956274481599     
 total        electrons   191.05408592156724     
 augmentation electrons   21.024523176751245     
 soft         electrons   170.02956274481599     
 total        electrons   191.05408592156724     
 augmentation electrons   21.024523176751245     
 soft         electrons   170.02956274481599     
 total        electrons   191.05408592156724     
 augmentation electrons   21.024523176751245     
 soft         electrons   170.02956274481599     
 total        electrons   191.05408592156724     
 augmentation electrons   21.024523176751245     
 soft         electrons   170.02956274481599     
 total        electrons   191.05408592156724     
 augmentation electrons   21.024523176751245     
 soft         electrons   170.02956274481599     
 total        electrons   191.05408592156724     
 augmentation electrons   21.024523176751245     
 soft         electrons   170.02956274481599     
 total        electrons   191.05408592156724     
 augmentation electrons   21.024523176751245     
 soft         electrons   170.02956274481599     
 total        electrons   191.05408592156724     
 augmentation electrons   21.024523176751245     
 soft         electrons   170.02956274481599     
 total        electrons   191.05408592156724     
 augmentation electrons   21.024523176751245     
 soft         electrons   170.02956274481599     
 total        electrons   191.05408592156724     
 augmentation electrons   21.024523176751245     
 soft         electrons   170.02956274481599     
 total        electrons   191.05408592156724     
 augmentation electrons   21.024523176751245     
 soft         electrons   170.02956274481599     
 total        electrons   191.05408592156724     
 augmentation electrons   21.024523176751245     
 soft         electrons   170.02956274481599     
 total        electrons   191.05408592156724     
 augmentation electrons   21.024523176751245     
 soft         electrons   170.02956274481599     
 total        electrons   191.05408592156724     
 augmentation electrons   21.024523176751245     
 soft         electrons   170.02956274481599     
 total        electrons   191.05408592156724     
 augmentation electrons   21.024523176751245     
 soft         electrons   170.02956274481599     
 total        electrons   191.05408592156724     
 augmentation electrons   21.024523176751245     
 soft         electrons   170.02956274481599     
 total        electrons   191.05408592156724     
 augmentation electrons   21.024523176751245     
 soft         electrons   170.02956274481599     
 total        electrons   191.05408592156724     
 augmentation electrons   21.024523176751245     
 soft         electrons   170.02956274481599     
 total        electrons   191.05408592156724     
 augmentation electrons   21.024523176751245     
 soft         electrons   170.02956274481599     
 total        electrons   191.05408592156724     
 augmentation electrons   21.024523176751245     
 soft         electrons   170.02956274481599     
 total        electrons   191.05408592156724     
 augmentation electrons   21.024523176751245     
 soft         electrons   170.02956274481599     
 total        electrons   191.05408592156724     
 augmentation electrons   21.024523176751245     
 soft         electrons   170.02956274481599     
 total        electrons   191.05408592156724     
 augmentation electrons   21.024523176751245     
 soft         electrons   170.02956274481599     
 total        electrons   191.05408592156724     
 augmentation electrons   21.024523176751245     
 soft         electrons   170.02956274481599     
 total        electrons   191.05408592156724     
 augmentation electrons   21.024523176751245     
 soft         electrons   170.02956274481599     
 total        electrons   191.05408592156724     
 augmentation electrons   21.024523176751245     
 soft         electrons   170.02956274481599     
 total        electrons   191.05408592156724     
 augmentation electrons   21.024523176751245     
 soft         electrons   170.02956274481599     
 total        electrons   191.05408592156724     
 augmentation electrons   21.024523176751245     
 soft         electrons   170.02956274481599     
 total        electrons   191.05408592156724     
 augmentation electrons   21.024523176751245     
 soft         electrons   170.02956274481599     
 total        electrons   191.05408592156724     
 augmentation electrons   21.024523176751245     
 soft         electrons   170.02956274481599     
 total        electrons   191.05408592156724     
 total        electrons   191.05408592156724     
Note: The following floating-point exceptions are signalling: IEEE_OVERFLOW_FLAG
Note: The following floating-point exceptions are signalling: IEEE_OVERFLOW_FLAG
Note: The following floating-point exceptions are signalling: IEEE_OVERFLOW_FLAG
Note: The following floating-point exceptions are signalling: IEEE_OVERFLOW_FLAG
Note: The following floating-point exceptions are signalling: IEEE_OVERFLOW_FLAG
Note: The following floating-point exceptions are signalling: IEEE_OVERFLOW_FLAG
Note: The following floating-point exceptions are signalling: IEEE_OVERFLOW_FLAG
Note: The following floating-point exceptions are signalling: IEEE_OVERFLOW_FLAG
Note: The following floating-point exceptions are signalling: IEEE_OVERFLOW_FLAG
Note: The following floating-point exceptions are signalling: IEEE_OVERFLOW_FLAG
Note: The following floating-point exceptions are signalling: IEEE_OVERFLOW_FLAG
Note: The following floating-point exceptions are signalling: IEEE_OVERFLOW_FLAG
Note: The following floating-point exceptions are signalling: IEEE_OVERFLOW_FLAG
Note: The following floating-point exceptions are signalling: IEEE_OVERFLOW_FLAG
Note: The following floating-point exceptions are signalling: IEEE_OVERFLOW_FLAG
Note: The following floating-point exceptions are signalling: IEEE_OVERFLOW_FLAG
Note: The following floating-point exceptions are signalling: IEEE_OVERFLOW_FLAG
Note: The following floating-point exceptions are signalling: IEEE_OVERFLOW_FLAG
Note: The following floating-point exceptions are signalling: IEEE_OVERFLOW_FLAG
Note: The following floating-point exceptions are signalling: IEEE_OVERFLOW_FLAG
Note: The following floating-point exceptions are signalling: IEEE_OVERFLOW_FLAG
Note: The following floating-point exceptions are signalling: IEEE_OVERFLOW_FLAG
Note: The following floating-point exceptions are signalling: IEEE_OVERFLOW_FLAG
Note: The following floating-point exceptions are signalling: IEEE_OVERFLOW_FLAG
Note: The following floating-point exceptions are signalling: IEEE_OVERFLOW_FLAG
Note: The following floating-point exceptions are signalling: IEEE_INVALID_FLAG IEEE_OVERFLOW_FLAG
Note: The following floating-point exceptions are signalling: IEEE_OVERFLOW_FLAG
Note: The following floating-point exceptions are signalling: IEEE_OVERFLOW_FLAG
Note: The following floating-point exceptions are signalling: IEEE_OVERFLOW_FLAG
Note: The following floating-point exceptions are signalling: IEEE_OVERFLOW_FLAG
Note: The following floating-point exceptions are signalling: IEEE_OVERFLOW_FLAG
Note: The following floating-point exceptions are signalling: IEEE_OVERFLOW_FLAG
Note: The following floating-point exceptions are signalling: IEEE_OVERFLOW_FLAG
Note: The following floating-point exceptions are signalling: IEEE_OVERFLOW_FLAG
Note: The following floating-point exceptions are signalling: IEEE_OVERFLOW_FLAG
Note: The following floating-point exceptions are signalling: IEEE_OVERFLOW_FLAG
Note: The following floating-point exceptions are signalling: IEEE_OVERFLOW_FLAG
Note: The following floating-point exceptions are signalling: IEEE_OVERFLOW_FLAG
Note: The following floating-point exceptions are signalling: IEEE_OVERFLOW_FLAG
Note: The following floating-point exceptions are signalling: IEEE_OVERFLOW_FLAG
Note: The following floating-point exceptions are signalling: IEEE_OVERFLOW_FLAG
Note: The following floating-point exceptions are signalling: IEEE_OVERFLOW_FLAG
Note: The following floating-point exceptions are signalling: IEEE_OVERFLOW_FLAG
Note: The following floating-point exceptions are signalling: IEEE_OVERFLOW_FLAG
Note: The following floating-point exceptions are signalling: IEEE_OVERFLOW_FLAG
Note: The following floating-point exceptions are signalling: IEEE_OVERFLOW_FLAG
Note: The following floating-point exceptions are signalling: IEEE_OVERFLOW_FLAG
Note: The following floating-point exceptions are signalling: IEEE_OVERFLOW_FLAG
