   73   73   85    1
  0.2139262E+02  0.1053953E-08  0.6141200E-09  0.2412750E-08  0.5000000E-15
   1.0000000000000000E-004
  CAR 
 Name                                    
    268     23    176

  0.3742002E-15  0.3742002E-15  0.1262379E-14  0.2222222E-01
    1      -13.811517   1.000000
    2      -12.762328   1.000000
    3      -12.561663   1.000000
    4      -12.383235   1.000000
    5      -11.794861   1.000000
    6      -11.658336   1.000000
    7      -11.554040   1.000000
    8      -11.269129   1.000000
    9      -11.239249   1.000000
   10      -11.117582   1.000000
   11      -11.029858   1.000000
   12      -10.846160   1.000000
   13      -10.640153   1.000000
   14      -10.338793   1.000000
   15      -10.282261   1.000000
   16      -10.143130   1.000000
   17      -10.071213   1.000000
   18       -9.973456   1.000000
   19       -9.749392   1.000000
   20       -9.666544   1.000000
   21       -9.444564   1.000000
   22       -9.380854   1.000000
   23       -9.350983   1.000000
   24       -9.145030   1.000000
   25       -8.854160   1.000000
   26       -8.832632   1.000000
   27       -8.598189   1.000000
   28       -8.309631   1.000000
   29       -8.278767   1.000000
   30       -8.082280   1.000000
   31       -7.924084   1.000000
   32       -7.897723   1.000000
   33       -7.523355   1.000000
   34       -7.375352   1.000000
   35       -7.337474   1.000000
   36       -7.227559   1.000000
   37       -7.097928   1.000000
   38       -6.883066   1.000000
   39       -6.810787   1.000000
   40       -6.740592   1.000000
   41       -6.679595   1.000000
   42       -6.622855   1.000000
   43       -6.560368   1.000000
   44       -6.396799   1.000000
   45       -6.175916   1.000000
   46       -6.095069   1.000000
   47       -6.085264   1.000000
   48       -6.017915   1.000000
   49       -6.008732   1.000000
   50       -5.809325   1.000000
   51       -5.745740   1.000000
   52       -5.725747   1.000000
   53       -5.672394   1.000000
   54       -5.498200   1.000000
   55       -5.461385   1.000000
   56       -5.451255   1.000000
   57       -5.339341   1.000000
   58       -5.252686   1.000000
   59       -5.206116   1.000000
   60       -5.160007   1.000000
   61       -5.076383   1.000000
   62       -5.027990   1.000000
   63       -4.851806   1.000000
   64       -4.760795   1.000000
   65       -4.672411   1.000000
   66       -4.659767   1.000000
   67       -4.533878   1.000000
   68       -4.524144   1.000000
   69       -4.509947   1.000000
   70       -4.366333   1.000000
   71       -4.346100   1.000000
   72       -4.318873   1.000000
   73       -4.229883   1.000000
   74       -4.159057   1.000000
   75       -4.062967   1.000000
   76       -4.054608   1.000000
   77       -3.950915   1.000000
   78       -3.884783   1.000000
   79       -3.878664   1.000000
   80       -3.845271   1.000000
   81       -3.753062   1.000000
   82       -3.695446   1.000000
   83       -3.611519   1.000000
   84       -3.586300   1.000000
   85       -3.567983   1.000000
   86       -3.465204   1.000000
   87       -3.431317   1.000000
   88       -3.335310   1.000000
   89       -3.303849   1.000000
   90       -3.252421   1.000000
   91       -3.140565   1.000000
   92       -3.089953   1.000000
   93       -3.039788   1.000000
   94       -2.960711   1.000000
   95       -2.856512   1.000000
   96       -2.797923   1.000000
   97       -2.725267   1.000000
   98       -2.595686   1.000000
   99       -2.499935   1.000000
  100       -2.487310   1.000000
  101       -2.440592   1.000000
  102       -2.403168   1.000000
  103       -2.285579   1.000000
  104       -2.259235   1.000000
  105       -2.242753   1.000000
  106       -2.189344   1.000000
  107       -2.162301   1.000000
  108       -2.118352   1.000000
  109       -2.068498   1.000000
  110       -2.015957   1.000000
  111       -1.885143   1.000000
  112       -1.851747   1.000000
  113       -1.761448   1.000000
  114       -1.686900   1.000000
  115       -1.573036   1.000000
  116       -1.468623   1.000000
  117       -1.435051   1.000000
  118       -1.244043   1.000000
  119       -1.149134   1.000000
  120       -1.115180   1.000000
  121       -1.076171   1.000000
  122       -0.948895   1.000000
  123       -0.722273   1.000000
  124       -0.596377   1.000000
  125       -0.516108   1.000004
  126       -0.448711   1.000037
  127       -0.392043   1.000183
  128       -0.261592   1.003630
  129       -0.149048   1.020262
  130       -0.107552   1.029651
  131       -0.070960   1.035150
  132        0.059272   0.928670
  133        0.079621   0.879813
  134        0.090325   0.849959
  135        0.240706   0.267530
  136        0.287413   0.118598
  137        0.316563   0.052283
  138        0.322755   0.040936
  139        0.411178  -0.034213
  140        0.580730  -0.008321
  141        0.633428  -0.003273
  142        0.648054  -0.002449
  143        0.701704  -0.000759
  144        0.778114  -0.000108
  145        0.839254  -0.000018
  146        0.914652  -0.000001
  147        1.013603  -0.000000
  148        1.062554  -0.000000
  149        1.115895  -0.000000
  150        1.151270  -0.000000
  151        1.184554  -0.000000
  152        1.252061  -0.000000
  153        1.255805  -0.000000
  154        1.292249  -0.000000
  155        1.304251  -0.000000
  156        1.322117  -0.000000
  157        1.423905  -0.000000
  158        1.464632  -0.000000
  159        1.491290  -0.000000
  160        1.529148  -0.000000
  161        1.542814  -0.000000
  162        1.568540  -0.000000
  163        1.581165  -0.000000
  164        1.600124  -0.000000
  165        1.633248  -0.000000
  166        1.644376  -0.000000
  167        1.716768  -0.000000
  168        1.756563  -0.000000
  169        1.807463  -0.000000
  170        1.853875  -0.000000
  171        1.856669  -0.000000
  172        1.957459  -0.000000
  173        2.022230  -0.000000
  174        2.030768  -0.000000
  175        2.151159  -0.000000
  176        2.258376  -0.000000

  0.2000000E+00  0.3742002E-15  0.1262379E-14  0.4444444E-01
    1      -13.784180   1.000000
    2      -12.883271   1.000000
    3      -12.665200   1.000000
    4      -12.077484   1.000000
    5      -11.930922   1.000000
    6      -11.793526   1.000000
    7      -11.299124   1.000000
    8      -11.246534   1.000000
    9      -11.177782   1.000000
   10      -11.064685   1.000000
   11      -10.991020   1.000000
   12      -10.850982   1.000000
   13      -10.617390   1.000000
   14      -10.510601   1.000000
   15      -10.365972   1.000000
   16      -10.159546   1.000000
   17      -10.154266   1.000000
   18      -10.059806   1.000000
   19       -9.799400   1.000000
   20       -9.707787   1.000000
   21       -9.496010   1.000000
   22       -9.405924   1.000000
   23       -9.286412   1.000000
   24       -9.093273   1.000000
   25       -8.889933   1.000000
   26       -8.784677   1.000000
   27       -8.343471   1.000000
   28       -8.252519   1.000000
   29       -8.169552   1.000000
   30       -8.012480   1.000000
   31       -7.983874   1.000000
   32       -7.853379   1.000000
   33       -7.476894   1.000000
   34       -7.421567   1.000000
   35       -7.364118   1.000000
   36       -7.276976   1.000000
   37       -7.136033   1.000000
   38       -6.933130   1.000000
   39       -6.889329   1.000000
   40       -6.758848   1.000000
   41       -6.726978   1.000000
   42       -6.704013   1.000000
   43       -6.572771   1.000000
   44       -6.471885   1.000000
   45       -6.347301   1.000000
   46       -6.159543   1.000000
   47       -6.017873   1.000000
   48       -5.908346   1.000000
   49       -5.886392   1.000000
   50       -5.838595   1.000000
   51       -5.729785   1.000000
   52       -5.697731   1.000000
   53       -5.668468   1.000000
   54       -5.645502   1.000000
   55       -5.426686   1.000000
   56       -5.411298   1.000000
   57       -5.273123   1.000000
   58       -5.253557   1.000000
   59       -5.135660   1.000000
   60       -5.050113   1.000000
   61       -5.022305   1.000000
   62       -4.974529   1.000000
   63       -4.903907   1.000000
   64       -4.763885   1.000000
   65       -4.710985   1.000000
   66       -4.635998   1.000000
   67       -4.552118   1.000000
   68       -4.520292   1.000000
   69       -4.459164   1.000000
   70       -4.373975   1.000000
   71       -4.341669   1.000000
   72       -4.287868   1.000000
   73       -4.187885   1.000000
   74       -4.125060   1.000000
   75       -4.066559   1.000000
   76       -4.044334   1.000000
   77       -3.980720   1.000000
   78       -3.903999   1.000000
   79       -3.900603   1.000000
   80       -3.845529   1.000000
   81       -3.775985   1.000000
   82       -3.751083   1.000000
   83       -3.692554   1.000000
   84       -3.632982   1.000000
   85       -3.587211   1.000000
   86       -3.465970   1.000000
   87       -3.407564   1.000000
   88       -3.391521   1.000000
   89       -3.259689   1.000000
   90       -3.252252   1.000000
   91       -3.170619   1.000000
   92       -3.078967   1.000000
   93       -3.054288   1.000000
   94       -2.926301   1.000000
   95       -2.842143   1.000000
   96       -2.787046   1.000000
   97       -2.729605   1.000000
   98       -2.612789   1.000000
   99       -2.594901   1.000000
  100       -2.524516   1.000000
  101       -2.410362   1.000000
  102       -2.393764   1.000000
  103       -2.354176   1.000000
  104       -2.272783   1.000000
  105       -2.250594   1.000000
  106       -2.169557   1.000000
  107       -2.139888   1.000000
  108       -2.049448   1.000000
  109       -1.971662   1.000000
  110       -1.948553   1.000000
  111       -1.865383   1.000000
  112       -1.815422   1.000000
  113       -1.691220   1.000000
  114       -1.642834   1.000000
  115       -1.547083   1.000000
  116       -1.475412   1.000000
  117       -1.411871   1.000000
  118       -1.218222   1.000000
  119       -1.167234   1.000000
  120       -1.098515   1.000000
  121       -1.093198   1.000000
  122       -1.025262   1.000000
  123       -0.797981   1.000000
  124       -0.632617   1.000000
  125       -0.614580   1.000000
  126       -0.475713   1.000016
  127       -0.452197   1.000034
  128       -0.375771   1.000281
  129       -0.212610   1.008547
  130       -0.187686   1.012425
  131       -0.047665   1.034620
  132        0.033479   0.975733
  133        0.117542   0.761984
  134        0.131902   0.709410
  135        0.190165   0.470620
  136        0.246939   0.244945
  137        0.347365   0.004836
  138        0.390364  -0.028449
  139        0.437602  -0.035136
  140        0.543110  -0.014452
  141        0.656094  -0.002077
  142        0.667380  -0.001637
  143        0.739664  -0.000300
  144        0.771402  -0.000129
  145        0.915143  -0.000001
  146        0.916426  -0.000001
  147        1.003806  -0.000000
  148        1.096737  -0.000000
  149        1.116335  -0.000000
  150        1.156931  -0.000000
  151        1.222164  -0.000000
  152        1.234533  -0.000000
  153        1.282239  -0.000000
  154        1.341625  -0.000000
  155        1.368652  -0.000000
  156        1.418000  -0.000000
  157        1.449833  -0.000000
  158        1.475953  -0.000000
  159        1.504161  -0.000000
  160        1.546303  -0.000000
  161        1.565531  -0.000000
  162        1.601554  -0.000000
  163        1.606355  -0.000000
  164        1.618037  -0.000000
  165        1.653634  -0.000000
  166        1.694319  -0.000000
  167        1.740220  -0.000000
  168        1.749473  -0.000000
  169        1.793543  -0.000000
  170        1.830243  -0.000000
  171        1.854341  -0.000000
  172        1.951427  -0.000000
  173        2.008827  -0.000000
  174        2.050266  -0.000000
  175        2.121892  -0.000000
  176        2.204774  -0.000000

  0.4000000E+00  0.3742002E-15  0.1262379E-14  0.4444444E-01
    1      -13.729104   1.000000
    2      -13.087769   1.000000
    3      -12.570609   1.000000
    4      -12.266734   1.000000
    5      -11.791327   1.000000
    6      -11.518852   1.000000
    7      -11.335823   1.000000
    8      -11.248230   1.000000
    9      -11.037538   1.000000
   10      -10.997577   1.000000
   11      -10.880070   1.000000
   12      -10.857230   1.000000
   13      -10.661409   1.000000
   14      -10.570817   1.000000
   15      -10.490390   1.000000
   16      -10.424697   1.000000
   17      -10.177085   1.000000
   18      -10.038135   1.000000
   19      -10.026266   1.000000
   20       -9.886726   1.000000
   21       -9.421845   1.000000
   22       -9.346437   1.000000
   23       -9.264724   1.000000
   24       -9.046118   1.000000
   25       -8.989917   1.000000
   26       -8.639505   1.000000
   27       -8.187715   1.000000
   28       -8.084572   1.000000
   29       -7.942572   1.000000
   30       -7.894637   1.000000
   31       -7.783575   1.000000
   32       -7.696237   1.000000
   33       -7.619124   1.000000
   34       -7.540372   1.000000
   35       -7.352493   1.000000
   36       -7.342694   1.000000
   37       -7.237506   1.000000
   38       -7.231978   1.000000
   39       -7.022922   1.000000
   40       -6.998682   1.000000
   41       -6.751099   1.000000
   42       -6.706965   1.000000
   43       -6.539815   1.000000
   44       -6.464862   1.000000
   45       -6.405151   1.000000
   46       -6.164566   1.000000
   47       -6.001454   1.000000
   48       -5.967612   1.000000
   49       -5.863346   1.000000
   50       -5.835993   1.000000
   51       -5.733942   1.000000
   52       -5.701140   1.000000
   53       -5.616800   1.000000
   54       -5.516652   1.000000
   55       -5.411514   1.000000
   56       -5.346049   1.000000
   57       -5.306261   1.000000
   58       -5.255005   1.000000
   59       -5.221521   1.000000
   60       -5.070135   1.000000
   61       -4.889526   1.000000
   62       -4.847872   1.000000
   63       -4.829247   1.000000
   64       -4.764493   1.000000
   65       -4.648086   1.000000
   66       -4.571896   1.000000
   67       -4.535399   1.000000
   68       -4.467901   1.000000
   69       -4.409350   1.000000
   70       -4.374024   1.000000
   71       -4.350415   1.000000
   72       -4.255019   1.000000
   73       -4.222671   1.000000
   74       -4.091802   1.000000
   75       -4.065816   1.000000
   76       -4.017196   1.000000
   77       -3.994108   1.000000
   78       -3.984405   1.000000
   79       -3.924867   1.000000
   80       -3.861791   1.000000
   81       -3.838992   1.000000
   82       -3.821097   1.000000
   83       -3.720513   1.000000
   84       -3.708343   1.000000
   85       -3.556980   1.000000
   86       -3.540345   1.000000
   87       -3.434763   1.000000
   88       -3.387146   1.000000
   89       -3.260307   1.000000
   90       -3.246308   1.000000
   91       -3.200183   1.000000
   92       -3.046854   1.000000
   93       -3.010837   1.000000
   94       -2.966310   1.000000
   95       -2.959330   1.000000
   96       -2.824408   1.000000
   97       -2.715913   1.000000
   98       -2.700469   1.000000
   99       -2.641991   1.000000
  100       -2.479264   1.000000
  101       -2.461898   1.000000
  102       -2.376863   1.000000
  103       -2.346870   1.000000
  104       -2.285271   1.000000
  105       -2.150626   1.000000
  106       -2.135375   1.000000
  107       -2.076024   1.000000
  108       -2.061504   1.000000
  109       -1.875713   1.000000
  110       -1.831895   1.000000
  111       -1.785850   1.000000
  112       -1.768499   1.000000
  113       -1.599242   1.000000
  114       -1.591131   1.000000
  115       -1.496223   1.000000
  116       -1.410964   1.000000
  117       -1.379867   1.000000
  118       -1.241775   1.000000
  119       -1.167444   1.000000
  120       -1.157422   1.000000
  121       -1.095510   1.000000
  122       -1.031339   1.000000
  123       -0.895332   1.000000
  124       -0.783240   1.000000
  125       -0.671278   1.000000
  126       -0.646958   1.000000
  127       -0.586573   1.000000
  128       -0.457911   1.000028
  129       -0.366370   1.000356
  130       -0.259751   1.003760
  131       -0.022060   1.027654
  132       -0.004081   1.017219
  133        0.089250   0.853084
  134        0.141672   0.671658
  135        0.188079   0.479437
  136        0.282593   0.131622
  137        0.338252   0.016581
  138        0.402579  -0.032476
  139        0.463057  -0.031801
  140        0.563242  -0.010891
  141        0.643416  -0.002689
  142        0.695765  -0.000871
  143        0.784399  -0.000090
  144        0.799623  -0.000059
  145        0.953976  -0.000000
  146        0.983564  -0.000000
  147        1.014898  -0.000000
  148        1.121951  -0.000000
  149        1.188121  -0.000000
  150        1.229401  -0.000000
  151        1.260094  -0.000000
  152        1.278799  -0.000000
  153        1.343518  -0.000000
  154        1.382954  -0.000000
  155        1.456975  -0.000000
  156        1.468618  -0.000000
  157        1.482786  -0.000000
  158        1.509275  -0.000000
  159        1.535492  -0.000000
  160        1.573384  -0.000000
  161        1.608721  -0.000000
  162        1.626684  -0.000000
  163        1.641498  -0.000000
  164        1.659366  -0.000000
  165        1.685479  -0.000000
  166        1.738798  -0.000000
  167        1.759597  -0.000000
  168        1.800150  -0.000000
  169        1.821394  -0.000000
  170        1.875791  -0.000000
  171        1.890979  -0.000000
  172        1.920173  -0.000000
  173        1.986573  -0.000000
  174        1.998294  -0.000000
  175        2.075985  -0.000000
  176        2.090727  -0.000000

  0.3742002E-15  0.1111111E+00  0.1262379E-14  0.4444444E-01
    1      -13.765710   1.000000
    2      -12.720892   1.000000
    3      -12.525589   1.000000
    4      -12.351525   1.000000
    5      -11.877027   1.000000
    6      -11.628100   1.000000
    7      -11.523255   1.000000
    8      -11.310256   1.000000
    9      -11.270901   1.000000
   10      -11.158671   1.000000
   11      -11.006209   1.000000
   12      -10.863608   1.000000
   13      -10.671710   1.000000
   14      -10.358039   1.000000
   15      -10.258722   1.000000
   16      -10.147203   1.000000
   17      -10.081905   1.000000
   18       -9.965131   1.000000
   19       -9.743082   1.000000
   20       -9.633797   1.000000
   21       -9.459851   1.000000
   22       -9.385510   1.000000
   23       -9.345693   1.000000
   24       -9.153099   1.000000
   25       -8.869460   1.000000
   26       -8.818609   1.000000
   27       -8.586079   1.000000
   28       -8.325109   1.000000
   29       -8.270253   1.000000
   30       -8.100066   1.000000
   31       -7.926240   1.000000
   32       -7.759078   1.000000
   33       -7.611147   1.000000
   34       -7.445636   1.000000
   35       -7.344529   1.000000
   36       -7.222577   1.000000
   37       -7.186824   1.000000
   38       -6.918070   1.000000
   39       -6.793158   1.000000
   40       -6.747405   1.000000
   41       -6.662382   1.000000
   42       -6.561048   1.000000
   43       -6.523400   1.000000
   44       -6.334003   1.000000
   45       -6.204345   1.000000
   46       -6.112003   1.000000
   47       -6.065365   1.000000
   48       -6.027892   1.000000
   49       -5.977884   1.000000
   50       -5.826511   1.000000
   51       -5.751781   1.000000
   52       -5.734783   1.000000
   53       -5.661233   1.000000
   54       -5.536994   1.000000
   55       -5.433917   1.000000
   56       -5.353912   1.000000
   57       -5.317709   1.000000
   58       -5.247320   1.000000
   59       -5.218282   1.000000
   60       -5.116973   1.000000
   61       -5.023945   1.000000
   62       -4.988713   1.000000
   63       -4.865695   1.000000
   64       -4.748251   1.000000
   65       -4.686527   1.000000
   66       -4.639651   1.000000
   67       -4.569694   1.000000
   68       -4.513064   1.000000
   69       -4.449509   1.000000
   70       -4.393180   1.000000
   71       -4.364390   1.000000
   72       -4.318055   1.000000
   73       -4.265606   1.000000
   74       -4.188722   1.000000
   75       -4.148860   1.000000
   76       -3.981907   1.000000
   77       -3.931526   1.000000
   78       -3.913270   1.000000
   79       -3.865505   1.000000
   80       -3.820405   1.000000
   81       -3.796853   1.000000
   82       -3.713902   1.000000
   83       -3.628105   1.000000
   84       -3.594354   1.000000
   85       -3.533094   1.000000
   86       -3.496378   1.000000
   87       -3.413083   1.000000
   88       -3.339545   1.000000
   89       -3.270566   1.000000
   90       -3.258714   1.000000
   91       -3.175595   1.000000
   92       -3.079552   1.000000
   93       -3.033762   1.000000
   94       -2.983136   1.000000
   95       -2.952914   1.000000
   96       -2.836820   1.000000
   97       -2.755109   1.000000
   98       -2.681167   1.000000
   99       -2.599320   1.000000
  100       -2.496918   1.000000
  101       -2.437008   1.000000
  102       -2.415840   1.000000
  103       -2.314864   1.000000
  104       -2.285876   1.000000
  105       -2.265675   1.000000
  106       -2.208596   1.000000
  107       -2.176939   1.000000
  108       -2.087621   1.000000
  109       -2.072638   1.000000
  110       -1.982716   1.000000
  111       -1.896191   1.000000
  112       -1.797287   1.000000
  113       -1.775348   1.000000
  114       -1.634030   1.000000
  115       -1.500313   1.000000
  116       -1.438469   1.000000
  117       -1.381820   1.000000
  118       -1.234362   1.000000
  119       -1.172446   1.000000
  120       -1.125889   1.000000
  121       -1.019903   1.000000
  122       -0.838538   1.000000
  123       -0.746448   1.000000
  124       -0.639178   1.000000
  125       -0.537735   1.000002
  126       -0.499705   1.000008
  127       -0.382741   1.000234
  128       -0.317619   1.001136
  129       -0.282858   1.002389
  130       -0.202772   1.009959
  131       -0.045018   1.034255
  132        0.014940   0.999891
  133        0.106587   0.799369
  134        0.161300   0.592127
  135        0.233683   0.293815
  136        0.286145   0.121970
  137        0.374996  -0.020318
  138        0.408160  -0.033698
  139        0.461140  -0.032145
  140        0.508662  -0.021812
  141        0.632162  -0.003354
  142        0.692090  -0.000948
  143        0.730315  -0.000379
  144        0.793632  -0.000070
  145        0.842969  -0.000016
  146        0.924890  -0.000001
  147        1.001185  -0.000000
  148        1.038566  -0.000000
  149        1.076228  -0.000000
  150        1.116623  -0.000000
  151        1.173850  -0.000000
  152        1.236393  -0.000000
  153        1.260253  -0.000000
  154        1.313669  -0.000000
  155        1.347187  -0.000000
  156        1.385922  -0.000000
  157        1.423245  -0.000000
  158        1.437642  -0.000000
  159        1.455274  -0.000000
  160        1.481978  -0.000000
  161        1.501654  -0.000000
  162        1.543185  -0.000000
  163        1.586209  -0.000000
  164        1.600846  -0.000000
  165        1.639469  -0.000000
  166        1.666886  -0.000000
  167        1.705390  -0.000000
  168        1.756118  -0.000000
  169        1.790701  -0.000000
  170        1.821010  -0.000000
  171        1.913999  -0.000000
  172        1.958003  -0.000000
  173        2.003006  -0.000000
  174        2.081205  -0.000000
  175        2.163932  -0.000000
  176        2.225387  -0.000000

  0.2000000E+00  0.1111111E+00  0.1262379E-14  0.4444444E-01
    1      -13.738647   1.000000
    2      -12.843424   1.000000
    3      -12.626569   1.000000
    4      -12.043924   1.000000
    5      -11.908531   1.000000
    6      -11.866257   1.000000
    7      -11.352087   1.000000
    8      -11.281901   1.000000
    9      -11.147573   1.000000
   10      -11.091989   1.000000
   11      -10.969660   1.000000
   12      -10.874279   1.000000
   13      -10.641668   1.000000
   14      -10.490324   1.000000
   15      -10.381329   1.000000
   16      -10.178217   1.000000
   17      -10.126987   1.000000
   18      -10.070872   1.000000
   19       -9.800664   1.000000
   20       -9.692378   1.000000
   21       -9.489580   1.000000
   22       -9.415233   1.000000
   23       -9.278129   1.000000
   24       -9.100385   1.000000
   25       -8.884129   1.000000
   26       -8.781402   1.000000
   27       -8.334935   1.000000
   28       -8.275554   1.000000
   29       -8.175905   1.000000
   30       -8.031879   1.000000
   31       -7.970592   1.000000
   32       -7.724010   1.000000
   33       -7.554622   1.000000
   34       -7.497397   1.000000
   35       -7.356524   1.000000
   36       -7.270729   1.000000
   37       -7.205993   1.000000
   38       -6.980534   1.000000
   39       -6.863491   1.000000
   40       -6.779933   1.000000
   41       -6.703159   1.000000
   42       -6.639693   1.000000
   43       -6.506650   1.000000
   44       -6.436632   1.000000
   45       -6.339851   1.000000
   46       -6.241810   1.000000
   47       -6.074435   1.000000
   48       -5.947144   1.000000
   49       -5.867494   1.000000
   50       -5.779335   1.000000
   51       -5.730031   1.000000
   52       -5.697616   1.000000
   53       -5.642664   1.000000
   54       -5.569471   1.000000
   55       -5.447873   1.000000
   56       -5.396369   1.000000
   57       -5.304804   1.000000
   58       -5.175498   1.000000
   59       -5.124788   1.000000
   60       -5.045954   1.000000
   61       -4.983221   1.000000
   62       -4.944973   1.000000
   63       -4.852632   1.000000
   64       -4.781425   1.000000
   65       -4.719552   1.000000
   66       -4.636745   1.000000
   67       -4.527336   1.000000
   68       -4.493888   1.000000
   69       -4.419421   1.000000
   70       -4.395118   1.000000
   71       -4.331561   1.000000
   72       -4.300025   1.000000
   73       -4.219037   1.000000
   74       -4.172863   1.000000
   75       -4.132210   1.000000
   76       -4.027530   1.000000
   77       -3.988343   1.000000
   78       -3.914501   1.000000
   79       -3.893235   1.000000
   80       -3.857863   1.000000
   81       -3.776778   1.000000
   82       -3.719930   1.000000
   83       -3.694127   1.000000
   84       -3.649980   1.000000
   85       -3.544912   1.000000
   86       -3.500402   1.000000
   87       -3.407414   1.000000
   88       -3.362640   1.000000
   89       -3.292851   1.000000
   90       -3.246141   1.000000
   91       -3.179442   1.000000
   92       -3.114253   1.000000
   93       -3.031320   1.000000
   94       -2.989224   1.000000
   95       -2.879225   1.000000
   96       -2.839993   1.000000
   97       -2.773691   1.000000
   98       -2.682560   1.000000
   99       -2.598912   1.000000
  100       -2.557378   1.000000
  101       -2.482334   1.000000
  102       -2.420666   1.000000
  103       -2.360440   1.000000
  104       -2.289433   1.000000
  105       -2.234679   1.000000
  106       -2.155862   1.000000
  107       -2.102136   1.000000
  108       -2.065133   1.000000
  109       -2.020504   1.000000
  110       -1.966996   1.000000
  111       -1.869710   1.000000
  112       -1.775909   1.000000
  113       -1.702584   1.000000
  114       -1.597971   1.000000
  115       -1.502265   1.000000
  116       -1.436814   1.000000
  117       -1.372370   1.000000
  118       -1.235259   1.000000
  119       -1.221485   1.000000
  120       -1.123413   1.000000
  121       -1.062349   1.000000
  122       -0.960843   1.000000
  123       -0.737566   1.000000
  124       -0.690772   1.000000
  125       -0.577586   1.000001
  126       -0.548777   1.000001
  127       -0.442675   1.000044
  128       -0.340627   1.000669
  129       -0.249659   1.004536
  130       -0.216404   1.008044
  131       -0.066577   1.035370
  132       -0.006699   1.019073
  133        0.078091   0.883852
  134        0.172573   0.544972
  135        0.197190   0.441038
  136        0.283146   0.130099
  137        0.354265  -0.002860
  138        0.393438  -0.029650
  139        0.510634  -0.021361
  140        0.567010  -0.010295
  141        0.617816  -0.004395
  142        0.705804  -0.000689
  143        0.732409  -0.000360
  144        0.822044  -0.000030
  145        0.913540  -0.000002
  146        0.946241  -0.000000
  147        1.012461  -0.000000
  148        1.060470  -0.000000
  149        1.085821  -0.000000
  150        1.153106  -0.000000
  151        1.222100  -0.000000
  152        1.248703  -0.000000
  153        1.290378  -0.000000
  154        1.331968  -0.000000
  155        1.361237  -0.000000
  156        1.394317  -0.000000
  157        1.446627  -0.000000
  158        1.464039  -0.000000
  159        1.478012  -0.000000
  160        1.497091  -0.000000
  161        1.517020  -0.000000
  162        1.553704  -0.000000
  163        1.572025  -0.000000
  164        1.599959  -0.000000
  165        1.651092  -0.000000
  166        1.689362  -0.000000
  167        1.727595  -0.000000
  168        1.765896  -0.000000
  169        1.829551  -0.000000
  170        1.851262  -0.000000
  171        1.910121  -0.000000
  172        1.938692  -0.000000
  173        1.997425  -0.000000
  174        2.041578  -0.000000
  175        2.116790  -0.000000
  176        2.171876  -0.000000

  0.4000000E+00  0.1111111E+00  0.1262379E-14  0.4444444E-01
    1      -13.684135   1.000000
    2      -13.046774   1.000000
    3      -12.532785   1.000000
    4      -12.228856   1.000000
    5      -11.867194   1.000000
    6      -11.507834   1.000000
    7      -11.389096   1.000000
    8      -11.281198   1.000000
    9      -11.020077   1.000000
   10      -11.002279   1.000000
   11      -10.896550   1.000000