   24   24    1    1
  0.8822742E+01  0.6053272E-09  0.6053272E-09  0.6672736E-09  0.5000000E-15
   1.0000000000000000E-004
  CAR 
 Name                                    
     96     96     64

  0.3742002E-15  0.3742002E-15  0.3742002E-15  0.7513148E-03
    1       -5.767096   1.000000
    2       -3.805367   1.000000
    3       -2.567843   1.000000
    4       -2.567842   1.000000
    5       -2.567819   1.000000
    6       -1.860825   1.000000
    7       -1.860793   1.000000
    8       -1.860791   1.000000
    9       -1.264629   1.000000
   10       -1.264628   1.000000
   11       -1.264604   1.000000
   12       -0.108551   1.000000
   13        0.303852   1.000000
   14        0.303890   1.000000
   15        0.303893   1.000000
   16        2.560649   1.000000
   17        2.560649   1.000000
   18        2.560653   1.000000
   19        2.725299   1.000000
   20        2.725313   1.000000
   21        2.725314   1.000000
   22        3.128485   1.000000
   23        3.128487   1.000000
   24        3.128499   1.000000
   25        4.014901   1.000000
   26        4.014903   1.000000
   27        4.014904   1.000000
   28        4.080447   1.000000
   29        4.472404   1.000000
   30        4.472422   1.000000
   31        4.658477   1.000000
   32        4.658479   1.000000
   33        4.658491   1.000000
   34        5.063856   1.000000
   35        5.063858   1.000000
   36        5.063867   1.000000
   37        5.265252   1.000000
   38        6.753368   1.000000
   39        6.753384   1.000000
   40        6.906628   1.000000
   41        6.906637   1.000000
   42        7.229813   1.000000
   43        7.229843   1.000000
   44        8.190517   1.000000
   45        8.191159   1.000000
   46        8.191165   1.000000
   47        8.191166   1.000000
   48        9.021767  -0.092252
   49        9.021779   0.001191
   50        9.621604   0.000000
   51        9.621606   0.000000
   52        9.621607   0.000000
   53       10.378730   0.000000
   54       10.378754   0.000000
   55       10.379144   0.000000
   56       10.600731   0.000000
   57       10.600989   0.000000
   58       10.601501   0.000000
   59       10.817678   0.000000
   60       10.825887   0.000000
   61       10.854587   0.000000
   62       11.095952   0.000000
   63       11.106503   0.000000
   64       11.122206   0.000000

  0.9090909E-01  0.3723538E-15  0.3742002E-15  0.4507889E-02
    1       -5.726394   1.000000
    2       -3.791381   1.000000
    3       -2.620688   1.000000
    4       -2.558949   1.000000
    5       -2.558927   1.000000
    6       -2.266341   1.000000
    7       -1.969862   1.000000
    8       -1.969840   1.000000
    9       -1.101171   1.000000
   10       -1.101157   1.000000
   11       -0.834883   1.000000
   12       -0.049465   1.000000
   13        0.292187   1.000000
   14        0.292223   1.000000
   15        0.412966   1.000000
   16        2.551119   1.000000
   17        2.551123   1.000000
   18        2.599495   1.000000
   19        2.710207   1.000000
   20        2.766709   1.000000
   21        2.766724   1.000000
   22        3.154395   1.000000
   23        3.162299   1.000000
   24        3.162311   1.000000
   25        3.706541   1.000000
   26        3.706544   1.000000
   27        4.051769   1.000000
   28        4.114154   1.000000
   29        4.369265   1.000000
   30        4.489556   1.000000
   31        4.667446   1.000000
   32        4.956957   1.000000
   33        4.956964   1.000000
   34        4.997274   1.000000
   35        5.012922   1.000000
   36        5.012932   1.000000
   37        5.178925   1.000000
   38        6.203617   1.000000
   39        6.236632   1.000000
   40        6.805598   1.000000
   41        6.960068   1.000000
   42        7.726408   1.000000
   43        7.781695   1.000000
   44        7.953724   1.000000
   45        7.953731   1.000000
   46        8.206390   1.000000
   47        8.214864   1.000000
   48        9.003017   0.112948
   49        9.146466  -0.001481
   50        9.588606   0.000000
   51        9.617691   0.000000
   52        9.617693   0.000000
   53       10.258066   0.000000
   54       10.258145   0.000000
   55       10.334322   0.000000
   56       10.483727   0.000000
   57       10.628929   0.000000
   58       10.631830   0.000000
   59       10.881827   0.000000
   60       10.930939   0.000000
   61       10.999876   0.000000
   62       11.026227   0.000000
   63       11.027773   0.000000
   64       11.059472   0.000000

  0.1818182E+00  0.3681090E-15  0.3742002E-15  0.4507889E-02
    1       -5.605098   1.000000
    2       -3.749307   1.000000
    3       -2.841864   1.000000
    4       -2.757723   1.000000
    5       -2.534688   1.000000
    6       -2.534668   1.000000
    7       -2.150614   1.000000
    8       -2.150601   1.000000
    9       -0.760052   1.000000
   10       -0.760046   1.000000
   11       -0.187446   1.000000
   12        0.125119   1.000000
   13        0.260273   1.000000
   14        0.260305   1.000000
   15        0.717633   1.000000
   16        2.526051   1.000000
   17        2.526055   1.000000
   18        2.640640   1.000000
   19        2.715859   1.000000
   20        2.887760   1.000000
   21        2.887773   1.000000
   22        3.196062   1.000000
   23        3.196067   1.000000
   24        3.232078   1.000000
   25        3.259287   1.000000
   26        3.259299   1.000000
   27        4.068146   1.000000
   28        4.155646   1.000000
   29        4.218124   1.000000
   30        4.537109   1.000000
   31        4.691338   1.000000
   32        4.850444   1.000000
   33        4.866985   1.000000
   34        4.866994   1.000000
   35        4.953902   1.000000
   36        5.437782   1.000000
   37        5.445012   1.000000
   38        5.445014   1.000000
   39        5.584323   1.000000
   40        6.531487   1.000000
   41        7.119021   1.000000
   42        7.445502   1.000000
   43        7.445510   1.000000
   44        8.251155   1.000000
   45        8.287277   1.000000
   46        8.340670   1.000000
   47        8.536159   1.015861
   48        8.948949   0.488810
   49        9.481016   0.000000
   50        9.492345   0.000000
   51        9.602032   0.000000
   52        9.602033   0.000000
   53        9.865629   0.000000
   54        9.865633   0.000000
   55       10.162139   0.000000
   56       10.215235   0.000000
   57       10.485441   0.000000
   58       10.511233   0.000000
   59       10.668137   0.000000
   60       10.706920   0.000000
   61       10.706937   0.000000
   62       10.936489   0.000000
   63       10.936834   0.000000
   64       10.951887   0.000000

  0.2727273E+00  0.3516749E-15  0.3742002E-15  0.4507889E-02
    1       -5.405556   1.000000
    2       -3.678890   1.000000
    3       -3.398362   1.000000
    4       -2.936760   1.000000
    5       -2.501931   1.000000
    6       -2.501915   1.000000
    7       -2.304634   1.000000
    8       -2.304626   1.000000
    9       -0.349730   1.000000
   10       -0.349729   1.000000
   11        0.216989   1.000000
   12        0.217015   1.000000
   13        0.406817   1.000000
   14        0.487184   1.000000
   15        1.172687   1.000000
   16        2.457333   1.000000
   17        2.494303   1.000000
   18        2.494306   1.000000
   19        2.656685   1.000000
   20        2.656691   1.000000
   21        2.909214   1.000000
   22        3.078322   1.000000
   23        3.078335   1.000000
   24        3.361160   1.000000
   25        3.403940   1.000000
   26        3.403950   1.000000
   27        3.629965   1.000000
   28        4.304878   1.000000
   29        4.352124   1.000000
   30        4.603476   1.000000
   31        4.645206   1.000000
   32        4.645216   1.000000
   33        4.646672   1.000000
   34        4.656268   1.000000
   35        4.721659   1.000000
   36        4.749367   1.000000
   37        4.975104   1.000000
   38        5.969717   1.000000
   39        5.969718   1.000000
   40        6.150401   1.000000
   41        6.906370   1.000000
   42        6.906378   1.000000
   43        7.378809   1.000000
   44        8.322730   1.000000
   45        8.404662   1.000000
   46        8.865244   1.000000
   47        8.903131   0.980400
   48        9.277654  -0.075899
   49        9.277659   0.000000
   50        9.303466   0.000000
   51        9.342425   0.000000
   52        9.572572   0.000000
   53        9.572573   0.000000
   54        9.705282   0.000000
   55        9.939748   0.000000
   56        9.973507   0.000000
   57        9.983039   0.000000
   58       10.060424   0.000000
   59       10.310783   0.000000
   60       10.823835   0.000000
   61       10.824968   0.000000
   62       10.899497   0.000000
   63       10.913229   0.000000
   64       11.131708   0.000000

  0.3636364E+00  0.3633660E-15  0.3742002E-15  0.4507889E-02
    1       -5.131468   1.000000
    2       -3.914244   1.000000
    3       -3.579941   1.000000
    4       -3.123918   1.000000
    5       -2.470799   1.000000
    6       -2.470789   1.000000
    7       -2.411263   1.000000
    8       -2.411259   1.000000
    9        0.082165   1.000000
   10        0.082166   1.000000
   11        0.175643   1.000000
   12        0.175660   1.000000
   13        0.780337   1.000000
   14        1.165194   1.000000
   15        1.738884   1.000000
   16        2.126192   1.000000
   17        2.136677   1.000000
   18        2.136683   1.000000
   19        2.466180   1.000000
   20        2.466182   1.000000
   21        3.087354   1.000000
   22        3.178603   1.000000
   23        3.317742   1.000000
   24        3.317753   1.000000
   25        3.540556   1.000000
   26        3.562239   1.000000
   27        3.562246   1.000000
   28        3.860962   1.000000
   29        4.339878   1.000000
   30        4.378277   1.000000
   31        4.378287   1.000000
   32        4.424349   1.000000
   33        4.459597   1.000000
   34        4.490140   1.000000
   35        4.671859   1.000000
   36        4.745592   1.000000
   37        4.797749   1.000000
   38        5.732017   1.000000
   39        6.459536   1.000000
   40        6.459542   1.000000
   41        6.514254   1.000000
   42        6.514257   1.000000
   43        7.731313   1.000000
   44        8.416560   1.000000
   45        8.561052   1.000000
   46        8.630731   1.000000
   47        8.630736   1.037355
   48        8.760311   0.913559
   49        9.155330   0.022091
   50        9.184802  -0.019648
   51        9.414777   0.000000
   52        9.535150   0.000000
   53        9.539091   0.000000
   54        9.539092   0.000000
   55        9.539886   0.000000
   56        9.921051   0.000000
   57       10.036487   0.000000
   58       10.050580   0.000000
   59       10.429491   0.000000
   60       10.821289   0.000000
   61       10.889542   0.000000
   62       10.911627   0.000000
   63       10.943415   0.000000
   64       10.955116   0.000000

  0.4545455E+00  0.3885652E-15  0.3742002E-15  0.4507889E-02
    1       -4.787653   1.000000
    2       -4.379783   1.000000
    3       -3.452827   1.000000
    4       -3.299299   1.000000
    5       -2.465295   1.000000
    6       -2.465293   1.000000
    7       -2.451763   1.000000
    8       -2.451759   1.000000
    9        0.150396   1.000000
   10        0.150402   1.000000
   11        0.436682   1.000000
   12        0.436684   1.000000
   13        1.220878   1.000000
   14        1.689331   1.000000
   15        1.737170   1.000000
   16        1.737173   1.000000
   17        1.833672   1.000000
   18        2.388800   1.000000
   19        2.449954   1.000000
   20        2.449955   1.000000
   21        2.480036   1.000000
   22        3.102170   1.000000
   23        3.522453   1.000000
   24        3.548830   1.000000
   25        3.548838   1.000000
   26        3.673784   1.000000
   27        3.673787   1.000000
   28        3.767751   1.000000
   29        3.938660   1.000000
   30        4.037533   1.000000
   31        4.131405   1.000000
   32        4.131411   1.000000
   33        4.565100   1.000000
   34        4.575720   1.000000
   35        4.724515   1.000000
   36        4.749431   1.000000
   37        5.006813   1.000000
   38        5.334394   1.000000
   39        6.198099   1.000000
   40        6.198101   1.000000
   41        7.017303   1.000000
   42        7.017306   1.000000
   43        8.060982   1.000000
   44        8.060986   1.000000
   45        8.163807   1.000000
   46        8.526266   1.000000
   47        8.643973   1.000000
   48        8.657541   1.000000
   49        8.747244   1.024624
   50        8.950659   0.549449
   51        9.282856   0.000000
   52        9.284565   0.000000
   53        9.517126   0.000000
   54        9.517126   0.000000
   55        9.847988   0.000000
   56        9.880289   0.000000
   57        9.890147   0.000000
   58       10.346714   0.000000
   59       10.749234   0.000000
   60       10.860030   0.000000
   61       10.888019   0.000000
   62       10.904547   0.000000
   63       11.018742   0.000000
   64       11.038979   0.000000

  0.9090909E-01  0.9090909E-01  0.3742002E-15  0.4507889E-02
    1       -5.645395   1.000000
    2       -3.763343   1.000000
    3       -2.661049   1.000000
    4       -2.661047   1.000000
    5       -2.525373   1.000000
    6       -2.525372   1.000000
    7       -2.476431   1.000000
    8       -1.723680   1.000000
    9       -1.208727   1.000000
   10       -0.498632   1.000000
   11       -0.498631   1.000000
   12        0.067410   1.000000
   13        0.147013   1.000000
   14        0.505947   1.000000
   15        0.505950   1.000000
   16        2.490327   1.000000
   17        2.627066   1.000000
   18        2.627067   1.000000
   19        2.731510   1.000000
   20        2.731511   1.000000
   21        2.900007   1.000000
   22        3.160408   1.000000
   23        3.211507   1.000000
   24        3.211509   1.000000
   25        3.238942   1.000000
   26        3.772851   1.000000
   27        3.772852   1.000000
   28        4.174300   1.000000
   29        4.176288   1.000000
   30        4.521476   1.000000
   31        4.891934   1.000000
   32        4.891935   1.000000
   33        4.937063   1.000000
   34        4.980172   1.000000
   35        4.980173   1.000000
   36        5.024250   1.000000
   37        5.433754   1.000000
   38        5.662285   1.000000
   39        5.739557   1.000000
   40        6.618247   1.000000
   41        7.066329   1.000000
   42        7.411300   1.000000
   43        7.996642   1.000000
   44        7.996642   1.000000
   45        8.192806   1.000000
   46        8.263467   1.000000
   47        8.320169   1.000000
   48        8.961708   0.472445
   49        9.380303   0.000000
   50        9.548724   0.000000
   51        9.548724   0.000000
   52        9.640120   0.000000
   53       10.022423   0.000000
   54       10.082124   0.000000
   55       10.082126   0.000000
   56       10.404070   0.000000
   57       10.404101   0.000000
   58       10.668719   0.000000
   59       10.750817   0.000000
   60       10.821577   0.000000
   61       10.823651   0.000000
   62       10.828350   0.000000
   63       10.935864   0.000000
   64       11.172715   0.000000

  0.1818182E+00  0.9090909E-01  0.3742002E-15  0.9015778E-02
    1       -5.484958   1.000000
    2       -3.707042   1.000000
    3       -3.096588   1.000000
    4       -2.827133   1.000000
    5       -2.730933   1.000000
    6       -2.683217   1.000000
    7       -2.379515   1.000000
    8       -1.727219   1.000000
    9       -0.962676   1.000000
   10       -0.115683   1.000000
   11       -0.011408   1.000000
   12        0.165241   1.000000
   13        0.295870   1.000000
   14        0.572623   1.000000
   15        0.893167   1.000000
   16        2.429010   1.000000
   17        2.576641   1.000000
   18        2.613678   1.000000
   19        2.632992   1.000000
   20        2.778595   1.000000
   21        2.823595   1.000000
   22        3.102278   1.000000
   23        3.299945   1.000000
   24        3.309957   1.000000
   25        3.320822   1.000000
   26        3.379298   1.000000
   27        3.815172   1.000000
   28        3.894703   1.000000
   29        4.278027   1.000000
   30        4.585269   1.000000
   31        4.713123   1.000000
   32        4.749504   1.000000
   33        4.767442   1.000000
   34        4.778648   1.000000
   35        4.946645   1.000000
   36        5.016996   1.000000
   37        5.161801   1.000000
   38        5.470670   1.000000
   39        5.953900   1.000000
   40        6.291771   1.000000
   41        6.809356   1.000000
   42        7.275672   1.000000
   43        7.544823   1.000000
   44        8.078602   1.000000
   45        8.359527   1.000000
   46        8.729997   1.000000
   47        8.879084   0.921477
   48        9.016728   0.027687
   49        9.415386   0.000000
   50        9.490549   0.000000
   51        9.517450   0.000000
   52        9.618277   0.000000
   53        9.650581   0.000000
   54        9.771783   0.000000
   55        9.788221   0.000000
   56       10.013147   0.000000
   57       10.191297   0.000000
   58       10.396060   0.000000
   59       10.402357   0.000000
   60       10.532446   0.000000
   61       10.766386   0.000000
   62       10.866055   0.000000
   63       11.052128   0.000000
   64       11.428724   0.000000

  0.2727273E+00  0.9090909E-01  0.3742002E-15  0.9015778E-02
    1       -5.248081   1.000000
    2       -3.634281   1.000000
    3       -3.622154   1.000000
    4       -3.016013   1.000000
    5       -2.878831   1.000000
    6       -2.692660   1.000000
    7       -2.282036   1.000000
    8       -1.822693   1.000000
    9       -0.533750   1.000000
   10       -0.161805   1.000000
   11        0.290673   1.000000
   12        0.616390   1.000000
   13        0.624617   1.000000
   14        0.838858   1.000000
   15        1.408170   1.000000
   16        1.990525   1.000000
   17        2.354206   1.000000
   18        2.378199   1.000000
   19        2.624388   1.000000
   20        2.815030   1.000000
   21        2.967297   1.000000
   22        3.004749   1.000000
   23        3.334366   1.000000
   24        3.359919   1.000000
   25        3.456775   1.000000
   26        3.457293   1.000000
   27        3.564288   1.000000
   28        4.049827   1.000000
   29        4.185161   1.000000
   30        4.365829   1.000000
   31        4.468138   1.000000
   32        4.493288   1.000000
   33        4.553090   1.000000
   34        4.611220   1.000000
   35        4.692264   1.000000
   36        4.716378   1.000000
   37        5.046849   1.000000
   38        5.893897   1.000000
   39        5.974620   1.000000
   40        6.261676   1.000000
   41        6.509886   1.000000
   42        7.090923   1.000000
   43        7.581268   1.000000
   44        8.192546   1.000000
   45        8.499339   1.000000
   46        8.763892   1.000000
   47        8.876625   0.928667
   48        9.061929   0.203062
   49        9.219925  -0.071961
   50        9.238489   0.000000
   51        9.423850   0.000000
   52        9.430106   0.000000
   53        9.540416   0.000000
   54        9.647092   0.000000
   55        9.703493   0.000000
   56        9.747180   0.000000
   57       10.119898   0.000000
   58       10.253025   0.000000
   59       10.282795   0.000000
   60       10.437701   0.000000
   61       10.640839   0.000000
   62       10.933233   0.000000
   63       11.051022   0.000000
   64       11.297005   0.000000

  0.3636364E+00  0.9090909E-01  0.3742002E-15  0.9015778E-02
    1       -4.938991   1.000000
    2       -4.125745   1.000000
    3       -3.508619   1.000000
    4       -3.200801   1.000000
    5       -2.967779   1.000000
    6       -2.695248   1.000000
    7       -2.206250   1.000000
    8       -1.892276   1.000000
    9       -0.273726   1.000000
   10       -0.080014   1.000000
   11        0.640911   1.000000
   12        0.665838   1.000000
   13        1.034546   1.000000
   14        1.451376   1.000000
   15        1.506360   1.000000
   16        1.958329   1.000000
   17        2.017253   1.000000
   18        2.345201   1.000000
   19        2.389567   1.000000
   20        2.612489   1.000000
   21        2.771240   1.000000
   22        3.119547   1.000000
   23        3.304098   1.000000
   24        3.426145   1.000000
   25        3.576109   1.000000
   26        3.652265   1.000000
   27        3.653472   1.000000
   28        3.745488   1.000000
   29        4.111940   1.000000
   30        4.168004   1.000000
   31        4.205845   1.000000
   32        4.279689   1.000000
   33        4.288948   1.000000
   34        4.385179   1.000000
   35        4.837265   1.000000
   36        4.849846   1.000000
   37        5.039341   1.000000
   38        5.487029   1.000000
   39        5.853111   1.000000
   40        6.442271   1.000000
   41        6.761885   1.000000
   42        7.097468   1.000000
   43        7.971511   1.000000
   44        8.299485   1.000000
   45        8.329096   1.000000
   46        8.435293   1.000000
   47        8.626286   1.000072
   48        8.676471   1.037989
   49        8.896210   0.799695
   50        9.135689  -0.061607
   51        9.187147   0.000000
   52        9.325846   0.000000
   53        9.371611   0.000000
   54        9.637339   0.000000
   55        9.712360   0.000000
   56        9.956166   0.000000
   57       10.039679   0.000000
   58       10.458173   0.000000
   59       10.486974   0.000000
   60       10.572643   0.000000
   61       10.604093   0.000000
   62       10.772499   0.000000
   63       10.973102   0.000000
   64       11.439103   0.000000

  0.4545455E+00  0.9090909E-01  0.3742002E-15  0.4507889E-02
    1       -4.562890   1.000000
    2       -4.562889   1.000000
    3       -3.367246   1.000000
    4       -3.367244   1.000000
    5       -2.997446   1.000000
    6       -2.695538   1.000000
    7       -2.177056   1.000000
    8       -1.916517   1.000000
    9       -0.315765   1.000000
   10        0.182819   1.000000
   11        0.648727   1.000000
   12        0.848433   1.000000
   13        1.160589   1.000000
   14        1.495144   1.000000
   15        1.495145   1.000000
   16        2.155234   1.000000
   17        2.155238   1.000000
   18        2.189701   1.000000
   19        2.333825   1.000000
   20        2.607234   1.000000
   21        2.696554   1.000000
   22        2.696562   1.000000
   23        3.193085   1.000000
   24        3.625116   1.000000
   25        3.674339   1.000000
   26        3.674343   1.000000
   27        3.828358   1.000000
   28        3.891539   1.000000
   29        3.891542   1.000000
   30        3.915267   1.000000
   31        4.024843   1.000000
   32        4.196885   1.000000
   33        4.326974   1.000000
   34        4.326981   1.000000
   35        4.968119   1.000000
   36        4.968120   1.000000
   37        5.123036   1.000000
   38        5.123038   1.000000
   39        5.693073   1.000000
   40        6.640543   1.000000
   41        6.684962   1.000000
   42        7.577102   1.000000
   43        7.936441   1.000000
   44        8.016212   1.000000
   45        8.426547   1.000000
   46        8.426548   1.000000
   47        8.477492   1.000000
   48        8.477497   1.000000
   49        8.884287   1.000000
   50        8.884289   0.830290
   51        9.141465   0.000000
   52        9.141475   0.000000
   53        9.352059   0.000000
   54        9.632427   0.000000
   55        9.931560   0.000000
   56        9.931571   0.000000
   57       10.162787   0.000000
   58       10.162796   0.000000
   59       10.508104   0.000000
   60       10.551432   0.000000
   61       10.992244   0.000000
   62       11.112407   0.000000
   63       11.144027   0.000000
   64       11.156184   0.000000

  0.1818182E+00  0.1818182E+00  0.3742002E-15  0.4507889E-02
    1       -5.287139   1.000000
    2       -3.636122   1.000000
    3       -3.288058   1.000000
    4       -3.288058   1.000000
    5       -2.873434   1.000000
    6       -2.873433   1.000000
    7       -2.202894   1.000000
    8       -1.327478   1.000000
    9       -1.040131   1.000000
   10       -0.291190   1.000000
   11        0.544419   1.000000
   12        0.544420   1.000000
   13        0.572205   1.000000
   14        1.031521   1.000000
   15        1.031524   1.000000
   16        1.942930   1.000000
   17        2.348873   1.000000
   18        2.638508   1.000000
   19        2.638509   1.000000
   20        2.810402   1.000000
   21        2.810403   1.000000
   22        3.360726   1.000000
   23        3.424629   1.000000
   24        3.424631   1.000000
   25        3.437201   1.000000
   26        3.462225   1.000000
   27        3.462226   1.000000
   28        3.567159   1.000000
   29        4.296988   1.000000
   30        4.318387   1.000000
   31        4.516314   1.000000
   32        4.610882   1.000000
   33        4.610883   1.000000
   34        4.634033   1.000000
   35        4.660505   1.000000
   36        4.703051   1.000000
   37        5.485154   1.000000
   38        5.485155   1.000000
   39        5.950322   1.000000
   40        6.192481   1.000000
   41        6.501057   1.000000
   42        7.530559   1.000000
   43        7.700037   1.000000
   44        7.700038   1.000000
   45        8.480391   1.000000
   46        8.743972   1.000000
   47        9.154559   0.036262
   48        9.154560  -0.051710
   49        9.190847  -0.049099
   50        9.301661   0.000000
   51        9.311406   0.000000
   52        9.311406   0.000000
   53        9.624066   0.000000
   54        9.684482   0.000000
   55        9.782331   0.000000
   56        9.965413   0.000000
   57        9.965413   0.000000
   58       10.136529   0.000000
   59       10.250910   0.000000
   60       10.464326   0.000000
   61       10.679264   0.000000
   62       10.679428   0.000000
   63       11.306117   0.000000
   64       11.386229   0.000000

  0.2727273E+00  0.1818182E+00  0.3742002E-15  0.9015778E-02
    1       -5.015103   1.000000
    2       -3.803257   1.000000
    3       -3.536105   1.000000
    4       -3.415753   1.000000
    5       -3.068959   1.000000
    6       -2.901079   1.000000
    7       -2.026042   1.000000
    8       -1.293791   1.000000
    9       -0.665975   1.000000
   10       -0.545808   1.000000
   11        0.915743   1.000000
   12        0.940452   1.000000
   13        1.129472   1.000000
   14        1.196718   1.000000
   15        1.321858   1.000000
   16        1.593872   1.000000
   17        2.292927   1.000000
   18        2.296086   1.000000
   19        2.690314   1.000000
   20        2.818362   1.000000
   21        2.963892   1.000000
   22        3.046361   1.000000
   23        3.056874   1.000000
   24        3.542903   1.000000
   25        3.571534   1.000000
   26        3.622705   1.000000
   27        3.643178   1.000000
   28        3.665095   1.000000
   29        3.801619   1.000000
   30        4.179918   1.000000
   31        4.227242   1.000000
   32        4.246630   1.000000
   33        4.440571   1.000000
   34        4.472554   1.000000
   35        4.665702   1.000000
   36        4.901473   1.000000
   37        5.448580   1.000000
   38        5.566267   1.000000
   39        5.657341   1.000000
   40        5.916275   1.000000
   41        7.084823   1.000000
   42        7.345647   1.000000
   43        7.872097   1.000000
   44        7.897066   1.000000
   45        8.560413   1.000000
   46        8.591391   1.000000
   47        8.647529   1.038399
   48        8.860670   0.868560
   49        8.905784   0.698178
   50        9.059636  -0.012286
   51        9.214112  -0.026457
   52        9.355449   0.000000
   53        9.508630   0.000000
   54        9.640204   0.000000
   55        9.700320   0.000000
   56        9.975322   0.000000
   57       10.007154   0.000000
   58       10.210316   0.000000
   59       10.284051   0.000000
   60       10.427048   0.000000
   61       10.786340   0.000000
   62       10.788540   0.000000
   63       10.893070   0.000000
   64       11.177417   0.000000

  0.3636364E+00  0.1818182E+00  0.3742002E-15  0.9015778E-02
    1       -4.673389   1.000000
    2       -4.267387   1.000000
    3       -3.479592   1.000000
    4       -3.406972   1.000000
    5       -3.249954   1.000000
    6       -2.913832   1.000000
    7       -1.900071   1.000000
    8       -1.334170   1.000000
    9       -0.713626   1.000000
   10       -0.203007   1.000000
   11        0.790990   1.000000
   12        1.180996   1.000000
   13        1.187669   1.000000
   14        1.378220   1.000000
   15        1.826559   1.000000
   16        1.849373   1.000000
   17        2.229609   1.000000
   18        2.264441   1.000000
   19        2.420565   1.000000
   20        2.732423   1.000000
   21        2.750916   1.000000
   22        2.816575   1.000000
   23        2.914551   1.000000
   24        3.370045   1.000000
   25        3.620433   1.000000
   26        3.746369   1.000000
   27        3.760919   1.000000
   28        3.882069   1.000000
   29        3.924581   1.000000
   30        3.988968   1.000000
   31        4.006669   1.000000
   32        4.080283   1.000000
   33        4.208767   1.000000
   34        4.383472   1.000000
   35        4.876151   1.000000
   36        5.129734   1.000000
   37        5.192570   1.000000
   38        5.298259   1.000000
   39        5.327840   1.000000
   40        6.214969   1.000000
   41        7.137605   1.000000
   42        7.694619   1.000000
   43        8.118606   1.000000
   44        8.216690   1.000000