    3    3   60    1
  0.8144830E+01  0.3039000E-09  0.3039000E-09  0.3055000E-09  0.5000000E-15
   1.0000000000000000E-004
  CAR 
 Name                                    
     12    216     10

  0.3742002E-15  0.3742002E-15  0.3742002E-15  0.2962963E-03
    1       -5.894651   1.000000
    2        2.643697   1.000000
    3        4.222608   1.000000
    4        4.842685   1.000000
    5        4.842688   1.000000
    6        9.471017  -0.000000
    7        9.471018  -0.000000
    8       10.248308  -0.000000
    9       10.248311  -0.000000
   10       14.091723   0.000000

  0.6666667E-01  0.3766815E-15  0.3742002E-15  0.1777778E-02
    1       -5.807427   1.000000
    2        2.740161   1.000000
    3        4.139845   1.000000
    4        4.616067   1.000000
    5        4.877762   1.000000
    6        9.426087  -0.000000
    7        9.623980  -0.000000
    8        9.933075  -0.000000
    9       10.028076  -0.000000
   10       14.069334   0.000000

  0.1333333E+00  0.3754153E-15  0.3742002E-15  0.1777778E-02
    1       -5.549041   1.000000
    2        2.997627   1.000000
    3        3.930316   1.000000
    4        4.010125   1.000000
    5        4.957816   1.000000
    6        9.254669  -0.000000
    7        9.302009  -0.000000
    8        9.625677  -0.000000
    9       10.012761  -0.000000
   10       14.014903   0.000000

  0.2000000E+00  0.3870416E-15  0.3742002E-15  0.1777778E-02
    1       -5.128717   1.000000
    2        3.077356   1.000000
    3        3.405748   1.000000
    4        3.671374   1.000000
    5        5.017574   1.000000
    6        8.640664  -0.000000
    7        9.126458  -0.000000
    8        9.369862  -0.000000
    9       10.448633  -0.000000
   10       13.953628   0.000000

  0.2666667E+00  0.4120044E-15  0.3742002E-15  0.1777778E-02
    1       -4.559681   1.000000
    2        2.126712   1.000000
    3        3.426464   1.000000
    4        3.602132   1.000000
    5        4.997814   1.000000
    6        8.420123  -0.000004
    7        8.934604  -0.000000
    8        9.395244  -0.000000
    9       10.673110  -0.000000
   10       13.894803   0.000000

  0.3333333E+00  0.4025434E-15  0.3742002E-15  0.1777778E-02
    1       -3.857836   1.000000
    2        1.068786   1.000000
    3        3.231043   1.000000
    4        3.631079   1.000000
    5        4.903258   1.000000
    6        8.735887  -0.000000
    7        8.759641  -0.000000
    8        9.663784  -0.000000
    9       10.568894  -0.000000
   10       13.844874   0.000000

  0.4000000E+00  0.3732510E-15  0.3742002E-15  0.1777778E-02
    1       -3.042463   1.000000
    2       -0.004838   1.000000
    3        3.099476   1.000000
    4        3.528519   1.000000
    5        4.792495   1.000000
    6        8.628197  -0.000000
    7        9.405250  -0.000000
    8       10.017461  -0.000000
    9       10.322266  -0.000000
   10       13.811010   0.000000

  0.4666667E+00  0.3915456E-15  0.3742002E-15  0.1777778E-02
    1       -2.158374   1.000000
    2       -1.024391   1.000000
    3        3.034316   1.000000
    4        3.437853   1.000000
    5        4.722435   1.000000
    6        8.558104  -0.000000
    7        9.986063  -0.000000
    8       10.149795  -0.000000
    9       10.263055  -0.000000
   10       13.797556   0.000000

  0.6666667E-01  0.6666667E-01  0.3742002E-15  0.1777778E-02
    1       -5.634603   1.000000
    2        2.918066   1.000000
    3        3.995327   1.000000
    4        4.214357   1.000000
    5        4.918309   1.000000
    6        9.314467  -0.000000
    7        9.478277  -0.000000
    8        9.693453  -0.000000
    9        9.922803  -0.000000
   10       14.107529   0.000000

  0.1333333E+00  0.6666667E-01  0.3742002E-15  0.3555556E-02
    1       -5.295146   1.000000
    2        3.193630   1.000000
    3        3.534860   1.000000
    4        3.769641   1.000000
    5        4.948714   1.000000
    6        8.841637  -0.000000
    7        9.090162  -0.000000
    8        9.410222  -0.000000
    9       10.421496  -0.000000
   10       14.119652   0.000000

  0.2000000E+00  0.6666667E-01  0.3742002E-15  0.3555556E-02
    1       -4.800181   1.000000
    2        2.615171   1.000000
    3        3.471924   1.000000
    4        3.534360   1.000000
    5        4.972104   1.000000
    6        8.350022  -0.000268
    7        8.794422  -0.000000
    8        9.418982  -0.000000
    9       10.899553   0.000000
   10       14.078943   0.000000

  0.2666667E+00  0.6666667E-01  0.3742002E-15  0.3555556E-02
    1       -4.164016   1.000000
    2        1.619154   1.000000
    3        3.336134   1.000000
    4        3.490010   1.000000
    5        5.019736   1.000000
    6        8.275274  -0.006642
    7        8.473323  -0.000000
    8        9.703137  -0.000000
    9       11.114829   0.000000
   10       14.030637   0.000000

  0.3333333E+00  0.6666667E-01  0.3742002E-15  0.3555556E-02
    1       -3.403526   1.000000
    2        0.565594   1.000000
    3        3.195138   1.000000
    4        3.340286   1.000000
    5        5.019169   1.000000
    6        8.180810  -0.033161
    7        8.696129  -0.000000
    8       10.077216  -0.000000
    9       11.053959   0.000000
   10       14.020741   0.000000

  0.4000000E+00  0.6666667E-01  0.3742002E-15  0.3555556E-02
    1       -2.542591   1.000000
    2       -0.486131   1.000000
    3        3.114021   1.000000
    4        3.187631   1.000000
    5        4.968332   1.000000
    6        7.974161   1.019814
    7        9.393059  -0.000000
    8       10.256841  -0.000000
    9       10.924830   0.000000
   10       14.099317   0.000000

  0.4666667E+00  0.6666667E-01  0.3742002E-15  0.1777778E-02
    1       -1.791178   1.000000
    2       -1.303699   1.000000
    3        3.088000   1.000000
    4        3.127839   1.000000
    5        4.941043   1.000000
    6        7.899340   1.018405
    7       10.009573  -0.000000
    8       10.014606  -0.000000
    9       10.869057   0.000000
   10       14.183664   0.000000

  0.1333333E+00  0.1333333E+00  0.3742002E-15  0.1777778E-02
    1       -4.880834   1.000000
    2        2.879656   1.000000
    3        3.355789   1.000000
    4        3.582998   1.000000
    5        4.911643   1.000000
    6        8.325097  -0.000905
    7        8.663324  -0.000000
    8        9.450603  -0.000000
    9       11.078817   0.000000
   10       14.284987   0.000000

  0.2000000E+00  0.1333333E+00  0.3742002E-15  0.3555556E-02
    1       -4.317946   1.000000
    2        2.089967   1.000000
    3        3.212983   1.000000
    4        3.427003   1.000000
    5        5.100297   1.000000
    6        7.915717   1.025861
    7        8.133949   0.061698
    8        9.807019  -0.000000
    9       11.734383   0.000000
   10       14.624920   0.000000

  0.2666667E+00  0.1333333E+00  0.3742002E-15  0.3555556E-02
    1       -3.621193   1.000000
    2        1.161946   1.000000
    3        2.894461   1.000000
    4        3.328040   1.000000
    5        5.379805   1.000000
    6        7.606403   1.000000
    7        7.899673   1.018550
    8       10.216219  -0.000000
    9       12.102135   0.000000
   10       14.856772   0.000000

  0.3333333E+00  0.1333333E+00  0.3742002E-15  0.3555556E-02
    1       -2.808690   1.000000
    2        0.152732   1.000000
    3        2.619879   1.000000
    4        3.284087   1.000000
    5        5.475759   1.000000
    6        7.179928   1.000000
    7        8.401014  -0.000015
    8       10.334403  -0.000000
    9       12.161776   0.000000
   10       14.671749   0.000000

  0.4000000E+00  0.1333333E+00  0.3742002E-15  0.3555556E-02
    1       -1.915504   1.000000
    2       -0.852945   1.000000
    3        2.471699   1.000000
    4        3.273227   1.000000
    5        5.461193   1.000000
    6        6.940020   1.000000
    7        9.161029  -0.000000
    8        9.988899  -0.000000
    9       12.133428   0.000000
   10       15.028415   0.000000

  0.2000000E+00  0.2000000E+00  0.3742002E-15  0.1777778E-02
    1       -3.693862   1.000000
    2        1.514940   1.000000
    3        2.584013   1.000000
    4        3.392403   1.000000
    5        5.580379   1.000000
    6        7.380572   1.000000
    7        7.534981   1.000000
    8       10.269411  -0.000000
    9       12.673534   0.000000
   10       14.486268   0.000000

  0.2666667E+00  0.2000000E+00  0.3742002E-15  0.3555556E-02
    1       -2.943067   1.000000
    2        0.773744   1.000000
    3        2.010044   1.000000
    4        3.438535   1.000000
    5        6.050388   1.000000
    6        6.686449   1.000000
    7        7.524728   1.000000
    8       10.385629  -0.000000
    9       13.304279   0.000000
   10       14.790001   0.000000

  0.3333333E+00  0.2000000E+00  0.3742002E-15  0.3555556E-02
    1       -2.086021   1.000000
    2       -0.151051   1.000000
    3        1.695167   1.000000
    4        3.528472   1.000000
    5        6.165334   1.000000
    6        6.177428   1.000000
    7        8.126283   0.095751
    8        9.976646  -0.000000
    9       13.443612   0.000000
   10       15.519611   0.000000

  0.4000000E+00  0.2000000E+00  0.3742002E-15  0.1777778E-02
    1       -1.248801   1.000000
    2       -1.025945   1.000000
    3        1.599151   1.000000
    4        3.577634   1.000000
    5        5.983923   1.000000
    6        6.154243   1.000000
    7        8.756884  -0.000000
    8        9.438831  -0.000000
    9       13.450749   0.000000
   10       15.910478   0.000000

  0.2666667E+00  0.2666667E+00  0.3742002E-15  0.1777778E-02
    1       -2.146502   1.000000
    2        0.380321   1.000000
    3        1.135560   1.000000
    4        3.670093   1.000000
    5        5.862173   1.000000
    6        6.845774   1.000000
    7        7.317498   1.000000
    8        9.972622  -0.000000
    9       14.473197   0.000000
   10       14.793584   0.000000

  0.3333333E+00  0.2666667E+00  0.3742002E-15  0.3555556E-02
    1       -1.257862   1.000000
    2       -0.337311   1.000000
    3        0.710739   1.000000
    4        3.942397   1.000000
    5        5.280009   1.000000
    6        7.003039   1.000000
    7        7.937518   1.034198
    8        9.207370  -0.000000
    9       14.653778   0.000000
   10       15.513221   0.000000

  0.3333333E+00  0.3333333E+00  0.3742002E-15  0.5925926E-03
    1       -0.466866   1.000000
    2       -0.466863   1.000000
    3       -0.070641   1.000000
    4        4.528567   1.000000
    5        4.528569   1.000000
    6        7.741994   1.000018
    7        7.741994   1.000018
    8        8.597708  -0.000000
    9       15.371417   0.000000
   10       15.371418   0.000000

  0.3742002E-15  0.3742002E-15  0.6666667E-01  0.5925926E-03
    1       -5.843612   1.000000
    2        2.465834   1.000000
    3        4.331221   1.000000
    4        4.882427   1.000000
    5        4.882430   1.000000
    6        9.355122  -0.000000
    7        9.355123  -0.000000
    8       10.153881  -0.000000
    9       10.153884  -0.000000
   10       14.295229   0.000000

  0.6666667E-01  0.3766815E-15  0.6666667E-01  0.3555556E-02
    1       -5.757152   1.000000
    2        2.555876   1.000000
    3        4.254068   1.000000
    4        4.655983   1.000000
    5        4.914406   1.000000
    6        9.231148  -0.000000
    7        9.368314  -0.000000
    8       10.014966  -0.000000
    9       10.063963  -0.000000
   10       14.220285   0.000000

  0.1333333E+00  0.3754153E-15  0.6666667E-01  0.3555556E-02
    1       -5.501101   1.000000
    2        2.794140   1.000000
    3        3.934296   1.000000
    4        4.180178   1.000000
    5        4.982531   1.000000
    6        8.962747  -0.000000
    7        9.004414  -0.000000
    8        9.892091  -0.000000
    9       10.143863  -0.000000
   10       14.106718   0.000000

  0.2000000E+00  0.3870416E-15  0.6666667E-01  0.3555556E-02
    1       -5.084663   1.000000
    2        3.072730   1.000000
    3        3.107808   1.000000
    4        3.949422   1.000000
    5        5.017065   1.000000
    6        8.489747  -0.000000
    7        8.768358  -0.000000
    8        9.732425  -0.000000
    9       10.507042  -0.000000
   10       14.041391   0.000000

  0.2666667E+00  0.4120044E-15  0.6666667E-01  0.3555556E-02
    1       -4.521084   1.000000
    2        2.109281   1.000000
    3        3.223355   1.000000
    4        3.811973   1.000000
    5        4.961227   1.000000
    6        8.301374  -0.002521
    7        8.745954  -0.000000
    8        9.656338  -0.000000
    9       10.699636  -0.000000
   10       14.078960   0.000000

  0.3333333E+00  0.4025434E-15  0.6666667E-01  0.3555556E-02
    1       -3.825810   1.000000
    2        1.047032   1.000000
    3        3.208961   1.000000
    4        3.691389   1.000000
    5        4.832929   1.000000
    6        8.582894  -0.000000
    7        8.778032  -0.000000
    8        9.771185  -0.000000
    9       10.630021  -0.000000
   10       14.041302   0.000000

  0.4000000E+00  0.3732510E-15  0.6666667E-01  0.3555556E-02
    1       -3.016696   1.000000
    2       -0.025273   1.000000
    3        3.151084   1.000000
    4        3.544295   1.000000
    5        4.699755   1.000000
    6        8.757532  -0.000000
    7        9.089799  -0.000000
    8       10.048045  -0.000000
    9       10.567552  -0.000000
   10       13.863175   0.000000

  0.4666667E+00  0.3915456E-15  0.6666667E-01  0.3555556E-02
    1       -2.128514   1.000000
    2       -1.050752   1.000000
    3        3.114997   1.000000
    4        3.441439   1.000000
    5        4.619174   1.000000
    6        8.727212  -0.000000
    7        9.359326  -0.000000
    8       10.270066  -0.000000
    9       10.748511  -0.000000
   10       13.676683   0.000000

  0.6666667E-01  0.6666667E-01  0.6666667E-01  0.3555556E-02
    1       -5.585877   1.000000
    2        2.720677   1.000000
    3        4.115531   1.000000
    4        4.246871   1.000000
    5        4.964055   1.000000
    6        8.901340  -0.000000
    7        9.356657  -0.000000
    8        9.775784  -0.000000
    9       10.145787  -0.000000
   10       14.224115   0.000000

  0.1333333E+00  0.6666667E-01  0.6666667E-01  0.7111111E-02
    1       -5.249551   1.000000
    2        2.982704   1.000000
    3        3.519247   1.000000
    4        3.927925   1.000000
    5        5.011768   1.000000
    6        8.402827  -0.000013
    7        9.129303  -0.000000
    8        9.604297  -0.000000
    9       10.490620  -0.000000
   10       14.226802   0.000000

  0.2000000E+00  0.6666667E-01  0.6666667E-01  0.7111111E-02
    1       -4.759297   1.000000
    2        2.613762   1.000000
    3        3.196773   1.000000
    4        3.737077   1.000000
    5        5.029790   1.000000
    6        7.987967   0.994272
    7        8.974065  -0.000000
    8        9.526624  -0.000000
    9       10.894377   0.000000
   10       14.231188   0.000000

  0.2666667E+00  0.6666667E-01  0.6666667E-01  0.7111111E-02
    1       -4.129278   1.000000
    2        1.603169   1.000000
    3        3.249519   1.000000
    4        3.555176   1.000000
    5        5.018514   1.000000
    6        7.900294   1.018821
    7        8.864463  -0.000000
    8        9.685956  -0.000000
    9       11.092468   0.000000
   10       14.260573   0.000000

  0.3333333E+00  0.6666667E-01  0.6666667E-01  0.7111111E-02
    1       -3.375662   1.000000
    2        0.546529   1.000000
    3        3.214566   1.000000
    4        3.357095   1.000000
    5        4.941454   1.000000
    6        8.067845   0.515420
    7        8.909623  -0.000000
    8        9.976107  -0.000000
    9       11.114712   0.000000
   10       14.130296   0.000000

  0.4000000E+00  0.6666667E-01  0.6666667E-01  0.7111111E-02
    1       -2.519218   1.000000
    2       -0.504947   1.000000
    3        3.179657   1.000000
    4        3.196967   1.000000
    5        4.842021   1.000000
    6        8.082703   0.390719
    7        9.365302  -0.000000
    8       10.098098  -0.000000
    9       11.151100   0.000000
   10       14.025252   0.000000

  0.4666667E+00  0.6666667E-01  0.6666667E-01  0.3555556E-02
    1       -1.735315   1.000000
    2       -1.356129   1.000000
    3        3.136125   1.000000
    4        3.167985   1.000000
    5        4.799153   1.000000
    6        8.051815   0.648439
    7        9.729957  -0.000000
    8       10.026727  -0.000000
    9       11.175320   0.000000
   10       13.994954   0.000000

  0.1333333E+00  0.1333333E+00  0.6666667E-01  0.3555556E-02
    1       -4.839212   1.000000
    2        2.900261   1.000000
    3        3.182924   1.000000
    4        3.597098   1.000000
    5        5.063165   1.000000
    6        7.805699   1.000607
    7        9.167270  -0.000000
    8        9.372697  -0.000000
    9       11.043853   0.000000
   10       14.464744   0.000000

  0.2000000E+00  0.1333333E+00  0.6666667E-01  0.7111111E-02
    1       -4.281863   1.000000
    2        2.096060   1.000000
    3        3.228954   1.000000
    4        3.290074   1.000000
    5        5.239409   1.000000
    6        7.341175   1.000000
    7        8.739932  -0.000000
    8        9.749798  -0.000000
    9       11.617112   0.000000
   10       14.543359   0.000000

  0.2666667E+00  0.1333333E+00  0.6666667E-01  0.7111111E-02
    1       -3.591974   1.000000
    2        1.152750   1.000000
    3        2.888799   1.000000
    4        3.305640   1.000000
    5        5.382999   1.000000
    6        7.216241   1.000000
    7        8.428799  -0.000002
    8       10.139144  -0.000000
    9       11.991006   0.000000
   10       14.472549   0.000000

  0.3333333E+00  0.1333333E+00  0.6666667E-01  0.7111111E-02
    1       -2.786540   1.000000
    2        0.138737   1.000000
    3        2.624216   1.000000
    4        3.319686   1.000000
    5        5.310918   1.000000
    6        7.274417   1.000000
    7        8.572687  -0.000000
    8       10.238113  -0.000000
    9       12.154411   0.000000
   10       14.547830   0.000000

  0.4000000E+00  0.1333333E+00  0.6666667E-01  0.7111111E-02
    1       -1.893068   1.000000
    2       -0.871472   1.000000
    3        2.483286   1.000000
    4        3.336757   1.000000
    5        5.202224   1.000000
    6        7.222880   1.000000
    7        9.196596  -0.000000
    8        9.912185  -0.000000
    9       12.191749   0.000000
   10       14.729917   0.000000

  0.2000000E+00  0.2000000E+00  0.6666667E-01  0.3555556E-02
    1       -3.664162   1.000000
    2        1.522687   1.000000
    3        2.553575   1.000000
    4        3.348291   1.000000
    5        5.715080   1.000000
    6        6.730791   1.000000
    7        8.233075  -0.021498
    8       10.204381  -0.000000
    9       12.450915   0.000000
   10       14.435278   0.000000

  0.2666667E+00  0.2000000E+00  0.6666667E-01  0.7111111E-02
    1       -2.921073   1.000000
    2        0.769406   1.000000
    3        1.999236   1.000000
    4        3.441568   1.000000
    5        5.911032   1.000000
    6        6.577680   1.000000
    7        7.935767   1.033744
    8       10.318984  -0.000000
    9       13.116035   0.000000
   10       14.607921   0.000000

  0.3333333E+00  0.2000000E+00  0.6666667E-01  0.7111111E-02
    1       -2.071500   1.000000
    2       -0.160533   1.000000
    3        1.702954   1.000000
    4        3.560086   1.000000
    5        5.566808   1.000000
    6        6.782706   1.000000
    7        8.251830  -0.013614
    8        9.933608  -0.000000
    9       13.380142   0.000000
   10       15.090203   0.000000

  0.4000000E+00  0.2000000E+00  0.6666667E-01  0.3555556E-02
    1       -1.204126   1.000000
    2       -1.068497   1.000000
    3        1.612326   1.000000
    4        3.622129   1.000000
    5        5.406705   1.000000
    6        6.785765   1.000000
    7        8.813281  -0.000000
    8        9.415821  -0.000000
    9       13.419057   0.000000
   10       15.392258   0.000000

  0.2666667E+00  0.2666667E+00  0.6666667E-01  0.3555556E-02
    1       -2.133312   1.000000
    2        0.372213   1.000000
    3        1.141365   1.000000
    4        3.678395   1.000000
    5        5.617944   1.000000
    6        6.933528   1.000000
    7        7.642053   1.000000
    8        9.937169  -0.000000
    9       14.230068   0.000000
   10       14.733162   0.000000

  0.3333333E+00  0.2666667E+00  0.6666667E-01  0.7111111E-02
    1       -1.255091   1.000000
    2       -0.344818   1.000000
    3        0.729456   1.000000
    4        3.950982   1.000000
    5        5.116571   1.000000
    6        7.222856   1.000000
    7        8.043638   0.712225
    8        9.201736  -0.000000
    9       14.566284   0.000000
   10       15.313742   0.000000

  0.3333333E+00  0.3333333E+00  0.6666667E-01  0.1185185E-02
    1       -0.492988   1.000000
    2       -0.492985   1.000000
    3       -0.004038   1.000000
    4        4.485926   1.000000
    5        4.485928   1.000000
    6        7.881466   1.011484
    7        7.881466   1.011484
    8        8.583409  -0.000000
    9       15.258262   0.000000
   10       15.258263   0.000000

  0.3742002E-15  0.3742002E-15  0.1333333E+00  0.5925926E-03
    1       -5.693875   1.000000
    2        2.029966   1.000000
    3        4.572876   1.000000
    4        5.001120   1.000000
    5        5.001122   1.000000
    6        9.065705  -0.000000
    7        9.065706  -0.000000
    8        9.884899  -0.000000
    9        9.884903  -0.000000
   10       15.106097   0.000000

  0.6666667E-01  0.3766815E-15  0.1333333E+00  0.3555556E-02
    1       -5.609783   1.000000
    2        2.114946   1.000000
    3        4.497759   1.000000
    4        4.776733   1.000000
    5        5.023360   1.000000
    6        8.833203  -0.000000
    7        8.920518  -0.000000
    8        9.973605  -0.000000
    9       10.014927  -0.000000
   10       14.660850   0.000000

  0.1333333E+00  0.3754153E-15  0.1333333E+00  0.3555556E-02
    1       -5.360883   1.000000
    2        2.342745   1.000000
    3        4.016944   1.000000
    4        4.476245   1.000000
    5        5.054521   1.000000
    6        8.494338  -0.000000
    7        8.511951  -0.000000
    8       10.137022  -0.000000
    9       10.271520  -0.000000
   10       14.380599   0.000000

  0.2000000E+00  0.3870416E-15  0.1333333E+00  0.3555556E-02
    1       -4.956526   1.000000
    2        2.605024   1.000000
    3        3.172096   1.000000
    4        4.293630   1.000000
    5        5.012685   1.000000
    6        8.100494   0.252357
    7        8.364542  -0.000124
    8       10.139287  -0.000000
    9       10.625917  -0.000000
   10       14.166787   0.000000

  0.2666667E+00  0.4120044E-15  0.1333333E+00  0.3555556E-02
    1       -4.409813   1.000000
    2        2.046388   1.000000
    3        2.986685   1.000000
    4        4.086476   1.000000
    5        4.858505   1.000000
    6        7.971718   1.022866
    7        8.517112  -0.000000
    8       10.085004  -0.000000
    9       10.809471   0.000000
   10       14.173403   0.000000

  0.3333333E+00  0.4025434E-15  0.1333333E+00  0.3555556E-02
    1       -3.735335   1.000000
    2        0.998064   1.000000
    3        3.152656   1.000000
    4        3.842977   1.000000
    5        4.648566   1.000000
    6        8.199376  -0.034728
    7        8.826501  -0.000000
    8       10.065749  -0.000000
    9       10.812791   0.000000
   10       14.239073   0.000000

  0.4000000E+00  0.3732510E-15  0.1333333E+00  0.3555556E-02
    1       -2.947841   1.000000
    2       -0.063619   1.000000
    3        3.256186   1.000000
    4        3.611080   1.000000
    5        4.465298   1.000000
    6        8.534358  -0.000000
    7        9.077414  -0.000000
    8       10.158382  -0.000000
    9       10.953870   0.000000
   10       13.833395   0.000000

  0.4666667E+00  0.3915456E-15  0.1333333E+00  0.3555556E-02
    1       -2.063576   1.000000
    2       -1.090555   1.000000
    3        3.323750   1.000000
    4        3.453055   1.000000
    5        4.362171   1.000000
    6        8.691826  -0.000000
    7        9.175364  -0.000000
    8       10.292744  -0.000000
    9       11.340227   0.000000
   10       13.374937   0.000000

  0.6666667E-01  0.6666667E-01  0.1333333E+00  0.3555556E-02
    1       -5.443284   1.000000
    2        2.272284   1.000000
    3        4.343454   1.000000
    4        4.351892   1.000000
    5        5.096012   1.000000
    6        8.374424  -0.000071
    7        8.870917  -0.000000
    8        9.955183  -0.000000
    9       10.290348  -0.000000
   10       14.574584   0.000000

  0.1333333E+00  0.6666667E-01  0.1333333E+00  0.7111111E-02
    1       -5.116614   1.000000
    2        2.533306   1.000000
    3        3.582506   1.000000
    4        4.144064   1.000000
    5        5.175987   1.000000
    6        7.837840   1.002509
    7        8.790738  -0.000000
    8        9.967128  -0.000000
    9       10.615218  -0.000000
   10       14.479942   0.000000

  0.2000000E+00  0.6666667E-01  0.1333333E+00  0.7111111E-02
    1       -4.640934   1.000000
    2        2.537878   1.000000
    3        2.923178   1.000000
    4        3.907150   1.000000
    5        5.158579   1.000000
    6        7.491228   1.000000
    7        8.847851  -0.000000
    8        9.923407  -0.000000
    9       10.928412   0.000000
   10       14.335418   0.000000

  0.2666667E+00  0.6666667E-01  0.1333333E+00  0.7111111E-02
    1       -4.030054   1.000000
    2        1.561570   1.000000
    3        3.098660   1.000000
    4        3.649607   1.000000
    5        4.997073   1.000000
    6        7.528489   1.000000
    7        9.071903  -0.000000
    8        9.851807  -0.000000
    9       11.111237   0.000000
   10       14.314445   0.000000

  0.3333333E+00  0.6666667E-01  0.1333333E+00  0.7111111E-02
    1       -3.298579   1.000000
    2        0.507503   1.000000
    3        3.241579   1.000000
    4        3.409712   1.000000
    5        4.750645   1.000000
    6        7.881742   1.011576
    7        9.261625  -0.000000
    8        9.879200  -0.000000
    9       11.255965   0.000000
   10       14.123429   0.000000

  0.4000000E+00  0.6666667E-01  0.1333333E+00  0.7111111E-02
    1       -2.461612   1.000000
    2       -0.535436   1.000000
    3        3.214184   1.000000
    4        3.355245   1.000000
    5        4.541707   1.000000
    6        8.194697  -0.035361
    7        9.394332  -0.000000
    8        9.990760  -0.000000
    9       11.503410   0.000000
   10       13.777743   0.000000

  0.4666667E+00  0.6666667E-01  0.1333333E+00  0.3555556E-02
    1       -1.571735   1.000000
    2       -1.495896   1.000000
    3        3.154648   1.000000
    4        3.386674   1.000000
    5        4.460138   1.000000
    6        8.281355  -0.005382
    7        9.470383  -0.000000
    8       10.062813  -0.000000
    9       11.659475   0.000000
   10       13.581295   0.000000

  0.1333333E+00  0.1333333E+00  0.1333333E+00  0.3555556E-02
    1       -4.718520   1.000000
    2        2.779872   1.000000
    3        2.960917   1.000000
    4        3.660459   1.000000
    5        5.383003   1.000000
    6        7.175766   1.000000
    7        9.131315  -0.000000
    8        9.728276  -0.000000
    9       11.017297   0.000000
   10       14.739748   0.000000

  0.2000000E+00  0.1333333E+00  0.1333333E+00  0.7111111E-02
    1       -4.178332   1.000000
    2        2.108770   1.000000
    3        2.990362   1.000000
    4        3.278721   1.000000
    5        5.518826   1.000000
    6        6.763410   1.000000
    7        9.356676  -0.000000
    8        9.621934  -0.000000
    9       11.442203   0.000000
   10       14.400440   0.000000

  0.2666667E+00  0.1333333E+00  0.1333333E+00  0.7111111E-02
    1       -3.509875   1.000000
    2        1.132837   1.000000
    3        2.868701   1.000000
    4        3.257264   1.000000
    5        5.315949   1.000000
    6        6.953587   1.000000
    7        9.129276  -0.000000
    8        9.925599  -0.000000
    9       11.821097   0.000000
   10       14.293591   0.000000

  0.3333333E+00  0.1333333E+00  0.1333333E+00  0.7111111E-02
    1       -2.728065   1.000000
    2        0.113578   1.000000
    3        2.641207   1.000000
    4        3.398279   1.000000
    5        4.961276   1.000000
    6        7.443124   1.000000
    7        9.040315  -0.000000
    8       10.008865  -0.000000
    9       12.150008   0.000000
   10       14.233033   0.000000

  0.4000000E+00  0.1333333E+00  0.1333333E+00  0.7111111E-02
    1       -1.849248   1.000000
    2       -0.893173   1.000000
    3        2.515905   1.000000
    4        3.505595   1.000000
    5        4.719276   1.000000
    6        7.720057   1.000004
    7        9.324768  -0.000000
    8        9.770124  -0.000000
    9       12.330400   0.000000
   10       14.206286   0.000000

  0.2000000E+00  0.2000000E+00  0.1333333E+00  0.3555556E-02
    1       -3.580407   1.000000
    2        1.544891   1.000000
    3        2.466507   1.000000
    4        3.268055   1.000000
    5        6.050006   1.000000
    6        6.080734   1.000000
    7        9.015650  -0.000000
    8       10.003036  -0.000000
    9       12.099488   0.000000
   10       14.316607   0.000000

  0.2666667E+00  0.2000000E+00  0.1333333E+00  0.7111111E-02
    1       -2.861350   1.000000
    2        0.760748   1.000000
    3        1.981685   1.000000
    4        3.446458   1.000000
    5        5.481716   1.000000
    6        6.728993   1.000000
    7        8.665883  -0.000000
    8       10.130622  -0.000000
    9       12.774679   0.000000
   10       14.388385   0.000000
