 running on    4 total cores
 distrk:  each k-point on    4 cores,    1 groups
 distr:  one band on    2 cores,    2 groups
 using from now: INCAR     
 vasp.5.4.4.18Apr17-6-g9f103f2a35 (build Dec  7 2020 12:43:57) complex           
 POSCAR found type information on POSCAR  Mo B 
 POSCAR found :  2 types and       3 ions
 scaLAPACK will be used
 LDA part: xc-table for Pade appr. of Perdew
 POSCAR, INCAR and KPOINTS ok, starting setup
 FFT: planning ...
 WAVECAR not read
 augmentation electrons   12.018373587906812     
 augmentation electrons   12.018373587906812     
 soft         electrons   0.0000000000000000     
 augmentation electrons   12.018373587906812     
 soft         electrons   0.0000000000000000     
 soft         electrons   0.0000000000000000     
 augmentation electrons   12.018373587906812     
 soft         electrons   0.0000000000000000     
 total        electrons   12.018373587906812     
 total        electrons   12.018373587906812     
 total        electrons   12.018373587906812     
 total        electrons   12.018373587906812     
 augmentation electrons   169.75791458332097     
 soft         electrons   0.0000000000000000     
 augmentation electrons   169.75791458332097     
 soft         electrons   0.0000000000000000     
 augmentation electrons   169.75791458332097     
 soft         electrons   0.0000000000000000     
 augmentation electrons   169.75791458332097     
 soft         electrons   0.0000000000000000     
 total        electrons   169.75791458332097     
 total        electrons   169.75791458332097     
 total        electrons   169.75791458332097     
 total        electrons   169.75791458332097     
 entering main loop
       N       E                     dE             d eps       ncg     rms          rms(c)
DAV:   1     0.360768888148E+02    0.36077E+02   -0.57109E+03  4320   0.105E+03
DAV:   2    -0.206131979684E+02   -0.56690E+02   -0.53773E+02  5160   0.219E+02
DAV:   3    -0.228085429280E+02   -0.21953E+01   -0.21003E+01  6078   0.379E+01
DAV:   4    -0.228357860133E+02   -0.27243E-01   -0.26647E-01  5544   0.318E+00
DAV:   5    -0.228361938945E+02   -0.40788E-03   -0.40736E-03  5636   0.294E-01    0.347E+01
RMM:   6    -0.186856957312E+02    0.41505E+01   -0.14147E+01  4336   0.241E+01    0.817E+00
RMM:   7    -0.187472432998E+02   -0.61548E-01   -0.53416E-01  4332   0.491E+00    0.496E+00
RMM:   8    -0.188397234968E+02   -0.92480E-01   -0.65126E-01  4320   0.981E+00    0.357E+00
RMM:   9    -0.187834060216E+02    0.56317E-01   -0.14413E-01  4320   0.277E+00    0.631E-01
RMM:  10    -0.187821016746E+02    0.13043E-02   -0.80483E-03  4357   0.936E-01    0.387E-01
RMM:  11    -0.187808328812E+02    0.12688E-02   -0.35272E-03  4320   0.560E-01    0.104E-01
RMM:  12    -0.187811951945E+02   -0.36231E-03   -0.11104E-03  4325   0.426E-01    0.287E-02
RMM:  13    -0.187812221007E+02   -0.26906E-04   -0.13741E-04  4347   0.880E-02    0.436E-02
RMM:  14    -0.187812036247E+02    0.18476E-04   -0.82980E-05  4319   0.729E-02    0.885E-03
RMM:  15    -0.187812019655E+02    0.16591E-05   -0.15744E-06  3006   0.131E-02    0.516E-03
RMM:  16    -0.187812015275E+02    0.43802E-06   -0.82473E-07  2741   0.846E-03
   1 F= -.18781202E+02 E0= -.18780858E+02  d E =-.187812E+02
 curvature:   0.00 expect dE= 0.000E+00 dE for cont linesearch  0.000E+00
 trial: gam= 0.00000 g(F)=  0.465E-43 g(S)=  0.102E+01 ort = 0.000E+00 (trialstep = 0.100E+01)
 search vector abs. value=  0.102E+01
 bond charge predicted
       N       E                     dE             d eps       ncg     rms          rms(c)
DAV:   1    -0.191974667177E+02   -0.41626E+00   -0.24998E+01  4364   0.478E+01    0.150E+01
RMM:   2    -0.186986109613E+02    0.49886E+00   -0.13510E+00  4320   0.802E+00    0.578E+00
RMM:   3    -0.186323444675E+02    0.66266E-01   -0.11340E-01  4320   0.264E+00    0.384E+00
RMM:   4    -0.186283777973E+02    0.39667E-02   -0.81117E-02  4320   0.236E+00    0.590E-01
RMM:   5    -0.186300376020E+02   -0.16598E-02   -0.92330E-03  4339   0.677E-01    0.199E-01
RMM:   6    -0.186290977377E+02    0.93986E-03   -0.40142E-03  4320   0.587E-01    0.591E-02
RMM:   7    -0.186292477489E+02   -0.15001E-03   -0.39541E-04  4341   0.164E-01    0.322E-02
RMM:   8    -0.186292724567E+02   -0.24708E-04   -0.66311E-05  4330   0.767E-02    0.191E-02
RMM:   9    -0.186293178926E+02   -0.45436E-04   -0.18856E-04  4320   0.175E-01    0.105E-02
RMM:  10    -0.186293166152E+02    0.12774E-05   -0.77671E-06  3604   0.178E-02    0.498E-03
RMM:  11    -0.186293156617E+02    0.95354E-06   -0.57814E-06  3868   0.249E-02
   2 F= -.18629316E+02 E0= -.18629226E+02  d E =0.151886E+00
 trial-energy change:    0.151886  1 .order    0.072697   -1.021496    1.166891
 step:   0.4141(harm=  0.4668)  dis= 0.00000  next Energy=   -18.987081 (dE=-0.206E+00)
 bond charge predicted
       N       E                     dE             d eps       ncg     rms          rms(c)
DAV:   1    -0.191606565912E+02   -0.53134E+00   -0.89087E+00  4350   0.301E+01    0.824E+00
RMM:   2    -0.189964841741E+02    0.16417E+00   -0.26548E-01  4320   0.389E+00    0.286E+00
RMM:   3    -0.189773230608E+02    0.19161E-01   -0.34957E-02  4320   0.145E+00    0.140E+00
RMM:   4    -0.189763226557E+02    0.10004E-02   -0.20279E-02  4320   0.121E+00    0.305E-01
RMM:   5    -0.189770851140E+02   -0.76246E-03   -0.16390E-03  4357   0.470E-01    0.695E-02
RMM:   6    -0.189770657631E+02    0.19351E-04   -0.13402E-03  4322   0.372E-01    0.731E-02
RMM:   7    -0.189770196884E+02    0.46075E-04   -0.15775E-04  4320   0.142E-01    0.242E-02
RMM:   8    -0.189770225436E+02   -0.28552E-05   -0.25932E-05  4311   0.434E-02    0.766E-03
RMM:   9    -0.189770273306E+02   -0.47870E-05   -0.11048E-05  4006   0.449E-02    0.214E-03
RMM:  10    -0.189770274074E+02   -0.76830E-07   -0.12108E-06  2897   0.889E-03
   3 F= -.18977027E+02 E0= -.18976786E+02  d E =-.195826E+00
 curvature:  -0.23 expect dE=-0.722E-02 dE for cont linesearch -0.159E-03
 ZBRENT: interpolating
 opt :   0.4036  next Energy=   -18.977166 (dE=-0.196E+00)
 bond charge predicted
       N       E                     dE             d eps       ncg     rms          rms(c)
DAV:   1    -0.189772425069E+02   -0.21518E-03   -0.28339E-03  4678   0.534E-01    0.168E-01
RMM:   2    -0.189771944294E+02    0.48078E-04   -0.89639E-05  4319   0.702E-02    0.634E-02
RMM:   3    -0.189771909450E+02    0.34844E-05   -0.11294E-05  4320   0.272E-02    0.330E-02
RMM:   4    -0.189771927541E+02   -0.18091E-05   -0.65990E-06  4271   0.229E-02    0.604E-03
RMM:   5    -0.189771931219E+02   -0.36782E-06   -0.44614E-07  2440   0.874E-03
   4 F= -.18977193E+02 E0= -.18976947E+02  d E =-.195992E+00
 curvature:  -0.20 expect dE=-0.588E-02 dE for cont linesearch -0.131E-05
 trial: gam= 0.03106 g(F)=  0.206E-43 g(S)=  0.292E-01 ort =-0.258E-02 (trialstep = 0.881E+00)
 search vector abs. value=  0.300E-01
 bond charge predicted
       N       E                     dE             d eps       ncg     rms          rms(c)
DAV:   1    -0.189990265852E+02   -0.21834E-01   -0.74484E-01  4368   0.728E+00    0.414E-01
RMM:   2    -0.189958735231E+02    0.31531E-02   -0.17565E-02  4326   0.118E+00    0.414E-01
RMM:   3    -0.189956062315E+02    0.26729E-03   -0.65204E-04  4357   0.182E-01    0.248E-01
RMM:   4    -0.189957030209E+02   -0.96789E-04   -0.48418E-04  4320   0.233E-01    0.481E-02
RMM:   5    -0.189958430542E+02   -0.14003E-03   -0.31177E-04  4320   0.182E-01    0.694E-02
RMM:   6    -0.189958745442E+02   -0.31490E-04   -0.68530E-05  4320   0.933E-02    0.231E-02
RMM:   7    -0.189959050366E+02   -0.30492E-04   -0.65157E-05  4323   0.111E-01    0.111E-02
RMM:   8    -0.189959052917E+02   -0.25507E-06   -0.10357E-05  3963   0.330E-02    0.496E-03
RMM:   9    -0.189959052743E+02    0.17364E-07   -0.51861E-07  2727   0.617E-03
   5 F= -.18995905E+02 E0= -.18995925E+02  d E =-.187122E-01
 trial-energy change:   -0.018712  1 .order   -0.019077   -0.025608   -0.012546
 step:   2.4845(harm=  1.7266)  dis= 0.00000  next Energy=   -19.005126 (dE=-0.279E-01)
 bond charge predicted
       N       E                     dE             d eps       ncg     rms          rms(c)
DAV:   1    -0.190112240928E+02   -0.15319E-01   -0.24768E+00  4372   0.132E+01    0.698E-01
RMM:   2    -0.190060096968E+02    0.52144E-02   -0.50077E-02  4325   0.205E+00    0.698E-01
RMM:   3    -0.190068874645E+02   -0.87777E-03   -0.20982E-03  4364   0.390E-01    0.435E-01
RMM:   4    -0.190097930799E+02   -0.29056E-02   -0.24170E-03  4320   0.638E-01    0.149E-01
RMM:   5    -0.190118457774E+02   -0.20527E-02   -0.35120E-03  4320   0.704E-01    0.174E-01
RMM:   6    -0.190124208760E+02   -0.57510E-03   -0.97224E-04  4320   0.385E-01    0.667E-02
RMM:   7    -0.190131054157E+02   -0.68454E-03   -0.26331E-03  4320   0.711E-01    0.344E-02
RMM:   8    -0.190131600951E+02   -0.54679E-04   -0.49683E-04  4326   0.267E-01    0.804E-03
RMM:   9    -0.190131589160E+02    0.11791E-05   -0.26763E-05  4295   0.579E-02    0.575E-03
RMM:  10    -0.190131647418E+02   -0.58258E-05   -0.41864E-05  4314   0.885E-02    0.264E-03
RMM:  11    -0.190131648727E+02   -0.13097E-06   -0.22554E-06  3135   0.132E-02
   6 F= -.19013165E+02 E0= -.19012946E+02  d E =-.359718E-01
 curvature:  -0.18 expect dE=-0.162E-02 dE for cont linesearch -0.542E-03
 ZBRENT: increasing intervall
 opt :   5.6921  next Energy=   -19.029229 (dE=-0.520E-01)
 bond charge predicted
       N       E                     dE             d eps       ncg     rms          rms(c)
DAV:   1    -0.189859299135E+02    0.27235E-01   -0.98981E+00  4346   0.263E+01    0.157E+00
RMM:   2    -0.189582398539E+02    0.27690E-01   -0.19274E-01  4323   0.416E+00    0.146E+00
RMM:   3    -0.189608455749E+02   -0.26057E-02   -0.11155E-02  4357   0.103E+00    0.881E-01
RMM:   4    -0.189783304120E+02   -0.17485E-01   -0.13792E-02  4320   0.150E+00    0.478E-01
RMM:   5    -0.189981583119E+02   -0.19828E-01   -0.18386E-02  4320   0.172E+00    0.463E-01
RMM:   6    -0.190432921164E+02   -0.45134E-01   -0.91335E-02  4320   0.418E+00    0.499E-01
RMM:   7    -0.190597446092E+02   -0.16452E-01   -0.39169E-02  4322   0.253E+00    0.381E-01
RMM:   8    -0.190469706715E+02    0.12774E-01   -0.15940E-02  4320   0.183E+00    0.336E-01
RMM:   9    -0.190605722241E+02   -0.13602E-01   -0.10820E-01  4320   0.455E+00    0.174E-01
RMM:  10    -0.190611597761E+02   -0.58755E-03   -0.16755E-03  4323   0.195E-01    0.138E-01
RMM:  11    -0.190628732603E+02   -0.17135E-02   -0.30634E-03  4320   0.786E-01    0.413E-02
RMM:  12    -0.190629214572E+02   -0.48197E-04   -0.57603E-05  4224   0.743E-02    0.389E-02
RMM:  13    -0.190630914515E+02   -0.16999E-03   -0.98414E-04  4320   0.430E-01    0.236E-02
RMM:  14    -0.190630818616E+02    0.95899E-05   -0.64975E-05  4328   0.758E-02    0.187E-02
RMM:  15    -0.190629529958E+02    0.12887E-03   -0.18353E-04  4320   0.190E-01    0.304E-02
RMM:  16    -0.190630348011E+02   -0.81805E-04   -0.38816E-05  4317   0.901E-02    0.200E-02
RMM:  17    -0.190630938505E+02   -0.59049E-04   -0.90205E-05  4319   0.129E-01    0.873E-03
RMM:  18    -0.190631069673E+02   -0.13117E-04   -0.46323E-05  4298   0.891E-02    0.153E-03
RMM:  19    -0.190631073156E+02   -0.34833E-06   -0.20329E-06  2774   0.119E-02
   7 F= -.19063107E+02 E0= -.19063063E+02  d E =-.859142E-01
 curvature:  -5.20 expect dE=-0.113E+01 dE for cont linesearch -0.636E-03
 trial: gam= 7.86400 g(F)=  0.115E-42 g(S)=  0.217E+00 ort = 0.192E-02 (trialstep = 0.263E-01)
 search vector abs. value=  0.210E+01
 bond charge predicted
       N       E                     dE             d eps       ncg     rms          rms(c)
DAV:   1    -0.190684715669E+02   -0.53646E-02   -0.51708E-02  4456   0.192E+00    0.265E-01
RMM:   2    -0.190683518924E+02    0.11967E-03   -0.57241E-04  4320   0.236E-01    0.179E-01
RMM:   3    -0.190682981282E+02    0.53764E-04   -0.17028E-04  4326   0.116E-01    0.207E-02
RMM:   4    -0.190682992783E+02   -0.11501E-05   -0.12883E-05  4244   0.271E-02    0.114E-02
RMM:   5    -0.190683012439E+02   -0.19656E-05   -0.37056E-06  3359   0.241E-02    0.544E-03
RMM:   6    -0.190683015904E+02   -0.34655E-06   -0.34318E-07  2528   0.748E-03
   8 F= -.19068302E+02 E0= -.19068192E+02  d E =-.519427E-02
 trial-energy change:   -0.005194  1 .order   -0.005222   -0.006096   -0.004348
 step:   0.0917(harm=  0.0917)  dis= 0.00000  next Energy=   -19.073734 (dE=-0.106E-01)
 bond charge predicted
       N       E                     dE             d eps       ncg     rms          rms(c)
DAV:   1    -0.190747233361E+02   -0.64221E-02   -0.31575E-01  4402   0.474E+00    0.643E-01
RMM:   2    -0.190739956755E+02    0.72766E-03   -0.33862E-03  4320   0.580E-01    0.428E-01
RMM:   3    -0.190736986571E+02    0.29702E-03   -0.10902E-03  4326   0.301E-01    0.481E-02
RMM:   4    -0.190737163405E+02   -0.17683E-04   -0.80611E-05  4322   0.715E-02    0.309E-02
RMM:   5    -0.190737452306E+02   -0.28890E-04   -0.40386E-05  4312   0.835E-02    0.154E-02
RMM:   6    -0.190737520021E+02   -0.67715E-05   -0.55434E-06  3616   0.302E-02    0.104E-02
RMM:   7    -0.190737621636E+02   -0.10162E-04   -0.33158E-05  4162   0.797E-02    0.263E-03
RMM:   8    -0.190737619381E+02    0.22553E-06   -0.48270E-07  2581   0.537E-03
   9 F= -.19073762E+02 E0= -.19073548E+02  d E =-.106546E-01
 curvature:  -0.42 expect dE=-0.715E-01 dE for cont linesearch -0.223E-04
 trial: gam=-0.04832 g(F)=  0.875E-44 g(S)=  0.172E+00 ort = 0.106E-01 (trialstep = 0.394E-01)
 search vector abs. value=  0.176E+00
 bond charge predicted
       N       E                     dE             d eps       ncg     rms          rms(c)
DAV:   1    -0.190803559779E+02   -0.65938E-02   -0.75820E-03  4460   0.857E-01    0.208E-01
RMM:   2    -0.190802127796E+02    0.14320E-03   -0.28233E-04  4320   0.130E-01    0.640E-02
RMM:   3    -0.190801962677E+02    0.16512E-04   -0.28709E-05  4326   0.409E-02    0.391E-02
RMM:   4    -0.190801936068E+02    0.26609E-05   -0.17389E-05  4319   0.357E-02    0.725E-03
RMM:   5    -0.190801944820E+02   -0.87521E-06   -0.18499E-06  2820   0.194E-02
  10 F= -.19080194E+02 E0= -.19079972E+02  d E =-.643254E-02
 ZBRENT: can't locate minimum, use default step
 trial-energy change:   -0.006433  1 .order   -0.006440   -0.006753   -0.006127
 step:   0.1575(harm=  0.4248)  dis= 0.00000  next Energy=   -19.110187 (dE=-0.364E-01)
 bond charge predicted
       N       E                     dE             d eps       ncg     rms          rms(c)
DAV:   1    -0.190972003230E+02   -0.17007E-01   -0.67949E-02  4326   0.256E+00    0.617E-01
RMM:   2    -0.190959051345E+02    0.12952E-02   -0.26281E-03  4320   0.396E-01    0.187E-01
RMM:   3    -0.190957724151E+02    0.13272E-03   -0.25811E-04  4326   0.122E-01    0.116E-01
RMM:   4    -0.190957664661E+02    0.59490E-05   -0.16029E-04  4320   0.109E-01    0.219E-02
RMM:   5    -0.190957809319E+02   -0.14466E-04   -0.19559E-05  4314   0.609E-02    0.105E-02
RMM:   6    -0.190957855856E+02   -0.46537E-05   -0.10595E-05  4075   0.354E-02    0.863E-03
RMM:   7    -0.190957882870E+02   -0.27014E-05   -0.59653E-06  3731   0.291E-02    0.744E-03
RMM:   8    -0.190957887942E+02   -0.50720E-06   -0.28893E-06  2921   0.202E-02
  11 F= -.19095789E+02 E0= -.19095555E+02  d E =-.220269E-01
 curvature:  -0.11 expect dE=-0.801E-02 dE for cont linesearch -0.773E-02
 ZBRENT: increasing intervall
 opt :   0.3938  next Energy=   -19.110833 (dE=-0.371E-01)
 bond charge predicted
       N       E                     dE             d eps       ncg     rms          rms(c)
DAV:   1    -0.191166173120E+02   -0.20829E-01   -0.26879E-01  4320   0.507E+00    0.119E+00
RMM:   2    -0.191114153069E+02    0.52020E-02   -0.10818E-02  4320   0.800E-01    0.360E-01
RMM:   3    -0.191108961565E+02    0.51915E-03   -0.10253E-03  4329   0.241E-01    0.224E-01
RMM:   4    -0.191108868174E+02    0.93391E-05   -0.65401E-04  4321   0.219E-01    0.424E-02
RMM:   5    -0.191109495270E+02   -0.62710E-04   -0.77085E-05  4329   0.119E-01    0.210E-02
RMM:   6    -0.191109688853E+02   -0.19358E-04   -0.51212E-05  4319   0.768E-02    0.179E-02
RMM:   7    -0.191109769823E+02   -0.80970E-05   -0.22861E-05  4308   0.545E-02    0.132E-02
RMM:   8    -0.191109796916E+02   -0.27093E-05   -0.11819E-05  4047   0.409E-02    0.312E-03
RMM:   9    -0.191109804465E+02   -0.75486E-06   -0.40558E-06  3189   0.246E-02
  12 F= -.19110980E+02 E0= -.19110753E+02  d E =-.372185E-01
 curvature:  -0.22 expect dE=-0.673E-03 dE for cont linesearch -0.568E-03
 ZBRENT: extrapolating
 opt :   0.4508  next Energy=   -19.111588 (dE=-0.378E-01)
 bond charge predicted
       N       E                     dE             d eps       ncg     rms          rms(c)
DAV:   1    -0.191119265881E+02   -0.94690E-03   -0.15600E-02  4336   0.122E+00    0.281E-01
RMM:   2    -0.191116218592E+02    0.30473E-03   -0.62118E-04  4320   0.193E-01    0.837E-02
RMM:   3    -0.191115897567E+02    0.32102E-04   -0.59457E-05  4330   0.582E-02    0.510E-02
RMM:   4    -0.191115867754E+02    0.29813E-05   -0.38246E-05  4320   0.534E-02    0.985E-03
RMM:   5    -0.191115898952E+02   -0.31198E-05   -0.47629E-06  3870   0.298E-02    0.504E-03
RMM:   6    -0.191115913531E+02   -0.14579E-05   -0.31530E-06  3084   0.202E-02    0.426E-03
RMM:   7    -0.191115920549E+02   -0.70185E-06   -0.15086E-06  2731   0.147E-02
  13 F= -.19111592E+02 E0= -.19111364E+02  d E =-.378301E-01
 curvature:  -0.24 expect dE=-0.513E-04 dE for cont linesearch -0.514E-06
 ZBRENT: extrapolating
 opt :   0.4525  next Energy=   -19.111593 (dE=-0.378E-01)
 bond charge predicted
       N       E                     dE             d eps       ncg     rms          rms(c)
DAV:   1    -0.191115932482E+02   -0.18951E-05   -0.17083E-05  4918   0.390E-02    0.905E-03
RMM:   2    -0.191115929002E+02    0.34800E-06   -0.62694E-07  2276   0.729E-03    0.238E-03
RMM:   3    -0.191115928129E+02    0.87296E-07   -0.11287E-07  2108   0.367E-03    0.192E-03
RMM:   4    -0.191115927529E+02    0.60001E-07   -0.13170E-07  2152   0.408E-03    0.730E-04
RMM:   5    -0.191115927778E+02   -0.24880E-07   -0.18552E-08  1056   0.185E-03
  14 F= -.19111593E+02 E0= -.19111365E+02  d E =-.378308E-01
 curvature:  -0.24 expect dE=-0.519E-04 dE for cont linesearch -0.579E-07
 ZBRENT: extrapolating
 opt :   0.4534  next Energy=   -19.111593 (dE=-0.378E-01)
 bond charge predicted
       N       E                     dE             d eps       ncg     rms          rms(c)
DAV:   1    -0.191115929369E+02   -0.18404E-06   -0.37510E-06  4334   0.187E-02    0.431E-03
RMM:   2    -0.191115928276E+02    0.10939E-06   -0.13406E-07  1932   0.321E-03    0.116E-03
RMM:   3    -0.191115927737E+02    0.53874E-07   -0.90895E-09  1028   0.167E-03    0.831E-04
RMM:   4    -0.191115927160E+02    0.57687E-07   -0.47827E-08  1246   0.232E-03    0.274E-04
RMM:   5    -0.191115927123E+02    0.37143E-08   -0.57100E-10   117   0.964E-04
  15 F= -.19111593E+02 E0= -.19111365E+02  d E =-.378308E-01
 curvature:  -0.36 expect dE=-0.775E-04 dE for cont linesearch -0.106E-07
 ZBRENT: bracketing found
 ZBRENT: interpolating
 opt :   0.4531  next Energy=   -19.111593 (dE=-0.378E-01)
 bond charge predicted
       N       E                     dE             d eps       ncg     rms          rms(c)
DAV:   1    -0.191115927342E+02   -0.18239E-07   -0.27852E-07  2178   0.522E-03    0.143E-03
RMM:   2    -0.191115927423E+02   -0.80200E-08   -0.15822E-08  1453   0.190E-03    0.420E-04
RMM:   3    -0.191115927573E+02   -0.15098E-07    0.18827-305    60   0.875E-04    0.250E-04
RMM:   4    -0.191115927741E+02   -0.16760E-07    0.00000E+00    16   0.926E-04    0.215E-05
RMM:   5    -0.191115927759E+02   -0.17998E-08    0.00000E+00    12   0.935E-04
  16 F= -.19111593E+02 E0= -.19111365E+02  d E =-.378308E-01
 curvature:  -0.27 expect dE=-0.581E-04 dE for cont linesearch -0.130E-12
 trial: gam=-0.00464 g(F)=  0.715E-43 g(S)=  0.213E-03 ort =-0.289E-06 (trialstep = 0.122E+00)
 search vector abs. value=  0.217E-03
 bond charge predicted
       N       E                     dE             d eps       ncg     rms          rms(c)
DAV:   1    -0.191116175178E+02   -0.24744E-04   -0.11697E-04  4416   0.914E-02    0.121E-02
RMM:   2    -0.191116171398E+02    0.37803E-06   -0.11841E-06  2669   0.111E-02    0.772E-03
RMM:   3    -0.191116169253E+02    0.21451E-06   -0.46728E-07  2216   0.633E-03    0.767E-04
RMM:   4    -0.191116169209E+02    0.43923E-08   -0.46713E-08  1346   0.196E-03    0.471E-04
RMM:   5    -0.191116169275E+02   -0.66307E-08   -0.29970E-08  1132   0.195E-03
  17 F= -.19111617E+02 E0= -.19111391E+02  d E =-.241516E-04
 ZBRENT: can't locate minimum, use default step
 trial-energy change:   -0.000024  1 .order   -0.000024   -0.000026   -0.000023
 step:   0.4885(harm=  0.9207)  dis= 0.00000  next Energy=   -19.111691 (dE=-0.982E-04)
 bond charge predicted
       N       E                     dE             d eps       ncg     rms          rms(c)
DAV:   1    -0.191116727716E+02   -0.55851E-04   -0.10502E-03  4420   0.273E-01    0.358E-02
RMM:   2    -0.191116701341E+02    0.26375E-05   -0.11403E-05  4181   0.333E-02    0.229E-02
RMM:   3    -0.191116689020E+02    0.12321E-05   -0.43887E-06  3862   0.193E-02    0.246E-03
RMM:   4    -0.191116689274E+02   -0.25416E-07   -0.21391E-07  2354   0.405E-03    0.177E-03
RMM:   5    -0.191116690381E+02   -0.11064E-06   -0.14282E-07  2130   0.455E-03
  18 F= -.19111669E+02 E0= -.19111447E+02  d E =-.762622E-04
 curvature:  -0.33 expect dE=-0.157E-04 dE for cont linesearch -0.155E-04
 trial: gam=-0.24893 g(F)=  0.993E-44 g(S)=  0.473E-04 ort = 0.101E-03 (trialstep = 0.195E+00)
 search vector abs. value=  0.106E-04
 reached required accuracy - stopping structural energy minimisation
 writing wavefunctions
 augmentation electrons   1.1625291566371043     
 soft         electrons   10.861946767167872     
 total        electrons   12.024475923804976     
 augmentation electrons   1.1625291566371043     
 soft         electrons   10.861946767167872     
 total        electrons   12.024475923804976     
 augmentation electrons   1.1625291566371043     
 soft         electrons   10.861946767167872     
 augmentation electrons   1.1625291566371043     
 soft         electrons   10.861946767167872     
 total        electrons   12.024475923804976     
 total        electrons   12.024475923804976     
