   72   72    1    1
  0.2168974E+02  0.1053953E-08  0.6141200E-09  0.2412750E-08  0.5000000E-15
   1.0000000000000000E-004
  CAR 
 Name                                    
    267     23    176

  0.3742002E-15  0.3742002E-15  0.1262379E-14  0.2222222E-01
    1      -13.808013   1.000000
    2      -12.753414   1.000000
    3      -12.538745   1.000000
    4      -12.373420   1.000000
    5      -11.804425   1.000000
    6      -11.605266   1.000000
    7      -11.536568   1.000000
    8      -11.267290   1.000000
    9      -11.238576   1.000000
   10      -11.124379   1.000000
   11      -11.012170   1.000000
   12      -10.846751   1.000000
   13      -10.620695   1.000000
   14      -10.305949   1.000000
   15      -10.184968   1.000000
   16      -10.108781   1.000000
   17       -9.969906   1.000000
   18       -9.958588   1.000000
   19       -9.704718   1.000000
   20       -9.644125   1.000000
   21       -9.396180   1.000000
   22       -9.371544   1.000000
   23       -9.299571   1.000000
   24       -9.132075   1.000000
   25       -8.833592   1.000000
   26       -8.751907   1.000000
   27       -8.526270   1.000000
   28       -8.259604   1.000000
   29       -8.164349   1.000000
   30       -8.051513   1.000000
   31       -7.871646   1.000000
   32       -7.849498   1.000000
   33       -7.504347   1.000000
   34       -7.315826   1.000000
   35       -7.259717   1.000000
   36       -7.104111   1.000000
   37       -7.015435   1.000000
   38       -6.775317   1.000000
   39       -6.718297   1.000000
   40       -6.685105   1.000000
   41       -6.575931   1.000000
   42       -6.531014   1.000000
   43       -6.347590   1.000000
   44       -6.298313   1.000000
   45       -6.120548   1.000000
   46       -6.046613   1.000000
   47       -6.028515   1.000000
   48       -5.980558   1.000000
   49       -5.894184   1.000000
   50       -5.778241   1.000000
   51       -5.689689   1.000000
   52       -5.656468   1.000000
   53       -5.470907   1.000000
   54       -5.442446   1.000000
   55       -5.414173   1.000000
   56       -5.384782   1.000000
   57       -5.200421   1.000000
   58       -5.169077   1.000000
   59       -5.104466   1.000000
   60       -5.031547   1.000000
   61       -4.987891   1.000000
   62       -4.944002   1.000000
   63       -4.720807   1.000000
   64       -4.625379   1.000000
   65       -4.605414   1.000000
   66       -4.569014   1.000000
   67       -4.484235   1.000000
   68       -4.462018   1.000000
   69       -4.336450   1.000000
   70       -4.297425   1.000000
   71       -4.268990   1.000000
   72       -4.173414   1.000000
   73       -4.101993   1.000000
   74       -4.022762   1.000000
   75       -3.995677   1.000000
   76       -3.907667   1.000000
   77       -3.851686   1.000000
   78       -3.837905   1.000000
   79       -3.787059   1.000000
   80       -3.706056   1.000000
   81       -3.656767   1.000000
   82       -3.558792   1.000000
   83       -3.532644   1.000000
   84       -3.500496   1.000000
   85       -3.425220   1.000000
   86       -3.381881   1.000000
   87       -3.268233   1.000000
   88       -3.251181   1.000000
   89       -3.205759   1.000000
   90       -3.078652   1.000000
   91       -3.033050   1.000000
   92       -2.972723   1.000000
   93       -2.920809   1.000000
   94       -2.811285   1.000000
   95       -2.742408   1.000000
   96       -2.679733   1.000000
   97       -2.545459   1.000000
   98       -2.444389   1.000000
   99       -2.439348   1.000000
  100       -2.366429   1.000000
  101       -2.347514   1.000000
  102       -2.247446   1.000000
  103       -2.209958   1.000000
  104       -2.196400   1.000000
  105       -2.163038   1.000000
  106       -2.112742   1.000000
  107       -2.065806   1.000000
  108       -2.019383   1.000000
  109       -1.975340   1.000000
  110       -1.865252   1.000000
  111       -1.790310   1.000000
  112       -1.754951   1.000000
  113       -1.669054   1.000000
  114       -1.614727   1.000000
  115       -1.481164   1.000000
  116       -1.415506   1.000000
  117       -1.383789   1.000000
  118       -1.168603   1.000000
  119       -1.083188   1.000000
  120       -1.036697   1.000000
  121       -0.982441   1.000000
  122       -0.891726   1.000000
  123       -0.666826   1.000000
  124       -0.543282   1.000000
  125       -0.438118   1.000013
  126       -0.400282   1.000040
  127       -0.336700   1.000237
  128       -0.196009   1.005248
  129       -0.065779   1.028845
  130       -0.037560   1.033940
  131        0.037167   1.020214
  132        0.133805   0.856002
  133        0.157385   0.781834
  134        0.175467   0.716965
  135        0.291299   0.249262
  136        0.369201   0.039402
  137        0.384545   0.015577
  138        0.421135  -0.020689
  139        0.499380  -0.033343
  140        0.636222  -0.007076
  141        0.718927  -0.001439
  142        0.730424  -0.001116
  143        0.809826  -0.000157
  144        0.834323  -0.000080
  145        0.936768  -0.000003
  146        1.024647  -0.000000
  147        1.075222  -0.000000
  148        1.127293  -0.000000
  149        1.172136  -0.000000
  150        1.217132  -0.000000
  151        1.251046  -0.000000
  152        1.311045  -0.000000
  153        1.341650  -0.000000
  154        1.357844  -0.000000
  155        1.363515  -0.000000
  156        1.387286  -0.000000
  157        1.489342  -0.000000
  158        1.515961  -0.000000
  159        1.548807  -0.000000
  160        1.596095  -0.000000
  161        1.616528  -0.000000
  162        1.625506  -0.000000
  163        1.637388  -0.000000
  164        1.662572  -0.000000
  165        1.704008  -0.000000
  166        1.747707  -0.000000
  167        1.831599  -0.000000
  168        1.880636  -0.000000
  169        1.977679  -0.000000
  170        2.058348  -0.000000
  171        2.135228  -0.000000
  172        2.347944  -0.000000
  173        2.407125  -0.000000
  174        2.573470  -0.000000
  175        2.872106  -0.000000
  176        3.662309  -0.000000

  0.2000000E+00  0.3742002E-15  0.1262379E-14  0.4444444E-01
    1      -13.780945   1.000000
    2      -12.878577   1.000000
    3      -12.639429   1.000000
    4      -12.067063   1.000000
    5      -11.892812   1.000000
    6      -11.802970   1.000000
    7      -11.298607   1.000000
    8      -11.251175   1.000000
    9      -11.138406   1.000000
   10      -11.065607   1.000000
   11      -10.979259   1.000000
   12      -10.849166   1.000000
   13      -10.599178   1.000000
   14      -10.453736   1.000000
   15      -10.325225   1.000000
   16      -10.142421   1.000000
   17      -10.097607   1.000000
   18       -9.993311   1.000000
   19       -9.751893   1.000000
   20       -9.639525   1.000000
   21       -9.437842   1.000000
   22       -9.394746   1.000000
   23       -9.242563   1.000000
   24       -9.086056   1.000000
   25       -8.826460   1.000000
   26       -8.710935   1.000000
   27       -8.306876   1.000000
   28       -8.189752   1.000000
   29       -8.078754   1.000000
   30       -7.981106   1.000000
   31       -7.939150   1.000000
   32       -7.804892   1.000000
   33       -7.431321   1.000000
   34       -7.358743   1.000000
   35       -7.316478   1.000000
   36       -7.142975   1.000000
   37       -7.080530   1.000000
   38       -6.858444   1.000000
   39       -6.726836   1.000000
   40       -6.704580   1.000000
   41       -6.671893   1.000000
   42       -6.521459   1.000000
   43       -6.494210   1.000000
   44       -6.370980   1.000000
   45       -6.238024   1.000000
   46       -6.104752   1.000000
   47       -5.928823   1.000000
   48       -5.847825   1.000000
   49       -5.809315   1.000000
   50       -5.766863   1.000000
   51       -5.691766   1.000000
   52       -5.649594   1.000000
   53       -5.614813   1.000000
   54       -5.403491   1.000000
   55       -5.360118   1.000000
   56       -5.301333   1.000000
   57       -5.216969   1.000000
   58       -5.128606   1.000000
   59       -5.030552   1.000000
   60       -4.991862   1.000000
   61       -4.930648   1.000000
   62       -4.858779   1.000000
   63       -4.830569   1.000000
   64       -4.676295   1.000000
   65       -4.592705   1.000000
   66       -4.521401   1.000000
   67       -4.486889   1.000000
   68       -4.411976   1.000000
   69       -4.332696   1.000000
   70       -4.294366   1.000000
   71       -4.239211   1.000000
   72       -4.140168   1.000000
   73       -4.068289   1.000000
   74       -4.019035   1.000000
   75       -4.004348   1.000000
   76       -3.919707   1.000000
   77       -3.873412   1.000000
   78       -3.852156   1.000000
   79       -3.800433   1.000000
   80       -3.727944   1.000000
   81       -3.704770   1.000000
   82       -3.638578   1.000000
   83       -3.586995   1.000000
   84       -3.519824   1.000000
   85       -3.411922   1.000000
   86       -3.354876   1.000000
   87       -3.352757   1.000000
   88       -3.209310   1.000000
   89       -3.195670   1.000000
   90       -3.109923   1.000000
   91       -3.020600   1.000000
   92       -3.002383   1.000000
   93       -2.878770   1.000000
   94       -2.791691   1.000000
   95       -2.735731   1.000000
   96       -2.683156   1.000000
   97       -2.566115   1.000000
   98       -2.534222   1.000000
   99       -2.473104   1.000000
  100       -2.367801   1.000000
  101       -2.329072   1.000000
  102       -2.308205   1.000000
  103       -2.234201   1.000000
  104       -2.201462   1.000000
  105       -2.136096   1.000000
  106       -2.083320   1.000000
  107       -2.011617   1.000000
  108       -1.975348   1.000000
  109       -1.879065   1.000000
  110       -1.846051   1.000000
  111       -1.759725   1.000000
  112       -1.681324   1.000000
  113       -1.606328   1.000000
  114       -1.563332   1.000000
  115       -1.465281   1.000000
  116       -1.416372   1.000000
  117       -1.359777   1.000000
  118       -1.154151   1.000000
  119       -1.085820   1.000000
  120       -1.044415   1.000000
  121       -0.995933   1.000000
  122       -0.944370   1.000000
  123       -0.747460   1.000000
  124       -0.573625   1.000000
  125       -0.536475   1.000000
  126       -0.426667   1.000018
  127       -0.397263   1.000044
  128       -0.312880   1.000434
  129       -0.143895   1.012116
  130       -0.087181   1.023999
  131        0.026167   1.026433
  132        0.079683   0.974765
  133        0.193637   0.646207
  134        0.218895   0.541792
  135        0.251509   0.404532
  136        0.311250   0.181778
  137        0.420576  -0.020327
  138        0.506021  -0.032266
  139        0.532329  -0.026855
  140        0.632119  -0.007573
  141        0.724249  -0.001281
  142        0.732143  -0.001074
  143        0.806674  -0.000171
  144        0.877332  -0.000023
  145        0.986156  -0.000001
  146        1.023164  -0.000000
  147        1.069686  -0.000000
  148        1.157325  -0.000000
  149        1.169386  -0.000000
  150        1.230654  -0.000000
  151        1.289718  -0.000000
  152        1.303457  -0.000000
  153        1.348081  -0.000000
  154        1.420082  -0.000000
  155        1.427076  -0.000000
  156        1.488582  -0.000000
  157        1.511155  -0.000000
  158        1.529271  -0.000000
  159        1.561021  -0.000000
  160        1.606460  -0.000000
  161        1.645099  -0.000000
  162        1.661859  -0.000000
  163        1.679892  -0.000000
  164        1.702344  -0.000000
  165        1.733860  -0.000000
  166        1.784758  -0.000000
  167        1.818396  -0.000000
  168        1.831377  -0.000000
  169        1.908188  -0.000000
  170        1.987292  -0.000000
  171        2.071314  -0.000000
  172        2.297269  -0.000000
  173        2.318011  -0.000000
  174        2.390546  -0.000000
  175        2.692327  -0.000000
  176        3.626011  -0.000000

  0.4000000E+00  0.3742002E-15  0.1262379E-14  0.4444444E-01
    1      -13.726600   1.000000
    2      -13.079820   1.000000
    3      -12.550492   1.000000
    4      -12.233324   1.000000
    5      -11.800584   1.000000
    6      -11.500573   1.000000
    7      -11.337550   1.000000
    8      -11.253249   1.000000
    9      -11.016097   1.000000
   10      -10.994462   1.000000
   11      -10.863510   1.000000
   12      -10.841645   1.000000
   13      -10.631115   1.000000
   14      -10.547696   1.000000
   15      -10.441939   1.000000
   16      -10.396404   1.000000
   17      -10.111716   1.000000
   18      -10.019105   1.000000
   19       -9.996701   1.000000
   20       -9.789499   1.000000
   21       -9.415508   1.000000
   22       -9.263772   1.000000
   23       -9.177911   1.000000
   24       -9.043538   1.000000
   25       -8.900565   1.000000
   26       -8.606012   1.000000
   27       -8.153796   1.000000
   28       -8.001965   1.000000
   29       -7.917714   1.000000
   30       -7.857944   1.000000
   31       -7.735319   1.000000
   32       -7.649133   1.000000
   33       -7.531690   1.000000
   34       -7.455734   1.000000
   35       -7.321046   1.000000
   36       -7.299186   1.000000
   37       -7.204677   1.000000
   38       -7.115808   1.000000
   39       -6.951031   1.000000
   40       -6.784288   1.000000
   41       -6.711476   1.000000
   42       -6.621445   1.000000
   43       -6.453308   1.000000
   44       -6.376471   1.000000
   45       -6.170058   1.000000
   46       -6.107088   1.000000
   47       -5.951549   1.000000
   48       -5.887330   1.000000
   49       -5.806604   1.000000
   50       -5.764457   1.000000
   51       -5.678977   1.000000
   52       -5.583377   1.000000
   53       -5.477469   1.000000
   54       -5.423502   1.000000
   55       -5.354830   1.000000
   56       -5.293742   1.000000
   57       -5.222425   1.000000
   58       -5.181707   1.000000
   59       -5.064435   1.000000
   60       -4.933244   1.000000
   61       -4.807923   1.000000
   62       -4.788113   1.000000
   63       -4.715971   1.000000
   64       -4.626762   1.000000
   65       -4.564547   1.000000
   66       -4.502005   1.000000
   67       -4.405582   1.000000
   68       -4.389423   1.000000
   69       -4.314422   1.000000
   70       -4.282363   1.000000
   71       -4.208357   1.000000
   72       -4.176447   1.000000
   73       -4.052143   1.000000
   74       -4.017750   1.000000
   75       -3.989910   1.000000
   76       -3.953265   1.000000
   77       -3.934676   1.000000
   78       -3.864320   1.000000
   79       -3.808960   1.000000
   80       -3.785993   1.000000
   81       -3.768801   1.000000
   82       -3.673242   1.000000
   83       -3.661020   1.000000
   84       -3.505117   1.000000
   85       -3.482574   1.000000
   86       -3.382089   1.000000
   87       -3.336943   1.000000
   88       -3.207523   1.000000
   89       -3.188411   1.000000
   90       -3.150966   1.000000
   91       -2.991478   1.000000
   92       -2.961242   1.000000
   93       -2.917857   1.000000
   94       -2.906472   1.000000
   95       -2.775350   1.000000
   96       -2.667675   1.000000
   97       -2.651851   1.000000
   98       -2.598299   1.000000
   99       -2.433790   1.000000
  100       -2.402538   1.000000
  101       -2.353247   1.000000
  102       -2.314308   1.000000
  103       -2.224871   1.000000
  104       -2.122572   1.000000
  105       -2.083715   1.000000
  106       -2.042544   1.000000
  107       -1.992863   1.000000
  108       -1.909012   1.000000
  109       -1.783790   1.000000
  110       -1.765910   1.000000
  111       -1.717269   1.000000
  112       -1.565220   1.000000
  113       -1.537688   1.000000
  114       -1.456933   1.000000
  115       -1.441293   1.000000
  116       -1.369044   1.000000
  117       -1.314231   1.000000
  118       -1.163342   1.000000
  119       -1.108947   1.000000
  120       -1.092774   1.000000
  121       -1.015809   1.000000
  122       -0.951449   1.000000
  123       -0.835850   1.000000
  124       -0.687757   1.000000
  125       -0.625392   1.000000
  126       -0.565009   1.000000
  127       -0.543847   1.000000
  128       -0.410334   1.000030
  129       -0.303242   1.000550
  130       -0.179935   1.006926
  131        0.040604   1.017858
  132        0.049682   1.010612
  133        0.175133   0.718217
  134        0.202730   0.609218
  135        0.254028   0.394126
  136        0.334928   0.113500
  137        0.443490  -0.031171
  138        0.477928  -0.035392
  139        0.555335  -0.021559
  140        0.669440  -0.003927
  141        0.706690  -0.001870
  142        0.775749  -0.000381
  143        0.860940  -0.000037
  144        0.877843  -0.000022
  145        1.032357  -0.000000
  146        1.051554  -0.000000
  147        1.100418  -0.000000
  148        1.173210  -0.000000
  149        1.260789  -0.000000
  150        1.314427  -0.000000
  151        1.331911  -0.000000
  152        1.348501  -0.000000
  153        1.413343  -0.000000
  154        1.441664  -0.000000
  155        1.517670  -0.000000
  156        1.526629  -0.000000
  157        1.547380  -0.000000
  158        1.561898  -0.000000
  159        1.608833  -0.000000
  160        1.631385  -0.000000
  161        1.675565  -0.000000
  162        1.709412  -0.000000
  163        1.726237  -0.000000
  164        1.752765  -0.000000
  165        1.788466  -0.000000
  166        1.809392  -0.000000
  167        1.852229  -0.000000
  168        1.873158  -0.000000
  169        2.009871  -0.000000
  170        2.056451  -0.000000
  171        2.089690  -0.000000
  172        2.184569  -0.000000
  173        2.311891  -0.000000
  174        2.367962  -0.000000
  175        2.634909  -0.000000
  176        3.101650  -0.000000

  0.3742002E-15  0.1111111E+00  0.1262379E-14  0.4444444E-01
    1      -13.762387   1.000000
    2      -12.712365   1.000000
    3      -12.503005   1.000000
    4      -12.342071   1.000000
    5      -11.885767   1.000000
    6      -11.575408   1.000000
    7      -11.507855   1.000000
    8      -11.308073   1.000000
    9      -11.268072   1.000000
   10      -11.165031   1.000000
   11      -10.988016   1.000000
   12      -10.862196   1.000000
   13      -10.652197   1.000000
   14      -10.317127   1.000000
   15      -10.172876   1.000000
   16      -10.107229   1.000000
   17       -9.988375   1.000000
   18       -9.948432   1.000000
   19       -9.698716   1.000000
   20       -9.612180   1.000000
   21       -9.421928   1.000000
   22       -9.371588   1.000000
   23       -9.290439   1.000000
   24       -9.139589   1.000000
   25       -8.853307   1.000000
   26       -8.730796   1.000000
   27       -8.516881   1.000000
   28       -8.263514   1.000000
   29       -8.169083   1.000000
   30       -8.062158   1.000000
   31       -7.877594   1.000000
   32       -7.712470   1.000000
   33       -7.591742   1.000000
   34       -7.351989   1.000000
   35       -7.285900   1.000000
   36       -7.157158   1.000000
   37       -7.074080   1.000000
   38       -6.770674   1.000000
   39       -6.740857   1.000000
   40       -6.635321   1.000000
   41       -6.533952   1.000000
   42       -6.483208   1.000000
   43       -6.343065   1.000000
   44       -6.261279   1.000000
   45       -6.106314   1.000000
   46       -6.075894   1.000000
   47       -5.998375   1.000000
   48       -5.959115   1.000000
   49       -5.931201   1.000000
   50       -5.788899   1.000000
   51       -5.706394   1.000000
   52       -5.633766   1.000000
   53       -5.508823   1.000000
   54       -5.447049   1.000000
   55       -5.358437   1.000000
   56       -5.296630   1.000000
   57       -5.204860   1.000000
   58       -5.173484   1.000000
   59       -5.064405   1.000000
   60       -4.981655   1.000000
   61       -4.969465   1.000000
   62       -4.914489   1.000000
   63       -4.712958   1.000000
   64       -4.640194   1.000000
   65       -4.593084   1.000000
   66       -4.572170   1.000000
   67       -4.487350   1.000000
   68       -4.412587   1.000000
   69       -4.349402   1.000000
   70       -4.317395   1.000000
   71       -4.275808   1.000000
   72       -4.211409   1.000000
   73       -4.138142   1.000000
   74       -4.096399   1.000000
   75       -3.936789   1.000000
   76       -3.889016   1.000000
   77       -3.868768   1.000000
   78       -3.825087   1.000000
   79       -3.771260   1.000000
   80       -3.739197   1.000000
   81       -3.669790   1.000000
   82       -3.586399   1.000000
   83       -3.543392   1.000000
   84       -3.494318   1.000000
   85       -3.444599   1.000000
   86       -3.367522   1.000000
   87       -3.273457   1.000000
   88       -3.216491   1.000000
   89       -3.208024   1.000000
   90       -3.120591   1.000000
   91       -3.024549   1.000000
   92       -2.981094   1.000000
   93       -2.943073   1.000000
   94       -2.899870   1.000000
   95       -2.785723   1.000000
   96       -2.711822   1.000000
   97       -2.626033   1.000000
   98       -2.559265   1.000000
   99       -2.427784   1.000000
  100       -2.388286   1.000000
  101       -2.351570   1.000000
  102       -2.275119   1.000000
  103       -2.248565   1.000000
  104       -2.218673   1.000000
  105       -2.155639   1.000000
  106       -2.118142   1.000000
  107       -2.052801   1.000000
  108       -2.040095   1.000000
  109       -1.946985   1.000000
  110       -1.866911   1.000000
  111       -1.777656   1.000000
  112       -1.727820   1.000000
  113       -1.625507   1.000000
  114       -1.565436   1.000000
  115       -1.440479   1.000000
  116       -1.383502   1.000000
  117       -1.339255   1.000000
  118       -1.177853   1.000000
  119       -1.073154   1.000000
  120       -0.994563   1.000000
  121       -0.969775   1.000000
  122       -0.788903   1.000000
  123       -0.672656   1.000000
  124       -0.591864   1.000000
  125       -0.485652   1.000003
  126       -0.436033   1.000014
  127       -0.295558   1.000661
  128       -0.240668   1.002229
  129       -0.161040   1.009390
  130       -0.120266   1.016621
  131        0.036071   1.020922
  132        0.081368   0.972157
  133        0.171517   0.731658
  134        0.214485   0.560338
  135        0.303495   0.206999
  136        0.395326   0.002052
  137        0.429402  -0.025445
  138        0.473069  -0.035456
  139        0.532199  -0.026884
  140        0.595015  -0.013263
  141        0.705254  -0.001927
  142        0.772193  -0.000416
  143        0.795603  -0.000229
  144        0.896027  -0.000013
  145        0.919760  -0.000006
  146        0.985860  -0.000001
  147        1.101225  -0.000000
  148        1.126002  -0.000000
  149        1.135541  -0.000000
  150        1.195048  -0.000000
  151        1.250739  -0.000000
  152        1.290793  -0.000000
  153        1.320956  -0.000000
  154        1.379736  -0.000000
  155        1.419973  -0.000000
  156        1.477154  -0.000000
  157        1.487024  -0.000000
  158        1.507830  -0.000000
  159        1.530971  -0.000000
  160        1.536530  -0.000000
  161        1.570228  -0.000000
  162        1.603528  -0.000000
  163        1.657710  -0.000000
  164        1.668186  -0.000000
  165        1.717018  -0.000000
  166        1.766553  -0.000000
  167        1.796144  -0.000000
  168        1.829427  -0.000000
  169        1.899126  -0.000000
  170        2.024149  -0.000000
  171        2.097154  -0.000000
  172        2.119528  -0.000000
  173        2.367004  -0.000000
  174        2.378237  -0.000000
  175        2.462338  -0.000000
  176        3.061515  -0.000000

  0.2000000E+00  0.1111111E+00  0.1262379E-14  0.4444444E-01
    1      -13.735582   1.000000
    2      -12.838926   1.000000
    3      -12.601367   1.000000
    4      -12.034404   1.000000
    5      -11.888552   1.000000
    6      -11.857326   1.000000
    7      -11.351288   1.000000
    8      -11.285642   1.000000
    9      -11.113087   1.000000
   10      -11.088289   1.000000
   11      -10.954988   1.000000
   12      -10.870808   1.000000
   13      -10.624235   1.000000
   14      -10.441132   1.000000
   15      -10.327631   1.000000
   16      -10.151929   1.000000
   17      -10.079755   1.000000
   18      -10.013839   1.000000
   19       -9.743871   1.000000
   20       -9.633454   1.000000
   21       -9.439316   1.000000
   22       -9.398387   1.000000
   23       -9.238973   1.000000
   24       -9.094106   1.000000
   25       -8.822367   1.000000
   26       -8.702111   1.000000
   27       -8.297959   1.000000
   28       -8.195294   1.000000
   29       -8.098292   1.000000
   30       -8.000490   1.000000
   31       -7.925281   1.000000
   32       -7.677269   1.000000
   33       -7.504709   1.000000
   34       -7.432505   1.000000
   35       -7.313385   1.000000
   36       -7.185724   1.000000
   37       -7.105055   1.000000
   38       -6.853998   1.000000
   39       -6.767003   1.000000
   40       -6.676122   1.000000
   41       -6.614256   1.000000
   42       -6.505218   1.000000
   43       -6.426406   1.000000
   44       -6.355253   1.000000
   45       -6.253099   1.000000
   46       -6.146448   1.000000
   47       -5.976261   1.000000
   48       -5.890117   1.000000
   49       -5.815430   1.000000
   50       -5.736707   1.000000
   51       -5.669786   1.000000
   52       -5.603124   1.000000
   53       -5.565116   1.000000
   54       -5.404373   1.000000
   55       -5.376298   1.000000
   56       -5.295280   1.000000
   57       -5.135833   1.000000
   58       -5.101567   1.000000
   59       -5.035853   1.000000
   60       -4.975528   1.000000
   61       -4.896606   1.000000
   62       -4.833176   1.000000
   63       -4.790579   1.000000
   64       -4.700378   1.000000
   65       -4.593682   1.000000
   66       -4.487011   1.000000
   67       -4.460456   1.000000
   68       -4.382003   1.000000
   69       -4.354525   1.000000
   70       -4.290831   1.000000
   71       -4.246571   1.000000
   72       -4.174225   1.000000
   73       -4.124706   1.000000
   74       -4.082461   1.000000
   75       -3.976045   1.000000
   76       -3.938133   1.000000
   77       -3.874939   1.000000
   78       -3.841903   1.000000
   79       -3.807635   1.000000
   80       -3.731056   1.000000
   81       -3.668947   1.000000
   82       -3.650914   1.000000
   83       -3.600603   1.000000
   84       -3.502578   1.000000
   85       -3.453250   1.000000
   86       -3.369778   1.000000
   87       -3.314807   1.000000
   88       -3.241064   1.000000
   89       -3.190729   1.000000
   90       -3.123921   1.000000
   91       -3.056069   1.000000
   92       -2.971317   1.000000
   93       -2.950612   1.000000
   94       -2.831209   1.000000
   95       -2.786724   1.000000
   96       -2.721530   1.000000
   97       -2.641698   1.000000
   98       -2.536669   1.000000
   99       -2.506608   1.000000
  100       -2.428624   1.000000
  101       -2.361423   1.000000
  102       -2.318588   1.000000
  103       -2.256487   1.000000
  104       -2.176661   1.000000
  105       -2.110296   1.000000
  106       -2.064684   1.000000
  107       -2.026549   1.000000
  108       -1.981766   1.000000
  109       -1.919150   1.000000
  110       -1.898091   1.000000
  111       -1.732181   1.000000
  112       -1.652547   1.000000
  113       -1.572457   1.000000
  114       -1.516876   1.000000
  115       -1.452677   1.000000
  116       -1.379381   1.000000
  117       -1.326555   1.000000
  118       -1.183876   1.000000
  119       -1.119302   1.000000
  120       -1.034807   1.000000
  121       -1.011769   1.000000
  122       -0.871584   1.000000
  123       -0.680907   1.000000
  124       -0.626340   1.000000
  125       -0.524814   1.000001
  126       -0.487460   1.000003
  127       -0.363785   1.000115
  128       -0.221758   1.003252
  129       -0.187911   1.006048
  130       -0.132446   1.014196
  131        0.003857   1.033695
  132        0.070921   0.987264
  133        0.162679   0.763498
  134        0.231129   0.490082
  135        0.266186   0.344771
  136        0.338956   0.103259
  137        0.436635  -0.028736
  138        0.453564  -0.033667
  139        0.603245  -0.011811
  140        0.654137  -0.005196
  141        0.697111  -0.002281
  142        0.782792  -0.000319
  143        0.796682  -0.000223
  144        0.912581  -0.000007
  145        0.977030  -0.000001
  146        1.013158  -0.000000
  147        1.090440  -0.000000
  148        1.133411  -0.000000
  149        1.170018  -0.000000
  150        1.224869  -0.000000
  151        1.292559  -0.000000
  152        1.325319  -0.000000
  153        1.357940  -0.000000
  154        1.396218  -0.000000
  155        1.445105  -0.000000
  156        1.478550  -0.000000
  157        1.509627  -0.000000
  158        1.529333  -0.000000
  159        1.539093  -0.000000
  160        1.568564  -0.000000
  161        1.593149  -0.000000
  162        1.623414  -0.000000
  163        1.636556  -0.000000
  164        1.666879  -0.000000
  165        1.712720  -0.000000
  166        1.754715  -0.000000
  167        1.793870  -0.000000
  168        1.839221  -0.000000
  169        1.911478  -0.000000
  170        1.989673  -0.000000
  171        2.021487  -0.000000
  172        2.059827  -0.000000
  173        2.120571  -0.000000
  174        2.195646  -0.000000
  175        2.334623  -0.000000
  176        2.396332  -0.000000

  0.4000000E+00  0.1111111E+00  0.1262379E-14  0.4444444E-01
    1      -13.681791   1.000000
    2      -13.039060   1.000000
    3      -12.513306   1.000000
    4      -12.195716   1.000000
    5      -11.875924   1.000000
    6      -11.493742   1.000000
    7      -11.386725   1.000000
    8      -11.285696   1.000000
    9      -11.012075   1.000000
   10      -10.985171   1.000000
   11      -10.884819   1.000000