   49   49    1    1
  0.2411350E+02  0.8645320E-09  0.6085000E-09  0.2593596E-08  0.5000000E-15
   1.0000000000000000E-004
  CAR 
 Name                                    
    189    149    120

  0.3742002E-15  0.3742002E-15  0.3742002E-15  0.3367003E-02
    1      -14.007134   1.000000
    2      -12.603917   1.000000
    3      -12.523810   1.000000
    4      -11.973390   1.000000
    5      -11.536958   1.000000
    6      -11.246529   1.000000
    7      -11.205584   1.000000
    8      -11.162759   1.000000
    9      -11.016414   1.000000
   10      -10.721699   1.000000
   11      -10.719022   1.000000
   12      -10.353051   1.000000
   13      -10.162894   1.000000
   14      -10.158221   1.000000
   15       -9.778503   1.000000
   16       -9.770179   1.000000
   17       -9.182466   1.000000
   18       -8.865449   1.000000
   19       -8.853016   1.000000
   20       -8.710184   1.000000
   21       -8.557798   1.000000
   22       -8.261821   1.000000
   23       -8.210797   1.000000
   24       -8.090437   1.000000
   25       -8.067335   1.000000
   26       -8.004389   1.000000
   27       -7.341524   1.000000
   28       -7.227190   1.000000
   29       -6.771415   1.000000
   30       -6.561526   1.000000
   31       -6.538567   1.000000
   32       -6.292149   1.000000
   33       -6.034969   1.000000
   34       -5.844306   1.000000
   35       -5.649856   1.000000
   36       -5.597535   1.000000
   37       -5.523274   1.000000
   38       -5.496310   1.000000
   39       -5.375228   1.000000
   40       -5.225715   1.000000
   41       -5.164220   1.000000
   42       -5.083327   1.000000
   43       -5.006288   1.000000
   44       -4.884628   1.000000
   45       -4.855043   1.000000
   46       -4.790236   1.000000
   47       -4.646040   1.000000
   48       -4.618680   1.000000
   49       -4.582508   1.000000
   50       -4.563978   1.000000
   51       -4.457491   1.000000
   52       -4.435402   1.000000
   53       -4.394679   1.000000
   54       -4.327961   1.000000
   55       -4.198421   1.000000
   56       -4.091652   1.000000
   57       -4.075961   1.000000
   58       -4.033734   1.000000
   59       -4.014016   1.000000
   60       -3.866904   1.000000
   61       -3.626118   1.000000
   62       -3.471039   1.000000
   63       -3.436490   1.000000
   64       -3.431762   1.000000
   65       -3.389073   1.000000
   66       -3.347775   1.000000
   67       -3.308316   1.000000
   68       -3.273648   1.000000
   69       -3.223699   1.000000
   70       -3.150229   1.000000
   71       -3.063118   1.000000
   72       -2.711976   1.000000
   73       -2.651613   1.000000
   74       -2.512463   1.000000
   75       -2.403602   1.000000
   76       -2.305232   1.000000
   77       -2.275525   1.000000
   78       -2.225355   1.000000
   79       -2.196946   1.000000
   80       -2.034885   1.000000
   81       -1.780776   1.000000
   82       -1.585169   1.000000
   83       -1.362840   1.000000
   84       -1.185282   1.000000
   85       -1.135013   1.000000
   86       -1.068357   1.000000
   87       -0.984863   1.000000
   88       -0.899957   1.000000
   89       -0.647143   1.000000
   90       -0.373362   1.000000
   91       -0.339975   1.000000
   92       -0.032597   1.001349
   93        0.028535   0.694285
   94        0.046542   0.547904
   95        0.195366  -0.030564
   96        0.218467  -0.020207
   97        0.250816  -0.008362
   98        0.534149  -0.000000
   99        0.556089  -0.000000
  100        0.621429  -0.000000
  101        0.660240  -0.000000
  102        0.791063  -0.000000
  103        0.800379  -0.000000
  104        0.834883  -0.000000
  105        0.886623  -0.000000
  106        1.091136  -0.000000
  107        1.246720  -0.000000
  108        1.297894  -0.000000
  109        1.328303  -0.000000
  110        1.413671  -0.000000
  111        1.434088  -0.000000
  112        1.459760  -0.000000
  113        1.506309  -0.000000
  114        1.635366  -0.000000
  115        1.648765  -0.000000
  116        1.736414  -0.000000
  117        1.854792  -0.000000
  118        1.910179  -0.000000
  119        2.084007  -0.000000
  120        2.848182   0.000000

  0.1111111E+00  0.3729374E-15  0.3860503E-15  0.6734007E-02
    1      -13.980169   1.000000
    2      -12.638302   1.000000
    3      -12.578179   1.000000
    4      -11.917017   1.000000
    5      -11.522627   1.000000
    6      -11.233974   1.000000
    7      -11.203226   1.000000
    8      -11.154934   1.000000
    9      -11.053961   1.000000
   10      -10.717656   1.000000
   11      -10.714572   1.000000
   12      -10.371909   1.000000
   13      -10.160926   1.000000
   14      -10.154795   1.000000
   15       -9.765354   1.000000
   16       -9.755220   1.000000
   17       -9.165424   1.000000
   18       -8.867873   1.000000
   19       -8.856232   1.000000
   20       -8.697317   1.000000
   21       -8.570226   1.000000
   22       -8.317586   1.000000
   23       -8.266629   1.000000
   24       -8.110557   1.000000
   25       -8.045186   1.000000
   26       -8.010049   1.000000
   27       -7.446256   1.000000
   28       -7.220409   1.000000
   29       -6.695829   1.000000
   30       -6.526496   1.000000
   31       -6.511271   1.000000
   32       -6.238652   1.000000
   33       -6.009248   1.000000
   34       -5.898073   1.000000
   35       -5.655975   1.000000
   36       -5.599501   1.000000
   37       -5.503151   1.000000
   38       -5.441249   1.000000
   39       -5.384067   1.000000
   40       -5.255686   1.000000
   41       -5.142992   1.000000
   42       -5.056715   1.000000
   43       -5.000002   1.000000
   44       -4.866134   1.000000
   45       -4.821753   1.000000
   46       -4.771696   1.000000
   47       -4.681603   1.000000
   48       -4.608187   1.000000
   49       -4.565452   1.000000
   50       -4.551762   1.000000
   51       -4.454538   1.000000
   52       -4.427386   1.000000
   53       -4.373943   1.000000
   54       -4.312553   1.000000
   55       -4.195275   1.000000
   56       -4.116765   1.000000
   57       -4.079859   1.000000
   58       -4.027132   1.000000
   59       -4.016835   1.000000
   60       -3.850786   1.000000
   61       -3.659058   1.000000
   62       -3.486590   1.000000
   63       -3.431664   1.000000
   64       -3.411501   1.000000
   65       -3.397988   1.000000
   66       -3.348780   1.000000
   67       -3.302507   1.000000
   68       -3.271468   1.000000
   69       -3.196604   1.000000
   70       -3.131655   1.000000
   71       -3.104610   1.000000
   72       -2.786456   1.000000
   73       -2.629702   1.000000
   74       -2.508816   1.000000
   75       -2.395467   1.000000
   76       -2.360480   1.000000
   77       -2.325422   1.000000
   78       -2.266959   1.000000
   79       -2.207015   1.000000
   80       -2.051029   1.000000
   81       -1.676396   1.000000
   82       -1.630935   1.000000
   83       -1.389993   1.000000
   84       -1.234166   1.000000
   85       -1.109102   1.000000
   86       -1.033931   1.000000
   87       -0.956954   1.000000
   88       -0.802905   1.000000
   89       -0.675209   1.000000
   90       -0.442733   1.000000
   91       -0.398602   1.000000
   92       -0.027596   0.989557
   93        0.077225   0.295492
   94        0.104713   0.116481
   95        0.147932  -0.020095
   96        0.219133  -0.019908
   97        0.226240  -0.016828
   98        0.535592  -0.000000
   99        0.561536  -0.000000
  100        0.605493  -0.000000
  101        0.696253  -0.000000
  102        0.803408  -0.000000
  103        0.827440  -0.000000
  104        0.849580  -0.000000
  105        0.905937  -0.000000
  106        1.109782  -0.000000
  107        1.249207  -0.000000
  108        1.277783  -0.000000
  109        1.364790  -0.000000
  110        1.421369  -0.000000
  111        1.451366  -0.000000
  112        1.478595  -0.000000
  113        1.531111  -0.000000
  114        1.648442  -0.000000
  115        1.672957  -0.000000
  116        1.748866  -0.000000
  117        1.851517  -0.000000
  118        1.975045  -0.000000
  119        2.526271  -0.000000
  120        3.368422   0.000000

  0.2222222E+00  0.3922785E-15  0.3630220E-15  0.6734007E-02
    1      -13.900055   1.000000
    2      -12.871025   1.000000
    3      -12.507345   1.000000
    4      -11.868797   1.000000
    5      -11.482340   1.000000
    6      -11.226936   1.000000
    7      -11.187971   1.000000
    8      -11.140745   1.000000
    9      -11.089166   1.000000
   10      -10.705857   1.000000
   11      -10.701957   1.000000
   12      -10.445577   1.000000
   13      -10.160501   1.000000
   14      -10.152585   1.000000
   15       -9.723931   1.000000
   16       -9.708040   1.000000
   17       -9.122609   1.000000
   18       -8.864660   1.000000
   19       -8.841682   1.000000
   20       -8.674570   1.000000
   21       -8.618233   1.000000
   22       -8.449056   1.000000
   23       -8.383905   1.000000
   24       -8.190642   1.000000
   25       -8.129586   1.000000
   26       -7.849141   1.000000
   27       -7.667467   1.000000
   28       -7.183326   1.000000
   29       -6.560621   1.000000
   30       -6.470108   1.000000
   31       -6.435182   1.000000
   32       -6.215003   1.000000
   33       -6.027749   1.000000
   34       -5.922819   1.000000
   35       -5.633622   1.000000
   36       -5.578083   1.000000
   37       -5.516660   1.000000
   38       -5.318644   1.000000
   39       -5.292630   1.000000
   40       -5.230680   1.000000
   41       -5.114338   1.000000
   42       -4.998214   1.000000
   43       -4.970910   1.000000
   44       -4.956032   1.000000
   45       -4.847562   1.000000
   46       -4.701557   1.000000
   47       -4.658375   1.000000
   48       -4.589199   1.000000
   49       -4.539230   1.000000
   50       -4.507221   1.000000
   51       -4.435056   1.000000
   52       -4.405940   1.000000
   53       -4.338297   1.000000
   54       -4.269809   1.000000
   55       -4.196941   1.000000
   56       -4.125337   1.000000
   57       -4.110892   1.000000
   58       -4.005056   1.000000
   59       -3.984165   1.000000
   60       -3.824905   1.000000
   61       -3.743617   1.000000
   62       -3.535787   1.000000
   63       -3.464669   1.000000
   64       -3.416427   1.000000
   65       -3.366236   1.000000
   66       -3.351933   1.000000
   67       -3.284081   1.000000
   68       -3.262473   1.000000
   69       -3.216163   1.000000
   70       -3.140942   1.000000
   71       -3.027989   1.000000
   72       -2.912545   1.000000
   73       -2.577908   1.000000
   74       -2.546170   1.000000
   75       -2.515398   1.000000
   76       -2.468709   1.000000
   77       -2.413188   1.000000
   78       -2.308217   1.000000
   79       -2.253418   1.000000
   80       -2.012631   1.000000
   81       -1.774030   1.000000
   82       -1.480521   1.000000
   83       -1.431360   1.000000
   84       -1.319619   1.000000
   85       -1.051285   1.000000
   86       -0.973143   1.000000
   87       -0.876441   1.000000
   88       -0.763379   1.000000
   89       -0.585870   1.000000
   90       -0.557397   1.000000
   91       -0.508996   1.000000
   92       -0.095406   1.028700
   93        0.090035   0.203887
   94        0.128627   0.019704
   95        0.146286  -0.017834
   96        0.224751  -0.017455
   97        0.395590  -0.000007
   98        0.483206  -0.000000
   99        0.527934  -0.000000
  100        0.557228  -0.000000
  101        0.721805  -0.000000
  102        0.866695  -0.000000
  103        0.882591  -0.000000
  104        0.904255  -0.000000
  105        0.976815  -0.000000
  106        1.187165  -0.000000
  107        1.203780  -0.000000
  108        1.301111  -0.000000
  109        1.402900  -0.000000
  110        1.456050  -0.000000
  111        1.465507  -0.000000
  112        1.543990  -0.000000
  113        1.580174  -0.000000
  114        1.635683  -0.000000
  115        1.698210  -0.000000
  116        1.753562  -0.000000
  117        1.793383  -0.000000
  118        1.970268  -0.000000
  119        1.983470  -0.000000
  120        2.397461  -0.000000

  0.3333333E+00  0.3713828E-15  0.3468587E-15  0.6734007E-02
    1      -13.769203   1.000000
    2      -13.128756   1.000000
    3      -12.393085   1.000000
    4      -11.931871   1.000000
    5      -11.425452   1.000000
    6      -11.248300   1.000000
    7      -11.163281   1.000000
    8      -11.140010   1.000000
    9      -11.022538   1.000000
   10      -10.689432   1.000000
   11      -10.684981   1.000000
   12      -10.572937   1.000000
   13      -10.168921   1.000000
   14      -10.160241   1.000000
   15       -9.658326   1.000000
   16       -9.632776   1.000000
   17       -9.086530   1.000000
   18       -8.866394   1.000000
   19       -8.799069   1.000000
   20       -8.698787   1.000000
   21       -8.663185   1.000000
   22       -8.549579   1.000000
   23       -8.475904   1.000000
   24       -8.285781   1.000000
   25       -8.231454   1.000000
   26       -7.928494   1.000000
   27       -7.605432   1.000000
   28       -7.082670   1.000000
   29       -6.573863   1.000000
   30       -6.478821   1.000000
   31       -6.406730   1.000000
   32       -6.321692   1.000000
   33       -5.955560   1.000000
   34       -5.804559   1.000000
   35       -5.628761   1.000000
   36       -5.468501   1.000000
   37       -5.439907   1.000000
   38       -5.262584   1.000000
   39       -5.209745   1.000000
   40       -5.183032   1.000000
   41       -5.149537   1.000000
   42       -5.032492   1.000000
   43       -4.953298   1.000000
   44       -4.930560   1.000000
   45       -4.820693   1.000000
   46       -4.682966   1.000000
   47       -4.643299   1.000000
   48       -4.544946   1.000000
   49       -4.504376   1.000000
   50       -4.472213   1.000000
   51       -4.424141   1.000000
   52       -4.366135   1.000000
   53       -4.302396   1.000000
   54       -4.232166   1.000000
   55       -4.180675   1.000000
   56       -4.143755   1.000000
   57       -4.051791   1.000000
   58       -3.980020   1.000000
   59       -3.931372   1.000000
   60       -3.878889   1.000000
   61       -3.729727   1.000000
   62       -3.640879   1.000000
   63       -3.483710   1.000000
   64       -3.472918   1.000000
   65       -3.412667   1.000000
   66       -3.348379   1.000000
   67       -3.334102   1.000000
   68       -3.233696   1.000000
   69       -3.216884   1.000000
   70       -3.067668   1.000000
   71       -2.953583   1.000000
   72       -2.894333   1.000000
   73       -2.737214   1.000000
   74       -2.707747   1.000000
   75       -2.578652   1.000000
   76       -2.509367   1.000000
   77       -2.452710   1.000000
   78       -2.381724   1.000000
   79       -2.288362   1.000000
   80       -1.955829   1.000000
   81       -1.840120   1.000000
   82       -1.586326   1.000000
   83       -1.476367   1.000000
   84       -1.167782   1.000000
   85       -1.053336   1.000000
   86       -0.873170   1.000000
   87       -0.822891   1.000000
   88       -0.789009   1.000000
   89       -0.719576   1.000000
   90       -0.570761   1.000000
   91       -0.295939   1.000005
   92       -0.247111   1.000097
   93        0.088793   0.212199
   94        0.129519   0.017167
   95        0.158777  -0.030667
   96        0.317517  -0.000569
   97        0.353213  -0.000088
   98        0.407188  -0.000003
   99        0.476624  -0.000000
  100        0.664284  -0.000000
  101        0.887743  -0.000000
  102        0.907999  -0.000000
  103        0.927200  -0.000000
  104        0.963101  -0.000000
  105        1.028341  -0.000000
  106        1.081057  -0.000000
  107        1.337377  -0.000000
  108        1.383676  -0.000000
  109        1.427678  -0.000000
  110        1.445906  -0.000000
  111        1.532014  -0.000000
  112        1.565140  -0.000000
  113        1.589316  -0.000000
  114        1.703130  -0.000000
  115        1.730350  -0.000000
  116        1.819597  -0.000000
  117        1.856529  -0.000000
  118        1.924895  -0.000000
  119        1.968986  -0.000000
  120        2.550412  -0.000000

  0.4444444E+00  0.3870091E-15  0.3932070E-15  0.6734007E-02
    1      -13.591948   1.000000
    2      -13.374831   1.000000
    3      -12.245788   1.000000
    4      -12.076213   1.000000
    5      -11.374943   1.000000
    6      -11.265840   1.000000
    7      -11.150471   1.000000
    8      -11.136043   1.000000
    9      -10.913085   1.000000
   10      -10.722309   1.000000
   11      -10.674290   1.000000
   12      -10.666502   1.000000
   13      -10.179881   1.000000
   14      -10.170923   1.000000
   15       -9.599679   1.000000
   16       -9.563498   1.000000
   17       -9.071700   1.000000
   18       -8.912744   1.000000
   19       -8.820896   1.000000
   20       -8.716258   1.000000
   21       -8.667367   1.000000
   22       -8.559636   1.000000
   23       -8.446848   1.000000
   24       -8.340386   1.000000
   25       -8.293723   1.000000
   26       -8.177993   1.000000
   27       -7.307033   1.000000
   28       -7.018128   1.000000
   29       -6.857723   1.000000
   30       -6.460557   1.000000
   31       -6.400107   1.000000
   32       -6.353384   1.000000
   33       -5.875484   1.000000
   34       -5.636318   1.000000
   35       -5.535520   1.000000
   36       -5.447101   1.000000
   37       -5.379039   1.000000
   38       -5.326791   1.000000
   39       -5.270197   1.000000
   40       -5.193273   1.000000
   41       -5.175419   1.000000
   42       -4.976318   1.000000
   43       -4.890446   1.000000
   44       -4.852482   1.000000
   45       -4.753443   1.000000
   46       -4.724922   1.000000
   47       -4.649009   1.000000
   48       -4.550710   1.000000
   49       -4.514185   1.000000
   50       -4.415226   1.000000
   51       -4.376276   1.000000
   52       -4.324461   1.000000
   53       -4.314446   1.000000
   54       -4.260628   1.000000
   55       -4.126930   1.000000
   56       -4.099335   1.000000
   57       -4.067161   1.000000
   58       -3.966649   1.000000
   59       -3.869465   1.000000
   60       -3.839178   1.000000
   61       -3.760821   1.000000
   62       -3.694418   1.000000
   63       -3.599912   1.000000
   64       -3.467063   1.000000
   65       -3.462562   1.000000
   66       -3.324958   1.000000
   67       -3.317783   1.000000
   68       -3.224176   1.000000
   69       -3.217557   1.000000
   70       -3.010499   1.000000
   71       -2.974733   1.000000
   72       -2.894211   1.000000
   73       -2.812121   1.000000
   74       -2.739798   1.000000
   75       -2.681080   1.000000
   76       -2.620773   1.000000
   77       -2.438080   1.000000
   78       -2.365837   1.000000
   79       -2.264002   1.000000
   80       -2.126191   1.000000
   81       -1.687184   1.000000
   82       -1.653765   1.000000
   83       -1.525712   1.000000
   84       -1.236867   1.000000
   85       -1.009339   1.000000
   86       -0.889287   1.000000
   87       -0.836627   1.000000
   88       -0.762809   1.000000
   89       -0.572645   1.000000
   90       -0.505397   1.000000
   91       -0.428136   1.000000
   92       -0.165475   1.004333
   93        0.065087   0.392046
   94        0.130770   0.013735
   95        0.163209  -0.033097
   96        0.273413  -0.003800
   97        0.299188  -0.001324
   98        0.401227  -0.000005
   99        0.606804  -0.000000
  100        0.640430  -0.000000
  101        0.817470  -0.000000
  102        0.930254  -0.000000
  103        0.953021  -0.000000
  104        0.988014  -0.000000
  105        1.206419  -0.000000
  106        1.258856  -0.000000
  107        1.326512  -0.000000
  108        1.425355  -0.000000
  109        1.457884  -0.000000
  110        1.509350  -0.000000
  111        1.550369  -0.000000
  112        1.574125  -0.000000
  113        1.605378  -0.000000
  114        1.639283  -0.000000
  115        1.682130  -0.000000
  116        1.824433  -0.000000
  117        1.856101  -0.000000
  118        1.952393  -0.000000
  119        2.035957  -0.000000
  120        2.267003  -0.000000

  0.3742002E-15  0.9090909E-01  0.3596334E-15  0.6734007E-02
    1      -13.974024   1.000000
    2      -12.575185   1.000000
    3      -12.528038   1.000000
    4      -11.941731   1.000000
    5      -11.516167   1.000000
    6      -11.383455   1.000000
    7      -11.341280   1.000000
    8      -11.189929   1.000000
    9      -11.022894   1.000000
   10      -10.712531   1.000000
   11      -10.693268   1.000000
   12      -10.340440   1.000000
   13      -10.117721   1.000000
   14      -10.107203   1.000000
   15       -9.790023   1.000000
   16       -9.746879   1.000000
   17       -9.165243   1.000000
   18       -9.008185   1.000000
   19       -8.946368   1.000000
   20       -8.669492   1.000000
   21       -8.582098   1.000000
   22       -8.131521   1.000000
   23       -8.034298   1.000000
   24       -8.008541   1.000000
   25       -7.942007   1.000000
   26       -7.887110   1.000000
   27       -7.400198   1.000000
   28       -7.193761   1.000000
   29       -6.730764   1.000000
   30       -6.591083   1.000000
   31       -6.530805   1.000000
   32       -6.272339   1.000000
   33       -6.059058   1.000000
   34       -5.886624   1.000000
   35       -5.658862   1.000000
   36       -5.596227   1.000000
   37       -5.476411   1.000000
   38       -5.444118   1.000000
   39       -5.384312   1.000000
   40       -5.254344   1.000000
   41       -5.207694   1.000000
   42       -5.089661   1.000000
   43       -5.055376   1.000000
   44       -5.008118   1.000000
   45       -4.874894   1.000000
   46       -4.812701   1.000000
   47       -4.749247   1.000000
   48       -4.613193   1.000000
   49       -4.593324   1.000000
   50       -4.571614   1.000000
   51       -4.464300   1.000000
   52       -4.455170   1.000000
   53       -4.410919   1.000000
   54       -4.333317   1.000000
   55       -4.246836   1.000000
   56       -4.149731   1.000000
   57       -4.033847   1.000000
   58       -4.021940   1.000000
   59       -3.934612   1.000000
   60       -3.899148   1.000000
   61       -3.605538   1.000000
   62       -3.499781   1.000000
   63       -3.474076   1.000000
   64       -3.449066   1.000000
   65       -3.380976   1.000000
   66       -3.363752   1.000000
   67       -3.292777   1.000000
   68       -3.227013   1.000000
   69       -3.200184   1.000000
   70       -3.142469   1.000000
   71       -3.082726   1.000000
   72       -2.854746   1.000000
   73       -2.646210   1.000000
   74       -2.409180   1.000000
   75       -2.371084   1.000000
   76       -2.335930   1.000000
   77       -2.307692   1.000000
   78       -2.236624   1.000000
   79       -2.135437   1.000000
   80       -2.039887   1.000000
   81       -1.819983   1.000000
   82       -1.514126   1.000000
   83       -1.394947   1.000000
   84       -1.223992   1.000000
   85       -1.199925   1.000000
   86       -1.068003   1.000000
   87       -1.014350   1.000000
   88       -0.965706   1.000000
   89       -0.599100   1.000000
   90       -0.477824   1.000000
   91       -0.308479   1.000002
   92       -0.166712   1.004139
   93       -0.076236   1.034951
   94       -0.025272   0.983329
   95        0.171928  -0.035336
   96        0.207809  -0.025103
   97        0.262399  -0.005674
   98        0.413075  -0.000002
   99        0.451448  -0.000000
  100        0.586993  -0.000000
  101        0.780109  -0.000000
  102        0.848297  -0.000000
  103        0.872174  -0.000000
  104        0.925944  -0.000000
  105        1.052053  -0.000000
  106        1.090225  -0.000000
  107        1.183881  -0.000000
  108        1.307142  -0.000000
  109        1.322749  -0.000000
  110        1.411522  -0.000000
  111        1.436561  -0.000000
  112        1.484662  -0.000000
  113        1.539862  -0.000000
  114        1.649509  -0.000000
  115        1.673074  -0.000000
  116        1.744725  -0.000000
  117        1.810071  -0.000000
  118        1.995747  -0.000000
  119        2.088730  -0.000000
  120        2.149400  -0.000000

  0.1111111E+00  0.9090909E-01  0.4822234E-15  0.6734007E-02
    1      -13.925269   1.000000
    2      -12.706757   1.000000
    3      -12.529901   1.000000
    4      -11.870191   1.000000
    5      -11.490401   1.000000
    6      -11.427891   1.000000
    7      -11.287954   1.000000
    8      -11.166345   1.000000
    9      -11.078487   1.000000
   10      -10.718136   1.000000
   11      -10.628563   1.000000
   12      -10.378071   1.000000
   13      -10.174418   1.000000
   14      -10.125633   1.000000
   15       -9.741011   1.000000
   16       -9.693006   1.000000
   17       -9.152130   1.000000
   18       -9.019036   1.000000
   19       -8.915140   1.000000
   20       -8.722269   1.000000
   21       -8.604003   1.000000
   22       -8.223351   1.000000
   23       -8.113353   1.000000
   24       -7.967836   1.000000
   25       -7.929694   1.000000
   26       -7.901742   1.000000
   27       -7.546359   1.000000
   28       -7.181752   1.000000
   29       -6.648221   1.000000
   30       -6.577591   1.000000
   31       -6.423568   1.000000
   32       -6.189168   1.000000
   33       -6.058596   1.000000
   34       -5.964004   1.000000
   35       -5.694822   1.000000
   36       -5.523818   1.000000
   37       -5.479343   1.000000
   38       -5.397047   1.000000
   39       -5.357827   1.000000
   40       -5.259157   1.000000
   41       -5.139709   1.000000
   42       -5.099418   1.000000
   43       -5.066786   1.000000
   44       -5.001563   1.000000
   45       -4.834303   1.000000
   46       -4.775054   1.000000
   47       -4.695800   1.000000
   48       -4.587394   1.000000
   49       -4.567026   1.000000
   50       -4.536048   1.000000
   51       -4.478554   1.000000
   52       -4.456651   1.000000
   53       -4.418543   1.000000
   54       -4.321501   1.000000
   55       -4.238190   1.000000
   56       -4.161906   1.000000
   57       -4.039235   1.000000
   58       -4.022752   1.000000
   59       -3.938441   1.000000
   60       -3.864403   1.000000
   61       -3.650953   1.000000
   62       -3.541539   1.000000
   63       -3.496184   1.000000
   64       -3.443415   1.000000
   65       -3.383044   1.000000
   66       -3.365464   1.000000
   67       -3.268335   1.000000
   68       -3.236972   1.000000
   69       -3.169718   1.000000
   70       -3.122524   1.000000
   71       -3.088805   1.000000
   72       -2.923560   1.000000
   73       -2.611655   1.000000
   74       -2.483489   1.000000
   75       -2.448637   1.000000
   76       -2.392205   1.000000
   77       -2.346623   1.000000
   78       -2.276837   1.000000
   79       -2.143538   1.000000
   80       -2.049905   1.000000
   81       -1.808170   1.000000
   82       -1.493579   1.000000
   83       -1.467109   1.000000
   84       -1.311538   1.000000
   85       -1.170467   1.000000
   86       -1.022496   1.000000
   87       -0.884861   1.000000
   88       -0.790739   1.000000
   89       -0.664304   1.000000
   90       -0.566572   1.000000
   91       -0.381083   1.000000
   92       -0.097519   1.027771
   93       -0.075019   1.035131
   94        0.116130   0.063179
   95        0.136410  -0.000019
   96        0.201089  -0.028150
   97        0.222103  -0.018595
   98        0.344533  -0.000143
   99        0.414884  -0.000002
  100        0.728093  -0.000000
  101        0.789156  -0.000000
  102        0.827864  -0.000000
  103        0.898955  -0.000000
  104        0.950438  -0.000000
  105        1.043804  -0.000000
  106        1.096888  -0.000000
  107        1.268588  -0.000000
  108        1.277287  -0.000000
  109        1.333051  -0.000000
  110        1.375374  -0.000000
  111        1.482944  -0.000000
  112        1.534051  -0.000000
  113        1.578855  -0.000000
  114        1.619518  -0.000000
  115        1.697791  -0.000000
  116        1.720000  -0.000000
  117        1.777982  -0.000000
  118        1.878034  -0.000000
  119        1.958379  -0.000000
  120        2.937568   0.000000

  0.2222222E+00  0.9090909E-01  0.3065600E-15  0.6734007E-02
    1      -13.824413   1.000000
    2      -12.954060   1.000000
    3      -12.440697   1.000000
    4      -11.865262   1.000000
    5      -11.463796   1.000000
    6      -11.440645   1.000000
    7      -11.239017   1.000000
    8      -11.185098   1.000000
    9      -11.057271   1.000000
   10      -10.689534   1.000000
   11      -10.542113   1.000000
   12      -10.473344   1.000000
   13      -10.261272   1.000000
   14      -10.167648   1.000000
   15       -9.654316   1.000000
   16       -9.592767   1.000000
   17       -9.158287   1.000000
   18       -8.995475   1.000000
   19       -8.936788   1.000000
   20       -8.718581   1.000000
   21       -8.673252   1.000000
   22       -8.366808   1.000000
   23       -8.205285   1.000000
   24       -8.042632   1.000000
   25       -7.963039   1.000000
   26       -7.766572   1.000000
   27       -7.720191   1.000000
   28       -7.124623   1.000000
   29       -6.643247   1.000000
   30       -6.476248   1.000000
   31       -6.321595   1.000000
   32       -6.274602   1.000000
   33       -6.042405   1.000000
   34       -5.908662   1.000000
   35       -5.675809   1.000000
   36       -5.568999   1.000000
   37       -5.381610   1.000000
   38       -5.325555   1.000000
   39       -5.276657   1.000000
   40       -5.186664   1.000000
   41       -5.161900   1.000000
   42       -5.108658   1.000000
   43       -5.027248   1.000000
   44       -4.954643   1.000000
   45       -4.831595   1.000000
   46       -4.725877   1.000000
   47       -4.668607   1.000000
   48       -4.587701   1.000000