   58   58    1    1
  0.1231722E+02  0.6078000E-09  0.6078000E-09  0.2233000E-08  0.5000000E-15
   1.0000000000000000E-004
  CAR 
 Name                                    
    206     41    138

  0.3742002E-15  0.3742002E-15  0.1262379E-14  0.1234568E-01
    1      -10.916553   1.000000
    2      -10.352203   1.000000
    3       -9.627514   1.000000
    4       -8.947844   1.000000
    5       -8.084609   1.000000
    6       -8.035103   1.000000
    7       -7.668111   1.000000
    8       -7.576714   1.000000
    9       -7.450936   1.000000
   10       -7.320914   1.000000
   11       -7.171445   1.000000
   12       -7.158083   1.000000
   13       -7.117055   1.000000
   14       -7.112658   1.000000
   15       -6.848605   1.000000
   16       -6.801635   1.000000
   17       -6.758488   1.000000
   18       -6.678778   1.000000
   19       -6.630661   1.000000
   20       -6.473055   1.000000
   21       -6.417692   1.000000
   22       -6.289013   1.000000
   23       -6.140003   1.000000
   24       -5.589304   1.000000
   25       -5.506494   1.000000
   26       -5.304241   1.000000
   27       -5.302724   1.000000
   28       -5.249729   1.000000
   29       -5.222332   1.000000
   30       -4.992675   1.000000
   31       -4.902238   1.000000
   32       -4.101444   1.000000
   33       -3.998441   1.000000
   34       -3.981889   1.000000
   35       -3.907043   1.000000
   36       -3.826872   1.000000
   37       -3.623240   1.000000
   38       -2.990461   1.000000
   39       -2.814848   1.000000
   40       -2.760596   1.000000
   41       -2.646653   1.000000
   42       -2.473319   1.000000
   43       -2.286730   1.000000
   44       -2.179944   1.000000
   45       -2.064069   1.000000
   46       -2.004962   1.000000
   47       -1.911011   1.000000
   48       -1.790030   1.000000
   49       -1.765138   1.000000
   50       -1.762549   1.000000
   51       -1.520482   1.000000
   52       -1.476409   1.000000
   53       -1.432101   1.000000
   54       -1.366454   1.000000
   55       -1.325562   1.000000
   56       -1.288380   1.000000
   57       -1.209937   1.000000
   58       -1.185981   1.000000
   59       -1.089389   1.000000
   60       -1.033975   1.000000
   61       -0.999823   1.000000
   62       -0.972959   1.000000
   63       -0.876271   1.000000
   64       -0.845456   1.000000
   65       -0.776664   1.000000
   66       -0.682164   1.000000
   67       -0.553522   1.000000
   68       -0.502603   1.000000
   69       -0.492946   1.000000
   70       -0.333920   1.000000
   71       -0.231773   1.000000
   72       -0.212699   1.000000
   73       -0.174849   1.000000
   74       -0.131524   1.000000
   75       -0.085976   1.000000
   76        0.138659   1.000000
   77        0.334767   1.000000
   78        0.402589   1.000000
   79        0.431391   1.000000
   80        0.592867   1.000000
   81        0.814425   1.000000
   82        0.894930   1.000000
   83        0.944352   1.000000
   84        0.962404   1.000000
   85        1.170815   1.000000
   86        1.600093   1.000000
   87        1.799624   1.000000
   88        1.800394   1.000000
   89        1.839849   1.000000
   90        1.879139   1.000000
   91        1.883767   1.000000
   92        2.011814   1.000000
   93        2.067204   1.000000
   94        2.161887   1.000000
   95        2.169978   1.000000
   96        2.212750   1.000000
   97        2.225039   1.000000
   98        2.547332   1.000000
   99        2.764179   1.000168
  100        3.145067   1.023912
  101        3.246052   0.861042
  102        3.331585   0.547380
  103        3.425750   0.180254
  104        3.520591  -0.009436
  105        3.630824  -0.030218
  106        3.703076  -0.014379
  107        3.758605  -0.006142
  108        3.801423  -0.002775
  109        4.131590  -0.000000
  110        4.163801  -0.000000
  111        4.203515  -0.000000
  112        4.236486  -0.000000
  113        4.309058  -0.000000
  114        4.466659  -0.000000
  115        4.466755  -0.000000
  116        4.513939  -0.000000
  117        4.520601  -0.000000
  118        4.595423  -0.000000
  119        4.654234  -0.000000
  120        4.678287  -0.000000
  121        4.687712  -0.000000
  122        4.769064  -0.000000
  123        4.819325  -0.000000
  124        4.871325  -0.000000
  125        4.884884  -0.000000
  126        4.941285  -0.000000
  127        4.949589  -0.000000
  128        5.140508  -0.000000
  129        5.416626  -0.000000
  130        5.491775  -0.000000
  131        5.542061  -0.000000
  132        5.636855  -0.000000
  133        5.734928  -0.000000
  134        5.792276  -0.000000
  135        6.146236  -0.000000
  136        6.520898  -0.000000
  137        6.539852  -0.000000
  138        6.627079  -0.000000

  0.1111111E+00  0.3687552E-15  0.1262379E-14  0.2469136E-01
    1      -10.858965   1.000000
    2      -10.299795   1.000000
    3       -9.584722   1.000000
    4       -8.913836   1.000000
    5       -8.070259   1.000000
    6       -8.045970   1.000000
    7       -7.762672   1.000000
    8       -7.726711   1.000000
    9       -7.621479   1.000000
   10       -7.519167   1.000000
   11       -7.413980   1.000000
   12       -7.356850   1.000000
   13       -7.234364   1.000000
   14       -7.211849   1.000000
   15       -7.025055   1.000000
   16       -6.691027   1.000000
   17       -6.590592   1.000000
   18       -6.537082   1.000000
   19       -6.447242   1.000000
   20       -6.303675   1.000000
   21       -6.220821   1.000000
   22       -6.129752   1.000000
   23       -5.962041   1.000000
   24       -5.571061   1.000000
   25       -5.464901   1.000000
   26       -5.372489   1.000000
   27       -5.269283   1.000000
   28       -5.221046   1.000000
   29       -5.090631   1.000000
   30       -4.887447   1.000000
   31       -4.825177   1.000000
   32       -3.986467   1.000000
   33       -3.944552   1.000000
   34       -3.869952   1.000000
   35       -3.798062   1.000000
   36       -3.748512   1.000000
   37       -3.498434   1.000000
   38       -2.977929   1.000000
   39       -2.808494   1.000000
   40       -2.719930   1.000000
   41       -2.615441   1.000000
   42       -2.522271   1.000000
   43       -2.392042   1.000000
   44       -2.141324   1.000000
   45       -2.115731   1.000000
   46       -2.026791   1.000000
   47       -1.961879   1.000000
   48       -1.936674   1.000000
   49       -1.830495   1.000000
   50       -1.733777   1.000000
   51       -1.657684   1.000000
   52       -1.555942   1.000000
   53       -1.457485   1.000000
   54       -1.395818   1.000000
   55       -1.328178   1.000000
   56       -1.316954   1.000000
   57       -1.258505   1.000000
   58       -1.102569   1.000000
   59       -1.080811   1.000000
   60       -1.010931   1.000000
   61       -0.975192   1.000000
   62       -0.967792   1.000000
   63       -0.886979   1.000000
   64       -0.857180   1.000000
   65       -0.791371   1.000000
   66       -0.660333   1.000000
   67       -0.592380   1.000000
   68       -0.585113   1.000000
   69       -0.508905   1.000000
   70       -0.448519   1.000000
   71       -0.366761   1.000000
   72       -0.260238   1.000000
   73       -0.198182   1.000000
   74       -0.073906   1.000000
   75       -0.021592   1.000000
   76        0.119849   1.000000
   77        0.254553   1.000000
   78        0.324628   1.000000
   79        0.391630   1.000000
   80        0.564066   1.000000
   81        0.587397   1.000000
   82        0.678964   1.000000
   83        0.988275   1.000000
   84        1.019839   1.000000
   85        1.059380   1.000000
   86        1.464700   1.000000
   87        1.546523   1.000000
   88        1.653993   1.000000
   89        1.739583   1.000000
   90        1.820749   1.000000
   91        1.846250   1.000000
   92        2.041064   1.000000
   93        2.063479   1.000000
   94        2.127922   1.000000
   95        2.198877   1.000000
   96        2.235511   1.000000
   97        2.342322   1.000000
   98        2.664781   1.000009
   99        2.966309   1.011469
  100        3.127787   1.031266
  101        3.219056   0.928244
  102        3.349396   0.472115
  103        3.368418   0.392591
  104        3.447153   0.118189
  105        3.502103   0.010852
  106        3.735213  -0.009020
  107        3.907546  -0.000242
  108        4.016943  -0.000010
  109        4.138276  -0.000000
  110        4.145462  -0.000000
  111        4.195999  -0.000000
  112        4.259192  -0.000000
  113        4.312684  -0.000000
  114        4.380692  -0.000000
  115        4.450763  -0.000000
  116        4.484052  -0.000000
  117        4.526898  -0.000000
  118        4.547472  -0.000000
  119        4.589832  -0.000000
  120        4.601742  -0.000000
  121        4.678811  -0.000000
  122        4.739036  -0.000000
  123        4.772244  -0.000000
  124        4.839527  -0.000000
  125        4.854006  -0.000000
  126        4.926344  -0.000000
  127        4.936214  -0.000000
  128        5.114557  -0.000000
  129        5.327322  -0.000000
  130        5.405320  -0.000000
  131        5.548242  -0.000000
  132        5.575454  -0.000000
  133        5.720999  -0.000000
  134        5.901904  -0.000000
  135        6.113776  -0.000000
  136        6.409295  -0.000000
  137        6.494701  -0.000000
  138        6.666518  -0.000000

  0.2222222E+00  0.3503827E-15  0.1262379E-14  0.2469136E-01
    1      -10.688380   1.000000
    2      -10.145096   1.000000
    3       -9.460003   1.000000
    4       -8.814777   1.000000
    5       -8.373924   1.000000
    6       -8.225236   1.000000
    7       -8.101309   1.000000
    8       -7.931644   1.000000
    9       -7.737058   1.000000
   10       -7.618515   1.000000
   11       -7.562482   1.000000
   12       -7.539046   1.000000
   13       -7.448178   1.000000
   14       -7.386478   1.000000
   15       -7.337139   1.000000
   16       -6.754550   1.000000
   17       -6.530017   1.000000
   18       -6.418218   1.000000
   19       -6.191482   1.000000
   20       -6.129908   1.000000
   21       -5.950885   1.000000
   22       -5.874776   1.000000
   23       -5.467965   1.000000
   24       -5.384647   1.000000
   25       -5.303846   1.000000
   26       -5.272518   1.000000
   27       -5.141993   1.000000
   28       -5.058191   1.000000
   29       -4.684821   1.000000
   30       -4.626782   1.000000
   31       -4.599284   1.000000
   32       -3.826428   1.000000
   33       -3.785441   1.000000
   34       -3.754419   1.000000
   35       -3.647138   1.000000
   36       -3.332282   1.000000
   37       -3.112062   1.000000
   38       -2.959407   1.000000
   39       -2.829906   1.000000
   40       -2.716451   1.000000
   41       -2.675476   1.000000
   42       -2.578197   1.000000
   43       -2.541392   1.000000
   44       -2.503954   1.000000
   45       -2.435128   1.000000
   46       -2.091185   1.000000
   47       -2.048271   1.000000
   48       -1.956488   1.000000
   49       -1.829045   1.000000
   50       -1.699742   1.000000
   51       -1.675857   1.000000
   52       -1.583066   1.000000
   53       -1.568653   1.000000
   54       -1.489366   1.000000
   55       -1.382736   1.000000
   56       -1.316683   1.000000
   57       -1.306522   1.000000
   58       -1.234610   1.000000
   59       -1.199532   1.000000
   60       -1.071973   1.000000
   61       -0.979433   1.000000
   62       -0.956582   1.000000
   63       -0.922857   1.000000
   64       -0.888381   1.000000
   65       -0.872476   1.000000
   66       -0.848084   1.000000
   67       -0.748072   1.000000
   68       -0.703258   1.000000
   69       -0.591742   1.000000
   70       -0.563707   1.000000
   71       -0.472407   1.000000
   72       -0.318963   1.000000
   73       -0.256911   1.000000
   74       -0.111727   1.000000
   75       -0.076933   1.000000
   76       -0.020625   1.000000
   77        0.031989   1.000000
   78        0.126341   1.000000
   79        0.294329   1.000000
   80        0.493512   1.000000
   81        0.522277   1.000000
   82        0.674049   1.000000
   83        0.772847   1.000000
   84        0.918845   1.000000
   85        1.058169   1.000000
   86        1.147873   1.000000
   87        1.295134   1.000000
   88        1.506899   1.000000
   89        1.583310   1.000000
   90        1.677996   1.000000
   91        1.840186   1.000000
   92        1.846650   1.000000
   93        2.008961   1.000000
   94        2.011985   1.000000
   95        2.243847   1.000000
   96        2.366764   1.000000
   97        2.412632   1.000000
   98        2.486064   1.000000
   99        2.841875   1.001134
  100        2.987063   1.015264
  101        3.263884   0.806854
  102        3.312270   0.627540
  103        3.536718  -0.021675
  104        3.619988  -0.032274
  105        3.726920  -0.010245
  106        3.816361  -0.002048
  107        3.928481  -0.000139
  108        3.956155  -0.000064
  109        4.024931  -0.000008
  110        4.042533  -0.000004
  111        4.102784  -0.000001
  112        4.156698  -0.000000
  113        4.227252  -0.000000
  114        4.298265  -0.000000
  115        4.339738  -0.000000
  116        4.370814  -0.000000
  117        4.431056  -0.000000
  118        4.457141  -0.000000
  119        4.484388  -0.000000
  120        4.596467  -0.000000
  121        4.638323  -0.000000
  122        4.691422  -0.000000
  123        4.771389  -0.000000
  124        4.851381  -0.000000
  125        4.893515  -0.000000
  126        4.942001  -0.000000
  127        5.037191  -0.000000
  128        5.072794  -0.000000
  129        5.125231  -0.000000
  130        5.343426  -0.000000
  131        5.388696  -0.000000
  132        5.548443  -0.000000
  133        5.565647  -0.000000
  134        5.644004  -0.000000
  135        5.696785  -0.000000
  136        5.904299  -0.000000
  137        6.321807  -0.000000
  138        6.688152  -0.000000

  0.3333333E+00  0.3767071E-15  0.1262379E-14  0.2469136E-01
    1      -10.412003   1.000000
    2       -9.896238   1.000000
    3       -9.266682   1.000000
    4       -8.987539   1.000000
    5       -8.664223   1.000000
    6       -8.627534   1.000000
    7       -8.377532   1.000000
    8       -7.843964   1.000000
    9       -7.776954   1.000000
   10       -7.746655   1.000000
   11       -7.741140   1.000000
   12       -7.646235   1.000000
   13       -7.579601   1.000000
   14       -7.541649   1.000000
   15       -7.472259   1.000000
   16       -6.804354   1.000000
   17       -6.775665   1.000000
   18       -6.600334   1.000000
   19       -5.982570   1.000000
   20       -5.887018   1.000000
   21       -5.570206   1.000000
   22       -5.446850   1.000000
   23       -5.299467   1.000000
   24       -5.285925   1.000000
   25       -5.247102   1.000000
   26       -5.064608   1.000000
   27       -4.549540   1.000000
   28       -4.457128   1.000000
   29       -4.314633   1.000000
   30       -4.255258   1.000000
   31       -4.103761   1.000000
   32       -3.662542   1.000000
   33       -3.614611   1.000000
   34       -3.527339   1.000000
   35       -3.451966   1.000000
   36       -3.196976   1.000000
   37       -3.100716   1.000000
   38       -3.068693   1.000000
   39       -3.038658   1.000000
   40       -2.991640   1.000000
   41       -2.920444   1.000000
   42       -2.766455   1.000000
   43       -2.627068   1.000000
   44       -2.411176   1.000000
   45       -2.307911   1.000000
   46       -2.204609   1.000000
   47       -2.046313   1.000000
   48       -1.970216   1.000000
   49       -1.896036   1.000000
   50       -1.776504   1.000000
   51       -1.753176   1.000000
   52       -1.711985   1.000000
   53       -1.632298   1.000000
   54       -1.600901   1.000000
   55       -1.541468   1.000000
   56       -1.462551   1.000000
   57       -1.391667   1.000000
   58       -1.368364   1.000000
   59       -1.259544   1.000000
   60       -1.211949   1.000000
   61       -1.161723   1.000000
   62       -1.106246   1.000000
   63       -1.085768   1.000000
   64       -1.000055   1.000000
   65       -0.967671   1.000000
   66       -0.902728   1.000000
   67       -0.800944   1.000000
   68       -0.771517   1.000000
   69       -0.701032   1.000000
   70       -0.610942   1.000000
   71       -0.537049   1.000000
   72       -0.407757   1.000000
   73       -0.321106   1.000000
   74       -0.239698   1.000000
   75       -0.191940   1.000000
   76       -0.097907   1.000000
   77        0.000315   1.000000
   78        0.033685   1.000000
   79        0.144644   1.000000
   80        0.241378   1.000000
   81        0.448848   1.000000
   82        0.649340   1.000000
   83        0.722925   1.000000
   84        0.882878   1.000000
   85        0.956680   1.000000
   86        1.117286   1.000000
   87        1.251619   1.000000
   88        1.425513   1.000000
   89        1.511391   1.000000
   90        1.656359   1.000000
   91        1.684541   1.000000
   92        1.701434   1.000000
   93        1.893801   1.000000
   94        1.983433   1.000000
   95        2.061808   1.000000
   96        2.294114   1.000000
   97        2.332529   1.000000
   98        2.608858   1.000001
   99        2.696068   1.000024
  100        2.786813   1.000303
  101        3.172414   1.002168
  102        3.292887   0.704090
  103        3.377134   0.357076
  104        3.438364   0.142332
  105        3.598415  -0.035051
  106        3.655153  -0.024836
  107        3.730824  -0.009655
  108        3.811239  -0.002276
  109        3.876405  -0.000529
  110        3.947198  -0.000083
  111        4.022802  -0.000008
  112        4.067000  -0.000002
  113        4.128429  -0.000000
  114        4.200645  -0.000000
  115        4.251927  -0.000000
  116        4.360413  -0.000000
  117        4.374400  -0.000000
  118        4.452848  -0.000000
  119        4.472212  -0.000000
  120        4.572768  -0.000000
  121        4.593832  -0.000000
  122        4.685619  -0.000000
  123        4.852910  -0.000000
  124        4.888244  -0.000000
  125        4.930621  -0.000000
  126        5.030464  -0.000000
  127        5.066118  -0.000000
  128        5.150023  -0.000000
  129        5.216429  -0.000000
  130        5.278789  -0.000000
  131        5.387674  -0.000000
  132        5.532729  -0.000000
  133        5.571165  -0.000000
  134        5.686121  -0.000000
  135        5.813475  -0.000000
  136        5.857989  -0.000000
  137        6.146646  -0.000000
  138        6.367102  -0.000000

  0.4444444E+00  0.3698634E-15  0.1262379E-14  0.2469136E-01
    1      -10.053316   1.000000
    2       -9.591910   1.000000
    3       -9.487488   1.000000
    4       -9.152661   1.000000
    5       -8.980575   1.000000
    6       -8.657754   1.000000
    7       -8.407664   1.000000
    8       -8.090364   1.000000
    9       -7.887790   1.000000
   10       -7.838209   1.000000
   11       -7.730784   1.000000
   12       -7.610773   1.000000
   13       -7.591849   1.000000
   14       -7.512919   1.000000
   15       -7.464778   1.000000
   16       -7.147624   1.000000
   17       -6.821414   1.000000
   18       -6.654746   1.000000
   19       -5.892307   1.000000
   20       -5.785316   1.000000
   21       -5.391068   1.000000
   22       -5.182475   1.000000
   23       -5.176586   1.000000
   24       -5.060407   1.000000
   25       -5.008425   1.000000
   26       -4.957394   1.000000
   27       -4.118887   1.000000
   28       -3.969505   1.000000
   29       -3.884586   1.000000
   30       -3.731621   1.000000
   31       -3.675318   1.000000
   32       -3.653259   1.000000
   33       -3.571835   1.000000
   34       -3.544233   1.000000
   35       -3.439718   1.000000
   36       -3.298615   1.000000
   37       -3.220300   1.000000
   38       -3.197677   1.000000
   39       -3.139996   1.000000
   40       -3.123753   1.000000
   41       -3.015981   1.000000
   42       -2.911765   1.000000
   43       -2.864897   1.000000
   44       -2.682309   1.000000
   45       -2.411526   1.000000
   46       -2.211292   1.000000
   47       -2.054653   1.000000
   48       -2.033138   1.000000
   49       -1.927703   1.000000
   50       -1.875123   1.000000
   51       -1.757066   1.000000
   52       -1.734497   1.000000
   53       -1.698688   1.000000
   54       -1.594764   1.000000
   55       -1.528140   1.000000
   56       -1.476577   1.000000
   57       -1.445027   1.000000
   58       -1.411756   1.000000
   59       -1.293181   1.000000
   60       -1.275039   1.000000
   61       -1.255573   1.000000
   62       -1.196277   1.000000
   63       -1.149504   1.000000
   64       -1.116978   1.000000
   65       -1.075477   1.000000
   66       -1.035387   1.000000
   67       -0.877082   1.000000
   68       -0.791821   1.000000
   69       -0.679305   1.000000
   70       -0.657888   1.000000
   71       -0.628116   1.000000
   72       -0.455165   1.000000
   73       -0.355694   1.000000
   74       -0.310073   1.000000
   75       -0.200814   1.000000
   76       -0.149429   1.000000
   77       -0.022361   1.000000
   78       -0.001264   1.000000
   79        0.047806   1.000000
   80        0.124754   1.000000
   81        0.221650   1.000000
   82        0.672652   1.000000
   83        0.721658   1.000000
   84        0.771421   1.000000
   85        1.032549   1.000000
   86        1.079752   1.000000
   87        1.252495   1.000000
   88        1.447384   1.000000
   89        1.474388   1.000000
   90        1.570799   1.000000
   91        1.691004   1.000000
   92        1.751209   1.000000
   93        1.912716   1.000000
   94        1.933313   1.000000
   95        2.026462   1.000000
   96        2.146719   1.000000
   97        2.335278   1.000000
   98        2.633676   1.000003
   99        2.674711   1.000012
  100        2.787831   1.000311
  101        2.865595   1.001898
  102        2.993155   1.016498
  103        3.165759   1.008752
  104        3.298412   0.682797
  105        3.391044   0.302307
  106        3.519726  -0.008642
  107        3.576157  -0.034898
  108        3.724607  -0.010607
  109        3.786415  -0.003714
  110        3.814906  -0.002111
  111        3.903132  -0.000271
  112        3.990898  -0.000023
  113        4.000753  -0.000017
  114        4.115393  -0.000000
  115        4.157181  -0.000000
  116        4.272835  -0.000000
  117        4.349310  -0.000000
  118        4.376094  -0.000000
  119        4.438555  -0.000000
  120        4.536278  -0.000000
  121        4.650484  -0.000000
  122        4.859760  -0.000000
  123        4.900744  -0.000000
  124        4.916524  -0.000000
  125        5.051915  -0.000000
  126        5.111068  -0.000000
  127        5.210445  -0.000000
  128        5.284705  -0.000000
  129        5.323745  -0.000000
  130        5.379719  -0.000000
  131        5.528356  -0.000000
  132        5.593764  -0.000000
  133        5.733507  -0.000000
  134        5.777685  -0.000000
  135        5.808437  -0.000000
  136        5.934137  -0.000000
  137        5.987318  -0.000000
  138        6.217721  -0.000000

  0.3742002E-15  0.1111111E+00  0.1262379E-14  0.2469136E-01
    1      -10.858966   1.000000
    2      -10.299798   1.000000
    3       -9.584735   1.000000
    4       -8.913863   1.000000
    5       -8.070218   1.000000
    6       -8.045981   1.000000
    7       -7.762722   1.000000
    8       -7.726741   1.000000
    9       -7.621515   1.000000
   10       -7.519043   1.000000
   11       -7.413946   1.000000
   12       -7.357176   1.000000
   13       -7.234034   1.000000
   14       -7.211881   1.000000
   15       -7.024734   1.000000
   16       -6.691261   1.000000
   17       -6.590888   1.000000
   18       -6.536994   1.000000
   19       -6.446899   1.000000
   20       -6.303495   1.000000
   21       -6.220650   1.000000
   22       -6.130211   1.000000
   23       -5.962181   1.000000
   24       -5.570678   1.000000
   25       -5.464898   1.000000
   26       -5.372746   1.000000
   27       -5.269018   1.000000
   28       -5.221481   1.000000
   29       -5.090445   1.000000
   30       -4.888042   1.000000
   31       -4.825192   1.000000
   32       -3.986428   1.000000
   33       -3.944489   1.000000
   34       -3.870963   1.000000
   35       -3.797100   1.000000
   36       -3.747410   1.000000
   37       -3.499086   1.000000
   38       -2.978014   1.000000
   39       -2.808531   1.000000
   40       -2.719771   1.000000
   41       -2.615460   1.000000
   42       -2.522377   1.000000
   43       -2.391887   1.000000
   44       -2.141379   1.000000
   45       -2.115768   1.000000
   46       -2.027141   1.000000
   47       -1.961808   1.000000
   48       -1.936380   1.000000
   49       -1.830473   1.000000
   50       -1.733671   1.000000
   51       -1.657638   1.000000
   52       -1.556007   1.000000
   53       -1.457478   1.000000
   54       -1.395661   1.000000
   55       -1.327904   1.000000
   56       -1.316603   1.000000
   57       -1.258319   1.000000
   58       -1.102421   1.000000
   59       -1.081532   1.000000
   60       -1.011026   1.000000
   61       -0.975337   1.000000
   62       -0.968586   1.000000
   63       -0.886524   1.000000
   64       -0.857722   1.000000
   65       -0.792225   1.000000
   66       -0.659936   1.000000
   67       -0.592487   1.000000
   68       -0.584592   1.000000
   69       -0.509060   1.000000
   70       -0.447470   1.000000
   71       -0.367141   1.000000
   72       -0.260195   1.000000
   73       -0.198592   1.000000
   74       -0.073951   1.000000
   75       -0.021845   1.000000
   76        0.120254   1.000000
   77        0.254753   1.000000
   78        0.325529   1.000000
   79        0.390547   1.000000
   80        0.564804   1.000000
   81        0.587639   1.000000
   82        0.678485   1.000000
   83        0.988575   1.000000
   84        1.019581   1.000000
   85        1.059015   1.000000
   86        1.464462   1.000000
   87        1.547052   1.000000
   88        1.653521   1.000000
   89        1.739479   1.000000
   90        1.820979   1.000000
   91        1.846495   1.000000
   92        2.041243   1.000000
   93        2.063005   1.000000
   94        2.128240   1.000000
   95        2.198626   1.000000
   96        2.235341   1.000000
   97        2.342166   1.000000
   98        2.664992   1.000009
   99        2.966778   1.011547
  100        3.127909   1.031229
  101        3.219149   0.928044
  102        3.348862   0.474373
  103        3.368947   0.390415
  104        3.447329   0.117724
  105        3.501930   0.011077
  106        3.735802  -0.008937
  107        3.907264  -0.000244
  108        4.018733  -0.000010
  109        4.135142  -0.000000
  110        4.145209  -0.000000
  111        4.196377  -0.000000
  112        4.259806  -0.000000
  113        4.312262  -0.000000
  114        4.380879  -0.000000
  115        4.450812  -0.000000
  116        4.483642  -0.000000
  117        4.526539  -0.000000
  118        4.548089  -0.000000
  119        4.589644  -0.000000
  120        4.601857  -0.000000
  121        4.678751  -0.000000
  122        4.740291  -0.000000
  123        4.772290  -0.000000
  124        4.839459  -0.000000
  125        4.854464  -0.000000
  126        4.926701  -0.000000
  127        4.935591  -0.000000
  128        5.115076  -0.000000
  129        5.326573  -0.000000
  130        5.430111  -0.000000
  131        5.552447  -0.000000
  132        5.689540  -0.000000
  133        5.730209  -0.000000
  134        5.823740  -0.000000
  135        5.856710  -0.000000
  136        6.259600  -0.000000
  137        6.624553  -0.000000
  138        6.715998  -0.000000

  0.1111111E+00  0.1111111E+00  0.1262379E-14  0.2469136E-01
    1      -10.744573   1.000000
    2      -10.196029   1.000000
    3       -9.500928   1.000000
    4       -8.848509   1.000000
    5       -8.135049   1.000000
    6       -8.112597   1.000000
    7       -8.005987   1.000000
    8       -7.966367   1.000000
    9       -7.825751   1.000000
   10       -7.750828   1.000000
   11       -7.665851   1.000000
   12       -7.525495   1.000000
   13       -7.292041   1.000000
   14       -7.184345   1.000000
   15       -6.926630   1.000000
   16       -6.806841   1.000000
   17       -6.748268   1.000000
   18       -6.389186   1.000000
   19       -6.309085   1.000000
   20       -6.170940   1.000000
   21       -6.083625   1.000000
   22       -5.749374   1.000000
   23       -5.575898   1.000000
   24       -5.452098   1.000000
   25       -5.428280   1.000000
   26       -5.276908   1.000000
   27       -5.165908   1.000000
   28       -5.064228   1.000000
   29       -4.885425   1.000000
   30       -4.865765   1.000000
   31       -4.678480   1.000000
   32       -4.078386   1.000000
   33       -3.763773   1.000000
   34       -3.599642   1.000000
   35       -3.558331   1.000000
   36       -3.482316   1.000000
   37       -3.330293   1.000000
   38       -2.992881   1.000000
   39       -2.845877   1.000000
   40       -2.697463   1.000000
   41       -2.629108   1.000000
   42       -2.585417   1.000000
   43       -2.519430   1.000000
   44       -2.442473   1.000000
   45       -2.143796   1.000000
   46       -2.063608   1.000000
   47       -1.993477   1.000000
   48       -1.960160   1.000000
   49       -1.784386   1.000000
   50       -1.760646   1.000000
   51       -1.689099   1.000000
   52       -1.588610   1.000000
   53       -1.531835   1.000000
   54       -1.471225   1.000000
   55       -1.429767   1.000000
   56       -1.337503   1.000000
   57       -1.300501   1.000000
   58       -1.173414   1.000000
   59       -1.112386   1.000000
   60       -1.051876   1.000000
   61       -1.033948   1.000000
   62       -0.986281   1.000000