 running on   54 total cores
 distrk:  each k-point on   54 cores,    1 groups
 distr:  one band on    9 cores,    6 groups
 using from now: INCAR     
 vasp.5.4.4.18Apr17-6-g9f103f2a35 (build Dec  7 2020 12:43:57) complex           
 POSCAR found type information on POSCAR  Mo V  B  H 
 POSCAR found :  4 types and      58 ions
 scaLAPACK will be used
 LDA part: xc-table for Pade appr. of Perdew
 POSCAR, INCAR and KPOINTS ok, starting setup
 resort distribution
 resort distribution
 resort distribution
 resort distribution
 resort distribution
 resort distribution
 resort distribution
 resort distribution
 resort distribution
 resort distribution
 resort distribution
 resort distribution
 resort distribution
 resort distribution
 resort distribution
 resort distribution
 resort distribution
 resort distribution
 resort distribution
 resort distribution
 resort distribution
 resort distribution
 resort distribution
 resort distribution
 resort distribution
 resort distribution
 resort distribution
 resort distribution
 resort distribution
 resort distribution
 resort distribution
 resort distribution
 resort distribution
 resort distribution
 resort distribution
 resort distribution
 resort distribution
 resort distribution
 resort distribution
 resort distribution
 resort distribution
 resort distribution
 resort distribution
 resort distribution
 resort distribution
 resort distribution
 resort distribution
 resort distribution
 resort distribution
 resort distribution
 resort distribution
 resort distribution
 resort distribution
 resort distribution
 FFT: planning ...
 WAVECAR not read
 augmentation electrons   206.00978501943746     
 soft         electrons   0.0000000000000000     
 augmentation electrons   206.00978501943746     
 soft         electrons   0.0000000000000000     
 augmentation electrons   206.00978501943746     
 soft         electrons   0.0000000000000000     
 augmentation electrons   206.00978501943746     
 soft         electrons   0.0000000000000000     
 augmentation electrons   206.00978501943746     
 soft         electrons   0.0000000000000000     
 augmentation electrons   206.00978501943746     
 soft         electrons   0.0000000000000000     
 augmentation electrons   206.00978501943746     
 soft         electrons   0.0000000000000000     
 augmentation electrons   206.00978501943746     
 soft         electrons   0.0000000000000000     
 augmentation electrons   206.00978501943746     
 soft         electrons   0.0000000000000000     
 augmentation electrons   206.00978501943746     
 soft         electrons   0.0000000000000000     
 augmentation electrons   206.00978501943746     
 soft         electrons   0.0000000000000000     
 augmentation electrons   206.00978501943746     
 soft         electrons   0.0000000000000000     
 augmentation electrons   206.00978501943746     
 soft         electrons   0.0000000000000000     
 augmentation electrons   206.00978501943746     
 soft         electrons   0.0000000000000000     
 augmentation electrons   206.00978501943746     
 soft         electrons   0.0000000000000000     
 augmentation electrons   206.00978501943746     
 soft         electrons   0.0000000000000000     
 augmentation electrons   206.00978501943746     
 soft         electrons   0.0000000000000000     
 augmentation electrons   206.00978501943746     
 soft         electrons   0.0000000000000000     
 augmentation electrons   206.00978501943746     
 soft         electrons   0.0000000000000000     
 augmentation electrons   206.00978501943746     
 soft         electrons   0.0000000000000000     
 augmentation electrons   206.00978501943746     
 soft         electrons   0.0000000000000000     
 augmentation electrons   206.00978501943746     
 soft         electrons   0.0000000000000000     
 augmentation electrons   206.00978501943746     
 soft         electrons   0.0000000000000000     
 augmentation electrons   206.00978501943746     
 soft         electrons   0.0000000000000000     
 augmentation electrons   206.00978501943746     
 augmentation electrons   206.00978501943746     
 soft         electrons   0.0000000000000000     
 augmentation electrons   206.00978501943746     
 soft         electrons   0.0000000000000000     
 augmentation electrons   206.00978501943746     
 soft         electrons   0.0000000000000000     
 augmentation electrons   206.00978501943746     
 soft         electrons   0.0000000000000000     
 augmentation electrons   206.00978501943746     
 soft         electrons   0.0000000000000000     
 augmentation electrons   206.00978501943746     
 soft         electrons   0.0000000000000000     
 augmentation electrons   206.00978501943746     
 soft         electrons   0.0000000000000000     
 augmentation electrons   206.00978501943746     
 soft         electrons   0.0000000000000000     
 augmentation electrons   206.00978501943746     
 soft         electrons   0.0000000000000000     
 augmentation electrons   206.00978501943746     
 soft         electrons   0.0000000000000000     
 augmentation electrons   206.00978501943746     
 soft         electrons   0.0000000000000000     
 augmentation electrons   206.00978501943746     
 soft         electrons   0.0000000000000000     
 augmentation electrons   206.00978501943746     
 soft         electrons   0.0000000000000000     
 augmentation electrons   206.00978501943746     
 soft         electrons   0.0000000000000000     
 augmentation electrons   206.00978501943746     
 soft         electrons   0.0000000000000000     
 augmentation electrons   206.00978501943746     
 soft         electrons   0.0000000000000000     
 augmentation electrons   206.00978501943746     
 soft         electrons   0.0000000000000000     
 augmentation electrons   206.00978501943746     
 soft         electrons   0.0000000000000000     
 augmentation electrons   206.00978501943746     
 soft         electrons   0.0000000000000000     
 augmentation electrons   206.00978501943746     
 soft         electrons   0.0000000000000000     
 augmentation electrons   206.00978501943746     
 soft         electrons   0.0000000000000000     
 augmentation electrons   206.00978501943746     
 soft         electrons   0.0000000000000000     
 augmentation electrons   206.00978501943746     
 soft         electrons   0.0000000000000000     
 augmentation electrons   206.00978501943746     
 soft         electrons   0.0000000000000000     
 augmentation electrons   206.00978501943746     
 soft         electrons   0.0000000000000000     
 augmentation electrons   206.00978501943746     
 soft         electrons   0.0000000000000000     
 augmentation electrons   206.00978501943746     
 soft         electrons   0.0000000000000000     
 augmentation electrons   206.00978501943746     
 soft         electrons   0.0000000000000000     
 augmentation electrons   206.00978501943746     
 soft         electrons   0.0000000000000000     
 soft         electrons   0.0000000000000000     
 total        electrons   206.00978501943746     
 total        electrons   206.00978501943746     
 total        electrons   206.00978501943746     
 total        electrons   206.00978501943746     
 total        electrons   206.00978501943746     
 total        electrons   206.00978501943746     
 total        electrons   206.00978501943746     
 total        electrons   206.00978501943746     
 total        electrons   206.00978501943746     
 total        electrons   206.00978501943746     
 total        electrons   206.00978501943746     
 total        electrons   206.00978501943746     
 total        electrons   206.00978501943746     
 total        electrons   206.00978501943746     
 total        electrons   206.00978501943746     
 total        electrons   206.00978501943746     
 total        electrons   206.00978501943746     
 total        electrons   206.00978501943746     
 total        electrons   206.00978501943746     
 total        electrons   206.00978501943746     
 total        electrons   206.00978501943746     
 total        electrons   206.00978501943746     
 total        electrons   206.00978501943746     
 total        electrons   206.00978501943746     
 total        electrons   206.00978501943746     
 total        electrons   206.00978501943746     
 total        electrons   206.00978501943746     
 total        electrons   206.00978501943746     
 total        electrons   206.00978501943746     
 total        electrons   206.00978501943746     
 total        electrons   206.00978501943746     
 total        electrons   206.00978501943746     
 total        electrons   206.00978501943746     
 total        electrons   206.00978501943746     
 total        electrons   206.00978501943746     
 total        electrons   206.00978501943746     
 total        electrons   206.00978501943746     
 total        electrons   206.00978501943746     
 total        electrons   206.00978501943746     
 total        electrons   206.00978501943746     
 total        electrons   206.00978501943746     
 total        electrons   206.00978501943746     
 total        electrons   206.00978501943746     
 total        electrons   206.00978501943746     
 total        electrons   206.00978501943746     
 total        electrons   206.00978501943746     
 total        electrons   206.00978501943746     
 total        electrons   206.00978501943746     
 total        electrons   206.00978501943746     
 total        electrons   206.00978501943746     
 total        electrons   206.00978501943746     
 total        electrons   206.00978501943746     
 total        electrons   206.00978501943746     
 total        electrons   206.00978501943746     
 augmentation electrons   593.14074047171562     
 soft         electrons   0.0000000000000000     
 augmentation electrons   593.14074047171562     
 soft         electrons   0.0000000000000000     
 augmentation electrons   593.14074047171562     
 soft         electrons   0.0000000000000000     
 augmentation electrons   593.14074047171562     
 soft         electrons   0.0000000000000000     
 augmentation electrons   593.14074047171562     
 soft         electrons   0.0000000000000000     
 augmentation electrons   593.14074047171562     
 soft         electrons   0.0000000000000000     
 augmentation electrons   593.14074047171562     
 soft         electrons   0.0000000000000000     
 augmentation electrons   593.14074047171562     
 soft         electrons   0.0000000000000000     
 augmentation electrons   593.14074047171562     
 soft         electrons   0.0000000000000000     
 augmentation electrons   593.14074047171562     
 soft         electrons   0.0000000000000000     
 augmentation electrons   593.14074047171562     
 soft         electrons   0.0000000000000000     
 augmentation electrons   593.14074047171562     
 soft         electrons   0.0000000000000000     
 augmentation electrons   593.14074047171562     
 soft         electrons   0.0000000000000000     
 augmentation electrons   593.14074047171562     
 soft         electrons   0.0000000000000000     
 augmentation electrons   593.14074047171562     
 soft         electrons   0.0000000000000000     
 augmentation electrons   593.14074047171562     
 soft         electrons   0.0000000000000000     
 augmentation electrons   593.14074047171562     
 soft         electrons   0.0000000000000000     
 augmentation electrons   593.14074047171562     
 soft         electrons   0.0000000000000000     
 augmentation electrons   593.14074047171562     
 soft         electrons   0.0000000000000000     
 augmentation electrons   593.14074047171562     
 soft         electrons   0.0000000000000000     
 augmentation electrons   593.14074047171562     
 soft         electrons   0.0000000000000000     
 augmentation electrons   593.14074047171562     
 soft         electrons   0.0000000000000000     
 augmentation electrons   593.14074047171562     
 soft         electrons   0.0000000000000000     
 augmentation electrons   593.14074047171562     
 soft         electrons   0.0000000000000000     
 augmentation electrons   593.14074047171562     
 soft         electrons   0.0000000000000000     
 augmentation electrons   593.14074047171562     
 soft         electrons   0.0000000000000000     
 augmentation electrons   593.14074047171562     
 soft         electrons   0.0000000000000000     
 augmentation electrons   593.14074047171562     
 soft         electrons   0.0000000000000000     
 augmentation electrons   593.14074047171562     
 soft         electrons   0.0000000000000000     
 augmentation electrons   593.14074047171562     
 soft         electrons   0.0000000000000000     
 augmentation electrons   593.14074047171562     
 soft         electrons   0.0000000000000000     
 augmentation electrons   593.14074047171562     
 soft         electrons   0.0000000000000000     
 augmentation electrons   593.14074047171562     
 soft         electrons   0.0000000000000000     
 augmentation electrons   593.14074047171562     
 soft         electrons   0.0000000000000000     
 augmentation electrons   593.14074047171562     
 soft         electrons   0.0000000000000000     
 augmentation electrons   593.14074047171562     
 soft         electrons   0.0000000000000000     
 augmentation electrons   593.14074047171562     
 soft         electrons   0.0000000000000000     
 augmentation electrons   593.14074047171562     
 soft         electrons   0.0000000000000000     
 augmentation electrons   593.14074047171562     
 soft         electrons   0.0000000000000000     
 augmentation electrons   593.14074047171562     
 soft         electrons   0.0000000000000000     
 augmentation electrons   593.14074047171562     
 soft         electrons   0.0000000000000000     
 augmentation electrons   593.14074047171562     
 soft         electrons   0.0000000000000000     
 augmentation electrons   593.14074047171562     
 soft         electrons   0.0000000000000000     
 augmentation electrons   593.14074047171562     
 soft         electrons   0.0000000000000000     
 augmentation electrons   593.14074047171562     
 soft         electrons   0.0000000000000000     
 augmentation electrons   593.14074047171562     
 soft         electrons   0.0000000000000000     
 augmentation electrons   593.14074047171562     
 soft         electrons   0.0000000000000000     
 augmentation electrons   593.14074047171562     
 soft         electrons   0.0000000000000000     
 augmentation electrons   593.14074047171562     
 soft         electrons   0.0000000000000000     
 augmentation electrons   593.14074047171562     
 soft         electrons   0.0000000000000000     
 augmentation electrons   593.14074047171562     
 soft         electrons   0.0000000000000000     
 augmentation electrons   593.14074047171562     
 soft         electrons   0.0000000000000000     
 augmentation electrons   593.14074047171562     
 soft         electrons   0.0000000000000000     
 augmentation electrons   593.14074047171562     
 soft         electrons   0.0000000000000000     
 total        electrons   593.14074047171562     
 total        electrons   593.14074047171562     
 total        electrons   593.14074047171562     
 total        electrons   593.14074047171562     
 total        electrons   593.14074047171562     
 total        electrons   593.14074047171562     
 total        electrons   593.14074047171562     
 total        electrons   593.14074047171562     
 total        electrons   593.14074047171562     
 total        electrons   593.14074047171562     
 total        electrons   593.14074047171562     
 total        electrons   593.14074047171562     
 total        electrons   593.14074047171562     
 total        electrons   593.14074047171562     
 total        electrons   593.14074047171562     
 total        electrons   593.14074047171562     
 total        electrons   593.14074047171562     
 total        electrons   593.14074047171562     
 total        electrons   593.14074047171562     
 total        electrons   593.14074047171562     
 total        electrons   593.14074047171562     
 total        electrons   593.14074047171562     
 total        electrons   593.14074047171562     
 total        electrons   593.14074047171562     
 total        electrons   593.14074047171562     
 total        electrons   593.14074047171562     
 total        electrons   593.14074047171562     
 total        electrons   593.14074047171562     
 total        electrons   593.14074047171562     
 total        electrons   593.14074047171562     
 total        electrons   593.14074047171562     
 total        electrons   593.14074047171562     
 total        electrons   593.14074047171562     
 total        electrons   593.14074047171562     
 total        electrons   593.14074047171562     
 total        electrons   593.14074047171562     
 total        electrons   593.14074047171562     
 total        electrons   593.14074047171562     
 total        electrons   593.14074047171562     
 total        electrons   593.14074047171562     
 total        electrons   593.14074047171562     
 total        electrons   593.14074047171562     
 total        electrons   593.14074047171562     
 total        electrons   593.14074047171562     
 total        electrons   593.14074047171562     
 total        electrons   593.14074047171562     
 total        electrons   593.14074047171562     
 total        electrons   593.14074047171562     
 total        electrons   593.14074047171562     
 total        electrons   593.14074047171562     
 total        electrons   593.14074047171562     
 total        electrons   593.14074047171562     
 total        electrons   593.14074047171562     
 total        electrons   593.14074047171562     
 entering main loop
       N       E                     dE             d eps       ncg     rms          rms(c)
DAV:   1     0.136697778193E+04    0.13670E+04   -0.81951E+04 11316   0.130E+03
DAV:   2    -0.292485089156E+03   -0.16595E+04   -0.15599E+04 12450   0.323E+02
DAV:   3    -0.500980952064E+03   -0.20850E+03   -0.19753E+03 15780   0.112E+02
DAV:   4    -0.513888508560E+03   -0.12908E+02   -0.12561E+02 17124   0.297E+01
DAV:   5    -0.514425254764E+03   -0.53675E+00   -0.52962E+00 17340   0.522E+00    0.118E+02
RMM:   6    -0.488343425894E+03    0.26082E+02   -0.63695E+02 18089   0.698E+01    0.694E+01
RMM:   7    -0.561565753556E+03   -0.73222E+02   -0.25490E+02 17524   0.340E+01    0.464E+01
RMM:   8    -0.487279581363E+03    0.74286E+02   -0.12331E+02 17707   0.219E+01    0.390E+01
RMM:   9    -0.450887488040E+03    0.36392E+02   -0.30287E+01 14259   0.176E+01    0.229E+01
RMM:  10    -0.453680636492E+03   -0.27931E+01   -0.25161E+01 17744   0.100E+01    0.226E+01
RMM:  11    -0.443569427224E+03    0.10111E+02   -0.46588E+00 17238   0.411E+00    0.159E+01
RMM:  12    -0.443616785954E+03   -0.47359E-01   -0.51415E-01 15065   0.204E+00    0.149E+01
RMM:  13    -0.443543108996E+03    0.73677E-01   -0.13548E-01 16346   0.796E-01    0.142E+01
RMM:  14    -0.442912282262E+03    0.63083E+00   -0.63533E-01 13070   0.317E+00    0.986E+00
RMM:  15    -0.442392822846E+03    0.51946E+00   -0.12005E+00 15537   0.294E+00    0.510E+00
RMM:  16    -0.442289415324E+03    0.10341E+00   -0.48089E-01 16830   0.145E+00    0.330E+00
RMM:  17    -0.442383605017E+03   -0.94190E-01   -0.16663E-01 12232   0.160E+00    0.357E+00
RMM:  18    -0.442464775484E+03   -0.81170E-01   -0.75658E-01 12263   0.356E+00    0.460E+00
RMM:  19    -0.442264425085E+03    0.20035E+00   -0.81798E-02 12475   0.116E+00    0.145E+00
RMM:  20    -0.442261910137E+03    0.25149E-02   -0.42045E-02 17289   0.267E-01    0.133E+00
RMM:  21    -0.442242813063E+03    0.19097E-01   -0.17162E-02 12822   0.439E-01    0.198E-01
RMM:  22    -0.442248445575E+03   -0.56325E-02   -0.24643E-02 16699   0.308E-01    0.574E-01
RMM:  23    -0.442246983872E+03    0.14617E-02   -0.11230E-03 16149   0.822E-02    0.325E-01
RMM:  24    -0.442250839011E+03   -0.38551E-02   -0.18082E-03 16379   0.817E-02    0.458E-01
RMM:  25    -0.442250093649E+03    0.74536E-03   -0.57892E-04 12902   0.902E-02    0.266E-01
RMM:  26    -0.442250225566E+03   -0.13192E-03   -0.41751E-04 16976   0.394E-02    0.205E-01
RMM:  27    -0.442250199225E+03    0.26342E-04   -0.38288E-04 14137   0.582E-02    0.680E-02
RMM:  28    -0.442250358900E+03   -0.15968E-03   -0.30673E-04 17039   0.290E-02    0.217E-02
RMM:  29    -0.442250377666E+03   -0.18766E-04   -0.40095E-05 14658   0.897E-03    0.950E-03
RMM:  30    -0.442250382843E+03   -0.51768E-05   -0.41028E-06 10699   0.563E-03    0.106E-02
RMM:  31    -0.442250385593E+03   -0.27503E-05   -0.25552E-06  9680   0.433E-03    0.416E-03
RMM:  32    -0.442250387679E+03   -0.20858E-05   -0.34616E-06 10044   0.521E-03    0.734E-03
RMM:  33    -0.442250387668E+03    0.10892E-07   -0.74748E-07  8135   0.412E-03
   1 F= -.44225039E+03 E0= -.44225100E+03  d E =0.183552E-02
 augmentation electrons   17.041379707273254     
 soft         electrons   189.01268875372676     
 total        electrons   206.05406846100001     
 augmentation electrons   17.041379707273254     
 soft         electrons   189.01268875372676     
 total        electrons   206.05406846100001     
 augmentation electrons   17.041379707273254     
 soft         electrons   189.01268875372676     
 total        electrons   206.05406846100001     
 augmentation electrons   17.041379707273254     
 soft         electrons   189.01268875372676     
 total        electrons   206.05406846100001     
 augmentation electrons   17.041379707273254     
 soft         electrons   189.01268875372676     
 total        electrons   206.05406846100001     
 augmentation electrons   17.041379707273254     
 soft         electrons   189.01268875372676     
 total        electrons   206.05406846100001     
 augmentation electrons   17.041379707273254     
 soft         electrons   189.01268875372676     
 total        electrons   206.05406846100001     
 augmentation electrons   17.041379707273254     
 soft         electrons   189.01268875372676     
 total        electrons   206.05406846100001     
 augmentation electrons   17.041379707273254     
 soft         electrons   189.01268875372676     
 total        electrons   206.05406846100001     
 augmentation electrons   17.041379707273254     
 soft         electrons   189.01268875372676     
 total        electrons   206.05406846100001     
 augmentation electrons   17.041379707273254     
 soft         electrons   189.01268875372676     
 total        electrons   206.05406846100001     
 augmentation electrons   17.041379707273254     
 soft         electrons   189.01268875372676     
 total        electrons   206.05406846100001     
 augmentation electrons   17.041379707273254     
 soft         electrons   189.01268875372676     
 total        electrons   206.05406846100001     
 augmentation electrons   17.041379707273254     
 soft         electrons   189.01268875372676     
 total        electrons   206.05406846100001     
 augmentation electrons   17.041379707273254     
 soft         electrons   189.01268875372676     
 total        electrons   206.05406846100001     
 augmentation electrons   17.041379707273254     
 soft         electrons   189.01268875372676     
 total        electrons   206.05406846100001     
 augmentation electrons   17.041379707273254     
 soft         electrons   189.01268875372676     
 total        electrons   206.05406846100001     
 augmentation electrons   17.041379707273254     
 soft         electrons   189.01268875372676     
 total        electrons   206.05406846100001     
 augmentation electrons   17.041379707273254     
 soft         electrons   189.01268875372676     
 total        electrons   206.05406846100001     
 augmentation electrons   17.041379707273254     
 soft         electrons   189.01268875372676     
 total        electrons   206.05406846100001     
 augmentation electrons   17.041379707273254     
 soft         electrons   189.01268875372676     
 total        electrons   206.05406846100001     
 augmentation electrons   17.041379707273254     
 soft         electrons   189.01268875372676     
 total        electrons   206.05406846100001     
 augmentation electrons   17.041379707273254     
 soft         electrons   189.01268875372676     
 total        electrons   206.05406846100001     
 augmentation electrons   17.041379707273254     
 soft         electrons   189.01268875372676     
 total        electrons   206.05406846100001     
 augmentation electrons   17.041379707273254     
 soft         electrons   189.01268875372676     
 total        electrons   206.05406846100001     
 augmentation electrons   17.041379707273254     
 soft         electrons   189.01268875372676     
 total        electrons   206.05406846100001     
 augmentation electrons   17.041379707273254     
 soft         electrons   189.01268875372676     
 total        electrons   206.05406846100001     
 augmentation electrons   17.041379707273254     
 soft         electrons   189.01268875372676     
 total        electrons   206.05406846100001     
 augmentation electrons   17.041379707273254     
 soft         electrons   189.01268875372676     
 total        electrons   206.05406846100001     
 augmentation electrons   17.041379707273254     
 soft         electrons   189.01268875372676     
 total        electrons   206.05406846100001     
 augmentation electrons   17.041379707273254     
 soft         electrons   189.01268875372676     
 total        electrons   206.05406846100001     
 augmentation electrons   17.041379707273254     
 soft         electrons   189.01268875372676     
 total        electrons   206.05406846100001     
 augmentation electrons   17.041379707273254     
 soft         electrons   189.01268875372676     
 total        electrons   206.05406846100001     
 augmentation electrons   17.041379707273254     
 soft         electrons   189.01268875372676     
 total        electrons   206.05406846100001     
 augmentation electrons   17.041379707273254     
 soft         electrons   189.01268875372676     
 total        electrons   206.05406846100001     
 augmentation electrons   17.041379707273254     
 soft         electrons   189.01268875372676     
 total        electrons   206.05406846100001     
 augmentation electrons   17.041379707273254     
 soft         electrons   189.01268875372676     
 total        electrons   206.05406846100001     
 augmentation electrons   17.041379707273254     
 soft         electrons   189.01268875372676     
 total        electrons   206.05406846100001     
 augmentation electrons   17.041379707273254     
 soft         electrons   189.01268875372676     
 total        electrons   206.05406846100001     
 augmentation electrons   17.041379707273254     
 soft         electrons   189.01268875372676     
 total        electrons   206.05406846100001     
 augmentation electrons   17.041379707273254     
 soft         electrons   189.01268875372676     
 total        electrons   206.05406846100001     
 augmentation electrons   17.041379707273254     
 soft         electrons   189.01268875372676     
 total        electrons   206.05406846100001     
 augmentation electrons   17.041379707273254     
 soft         electrons   189.01268875372676     
 total        electrons   206.05406846100001     
 augmentation electrons   17.041379707273254     
 soft         electrons   189.01268875372676     
 total        electrons   206.05406846100001     
 augmentation electrons   17.041379707273254     
 soft         electrons   189.01268875372676     
 total        electrons   206.05406846100001     
 augmentation electrons   17.041379707273254     
 soft         electrons   189.01268875372676     
 total        electrons   206.05406846100001     
 augmentation electrons   17.041379707273254     
 soft         electrons   189.01268875372676     
 total        electrons   206.05406846100001     
 augmentation electrons   17.041379707273254     
 soft         electrons   189.01268875372676     
 total        electrons   206.05406846100001     
 augmentation electrons   17.041379707273254     
 soft         electrons   189.01268875372676     
 total        electrons   206.05406846100001     
 augmentation electrons   17.041379707273254     
 soft         electrons   189.01268875372676     
 total        electrons   206.05406846100001     
 augmentation electrons   17.041379707273254     
 soft         electrons   189.01268875372676     
 total        electrons   206.05406846100001     
 augmentation electrons   17.041379707273254     
 soft         electrons   189.01268875372676     
 total        electrons   206.05406846100001     
 augmentation electrons   17.041379707273254     
 soft         electrons   189.01268875372676     
 augmentation electrons   17.041379707273254     
 soft         electrons   189.01268875372676     
 total        electrons   206.05406846100001     
 total        electrons   206.05406846100001     
Note: The following floating-point exceptions are signalling: IEEE_OVERFLOW_FLAG
Note: The following floating-point exceptions are signalling: IEEE_OVERFLOW_FLAG
Note: The following floating-point exceptions are signalling: IEEE_OVERFLOW_FLAG
Note: The following floating-point exceptions are signalling: IEEE_OVERFLOW_FLAG
Note: The following floating-point exceptions are signalling: IEEE_OVERFLOW_FLAG
Note: The following floating-point exceptions are signalling: IEEE_OVERFLOW_FLAG
Note: The following floating-point exceptions are signalling: IEEE_OVERFLOW_FLAG
Note: The following floating-point exceptions are signalling: IEEE_OVERFLOW_FLAG
Note: The following floating-point exceptions are signalling: IEEE_OVERFLOW_FLAG
Note: The following floating-point exceptions are signalling: IEEE_OVERFLOW_FLAG
Note: The following floating-point exceptions are signalling: IEEE_OVERFLOW_FLAG
Note: The following floating-point exceptions are signalling: IEEE_OVERFLOW_FLAG
Note: The following floating-point exceptions are signalling: IEEE_OVERFLOW_FLAG
Note: The following floating-point exceptions are signalling: IEEE_OVERFLOW_FLAG
Note: The following floating-point exceptions are signalling: IEEE_OVERFLOW_FLAG
Note: The following floating-point exceptions are signalling: IEEE_OVERFLOW_FLAG
Note: The following floating-point exceptions are signalling: IEEE_OVERFLOW_FLAG
Note: The following floating-point exceptions are signalling: IEEE_OVERFLOW_FLAG
Note: The following floating-point exceptions are signalling: IEEE_OVERFLOW_FLAG
Note: The following floating-point exceptions are signalling: IEEE_OVERFLOW_FLAG
Note: The following floating-point exceptions are signalling: IEEE_OVERFLOW_FLAG
Note: The following floating-point exceptions are signalling: IEEE_OVERFLOW_FLAG
Note: The following floating-point exceptions are signalling: IEEE_OVERFLOW_FLAG
Note: The following floating-point exceptions are signalling: IEEE_OVERFLOW_FLAG
Note: The following floating-point exceptions are signalling: IEEE_OVERFLOW_FLAG
Note: The following floating-point exceptions are signalling: IEEE_OVERFLOW_FLAG
Note: The following floating-point exceptions are signalling: IEEE_OVERFLOW_FLAG
Note: The following floating-point exceptions are signalling: IEEE_OVERFLOW_FLAG
Note: The following floating-point exceptions are signalling: IEEE_OVERFLOW_FLAG
Note: The following floating-point exceptions are signalling: IEEE_OVERFLOW_FLAG
Note: The following floating-point exceptions are signalling: IEEE_OVERFLOW_FLAG
Note: The following floating-point exceptions are signalling: IEEE_OVERFLOW_FLAG
Note: The following floating-point exceptions are signalling: IEEE_OVERFLOW_FLAG
Note: The following floating-point exceptions are signalling: IEEE_OVERFLOW_FLAG
Note: The following floating-point exceptions are signalling: IEEE_OVERFLOW_FLAG
Note: The following floating-point exceptions are signalling: IEEE_OVERFLOW_FLAG
Note: The following floating-point exceptions are signalling: IEEE_OVERFLOW_FLAG
Note: The following floating-point exceptions are signalling: IEEE_OVERFLOW_FLAG
Note: The following floating-point exceptions are signalling: IEEE_OVERFLOW_FLAG
Note: The following floating-point exceptions are signalling: IEEE_OVERFLOW_FLAG
Note: The following floating-point exceptions are signalling: IEEE_OVERFLOW_FLAG
Note: The following floating-point exceptions are signalling: IEEE_OVERFLOW_FLAG
Note: The following floating-point exceptions are signalling: IEEE_OVERFLOW_FLAG
Note: The following floating-point exceptions are signalling: IEEE_OVERFLOW_FLAG
Note: The following floating-point exceptions are signalling: IEEE_OVERFLOW_FLAG
Note: The following floating-point exceptions are signalling: IEEE_OVERFLOW_FLAG
Note: The following floating-point exceptions are signalling: IEEE_OVERFLOW_FLAG
Note: The following floating-point exceptions are signalling: IEEE_OVERFLOW_FLAG
Note: The following floating-point exceptions are signalling: IEEE_OVERFLOW_FLAG
Note: The following floating-point exceptions are signalling: IEEE_OVERFLOW_FLAG
Note: The following floating-point exceptions are signalling: IEEE_OVERFLOW_FLAG
Note: The following floating-point exceptions are signalling: IEEE_OVERFLOW_FLAG
Note: The following floating-point exceptions are signalling: IEEE_OVERFLOW_FLAG
Note: The following floating-point exceptions are signalling: IEEE_OVERFLOW_FLAG
