   36   36   60    1
  0.8205287E+01  0.6085000E-09  0.6085000E-09  0.9211800E-09  0.5000000E-15
   1.0000000000000000E-004
  CAR 
 Name                                    
    138    125     90

  0.3742002E-15  0.3742002E-15  0.3742002E-15  0.1371742E-02
    1       -5.703089   1.000000
    2       -4.285236   1.000000
    3       -4.285227   1.000000
    4       -2.169467   1.000000
    5       -2.169450   1.000000
    6       -1.994776   1.000000
    7       -1.994756   1.000000
    8       -1.796398   1.000000
    9       -1.796377   1.000000
   10       -1.742365   1.000000
   11       -1.734932   1.000000
   12       -1.719941   1.000000
   13       -1.398321   1.000000
   14       -1.343272   1.000000
   15       -1.235168   1.000000
   16       -0.419053   1.000000
   17       -0.419044   1.000000
   18       -0.250590   1.000000
   19       -0.250583   1.000000
   20       -0.128695   1.000000
   21       -0.128687   1.000000
   22        1.234110   1.000000
   23        1.234119   1.000000
   24        2.840834   1.000000
   25        2.840845   1.000000
   26        3.047100   1.000000
   27        3.047113   1.000000
   28        3.336793   1.000000
   29        3.336807   1.000000
   30        3.809744   1.000000
   31        3.809757   1.000000
   32        3.865029   1.000000
   33        3.909448   1.000000
   34        3.993936   1.000000
   35        3.993950   1.000000
   36        4.212426   1.000000
   37        4.442805   1.000000
   38        4.442822   1.000000
   39        4.557753   1.000000
   40        4.586150   1.000000
   41        4.613120   1.000000
   42        4.637666   1.000000
   43        4.656244   1.000000
   44        4.656252   1.000000
   45        4.667461   1.000000
   46        4.710145   1.000000
   47        4.742974   1.000000
   48        4.742982   1.000000
   49        4.765309   1.000000
   50        4.829023   1.000000
   51        4.829031   1.000000
   52        4.876499   1.000000
   53        5.681954   1.000000
   54        5.899997   1.000000
   55        5.900004   1.000000
   56        6.088831   1.000000
   57        6.088839   1.000000
   58        6.097115   1.000000
   59        7.290838   1.000000
   60        7.290857   1.000000
   61        7.301551   1.000000
   62        7.301570   1.000000
   63        8.571756   1.000000
   64        8.578820   1.000000
   65        8.666896   1.000000
   66        8.666905   1.000000
   67        8.758612   1.000010
   68        9.235885  -0.031551
   69        9.271333  -0.015996
   70        9.299102  -0.007053
   71        9.299105  -0.007053
   72        9.326764  -0.002544
   73        9.326768  -0.002544
   74        9.564047  -0.000000
   75        9.564057  -0.000000
   76        9.587111  -0.000000
   77        9.587117  -0.000000
   78        9.592168  -0.000000
   79        9.592176  -0.000000
   80        9.977298  -0.000000
   81       10.039036  -0.000000
   82       10.122742  -0.000000
   83       10.136591  -0.000000
   84       10.136610  -0.000000
   85       10.242556  -0.000000
   86       10.242574  -0.000000
   87       10.337537  -0.000000
   88       10.337554  -0.000000
   89       10.628263  -0.000000
   90       10.647899  -0.000000

  0.1111111E+00  0.3722101E-15  0.3742002E-15  0.5486968E-02
    1       -5.643318   1.000000
    2       -4.243786   1.000000
    3       -4.243777   1.000000
    4       -2.333957   1.000000
    5       -2.254953   1.000000
    6       -2.254936   1.000000
    7       -2.013171   1.000000
    8       -2.013152   1.000000
    9       -1.933286   1.000000
   10       -1.924769   1.000000
   11       -1.923931   1.000000
   12       -1.923913   1.000000
   13       -1.058311   1.000000
   14       -1.049728   1.000000
   15       -0.674504   1.000000
   16       -0.230325   1.000000
   17       -0.230318   1.000000
   18       -0.181154   1.000000
   19       -0.181147   1.000000
   20        0.003569   1.000000
   21        0.003578   1.000000
   22        1.290182   1.000000
   23        1.290191   1.000000
   24        2.810440   1.000000
   25        2.810452   1.000000
   26        2.958780   1.000000
   27        2.958792   1.000000
   28        3.329330   1.000000
   29        3.329344   1.000000
   30        3.634969   1.000000
   31        3.798225   1.000000
   32        3.798238   1.000000
   33        3.907131   1.000000
   34        3.916849   1.000000
   35        4.005406   1.000000
   36        4.005420   1.000000
   37        4.254480   1.000000
   38        4.322363   1.000000
   39        4.322376   1.000000
   40        4.424902   1.000000
   41        4.616311   1.000000
   42        4.616319   1.000000
   43        4.630354   1.000000
   44        4.636158   1.000000
   45        4.676288   1.000000
   46        4.774976   1.000000
   47        4.774984   1.000000
   48        4.778609   1.000000
   49        4.859409   1.000000
   50        4.878372   1.000000
   51        4.878382   1.000000
   52        5.461315   1.000000
   53        5.633138   1.000000
   54        5.633143   1.000000
   55        5.893515   1.000000
   56        5.893520   1.000000
   57        5.925421   1.000000
   58        5.982664   1.000000
   59        7.246027   1.000000
   60        7.246037   1.000000
   61        7.372364   1.000000
   62        7.372375   1.000000
   63        8.363282   1.000000
   64        8.402146   1.000000
   65        8.715425   1.000001
   66        8.763336   1.000014
   67        8.763345   1.000014
   68        9.224778  -0.034769
   69        9.392938  -0.000106
   70        9.392939  -0.000106
   71        9.418029  -0.000025
   72        9.509767  -0.000000
   73        9.509769  -0.000000
   74        9.540404  -0.000000
   75        9.540412  -0.000000
   76        9.616064  -0.000000
   77        9.616072  -0.000000
   78        9.629085  -0.000000
   79        9.629094  -0.000000
   80        9.930045  -0.000000
   81        9.957931  -0.000000
   82       10.051990  -0.000000
   83       10.052008  -0.000000
   84       10.077708  -0.000000
   85       10.235737  -0.000000
   86       10.235754  -0.000000
   87       10.245193  -0.000000
   88       10.245210  -0.000000
   89       10.547761  -0.000000
   90       10.574614  -0.000000

  0.2222222E+00  0.3369336E-15  0.3742002E-15  0.5486968E-02
    1       -5.465549   1.000000
    2       -4.121254   1.000000
    3       -4.121245   1.000000
    4       -3.044192   1.000000
    5       -2.560377   1.000000
    6       -2.560363   1.000000
    7       -2.175404   1.000000
    8       -2.169699   1.000000
    9       -2.055808   1.000000
   10       -2.055790   1.000000
   11       -2.046206   1.000000
   12       -2.046189   1.000000
   13       -0.578494   1.000000
   14       -0.565277   1.000000
   15        0.002666   1.000000
   16        0.002675   1.000000
   17        0.005579   1.000000
   18        0.005589   1.000000
   19        0.144118   1.000000
   20        0.504530   1.000000
   21        0.504539   1.000000
   22        1.456162   1.000000
   23        1.456171   1.000000
   24        2.668031   1.000000
   25        2.668041   1.000000
   26        2.721194   1.000000
   27        2.721205   1.000000
   28        3.048353   1.000000
   29        3.151628   1.000000
   30        3.386228   1.000000
   31        3.386241   1.000000
   32        3.674004   1.000000
   33        3.674014   1.000000
   34        3.991030   1.000000
   35        4.004095   1.000000
   36        4.004106   1.000000
   37        4.068556   1.000000
   38        4.135783   1.000000
   39        4.135791   1.000000
   40        4.371933   1.000000
   41        4.527016   1.000000
   42        4.527023   1.000000
   43        4.662818   1.000000
   44        4.677199   1.000000
   45        4.703233   1.000000
   46        4.790010   1.000000
   47        4.790018   1.000000
   48        4.902781   1.000000
   49        4.985532   1.000000
   50        4.990634   1.000000
   51        4.990638   1.000000
   52        5.066844   1.000000
   53        5.066855   1.000000
   54        5.514288   1.000000
   55        5.514295   1.000000
   56        5.698990   1.000000
   57        6.177936   1.000000
   58        6.430448   1.000000
   59        7.021731   1.000000
   60        7.021731   1.000000
   61        7.579854   1.000000
   62        7.579855   1.000000
   63        7.893583   1.000000
   64        7.940100   1.000000
   65        8.742770   1.000004
   66        8.854745   1.001749
   67        8.854753   1.001749
   68        9.172132   0.018467
   69        9.441211  -0.000006
   70        9.441219  -0.000006
   71        9.649396  -0.000000
   72        9.649407  -0.000000
   73        9.659389  -0.000000
   74        9.659400  -0.000000
   75        9.673876  -0.000000
   76        9.683621  -0.000000
   77        9.697417  -0.000000
   78        9.697433  -0.000000
   79        9.750032  -0.000000
   80        9.750037  -0.000000
   81        9.839180  -0.000000
   82        9.967130  -0.000000
   83        9.967134  -0.000000
   84        9.990778  -0.000000
   85       10.232422  -0.000000
   86       10.232437  -0.000000
   87       10.260341  -0.000000
   88       10.268739  -0.000000
   89       10.268753  -0.000000
   90       10.449280  -0.000000

  0.3333333E+00  0.3962256E-15  0.3742002E-15  0.5486968E-02
    1       -5.174267   1.000000
    2       -3.922623   1.000000
    3       -3.922612   1.000000
    4       -3.699678   1.000000
    5       -2.952901   1.000000
    6       -2.952888   1.000000
    7       -2.345021   1.000000
    8       -2.341235   1.000000
    9       -2.100986   1.000000
   10       -2.100970   1.000000
   11       -2.098870   1.000000
   12       -2.098853   1.000000
   13       -0.041532   1.000000
   14       -0.026345   1.000000
   15        0.234179   1.000000
   16        0.234191   1.000000
   17        0.235770   1.000000
   18        0.235781   1.000000
   19        0.981531   1.000000
   20        1.174320   1.000000
   21        1.174328   1.000000
   22        1.719438   1.000000
   23        1.719447   1.000000
   24        2.393635   1.000000
   25        2.413060   1.000000
   26        2.413070   1.000000
   27        2.430611   1.000000
   28        2.430621   1.000000
   29        2.431809   1.000000
   30        3.326558   1.000000
   31        3.326566   1.000000
   32        3.369096   1.000000
   33        3.562006   1.000000
   34        3.562016   1.000000
   35        3.843356   1.000000
   36        3.843359   1.000000
   37        4.100846   1.000000
   38        4.100851   1.000000
   39        4.215371   1.000000
   40        4.215374   1.000000
   41        4.308180   1.000000
   42        4.534376   1.000000
   43        4.562141   1.000000
   44        4.562141   1.000000
   45        4.708472   1.000000
   46        4.733519   1.000000
   47        4.733848   1.000000
   48        4.824437   1.000000
   49        4.824447   1.000000
   50        5.060525   1.000000
   51        5.117521   1.000000
   52        5.125387   1.000000
   53        5.125390   1.000000
   54        5.342479   1.000000
   55        5.353557   1.000000
   56        5.353569   1.000000
   57        6.633825   1.000000
   58        6.633831   1.000000
   59        6.855948   1.000000
   60        6.979516   1.000000
   61        7.438106   1.000000
   62        7.474565   1.000000
   63        7.893555   1.000000
   64        7.893563   1.000000
   65        8.811217   1.000221
   66        8.906296   1.011223
   67        8.906304   1.011226
   68        9.093133   0.518214
   69        9.189394  -0.017883
   70        9.209013  -0.034133
   71        9.217331  -0.035455
   72        9.217345  -0.035455
   73        9.294654  -0.008159
   74        9.294662  -0.008157
   75        9.607490  -0.000000
   76        9.607502  -0.000000
   77        9.609944  -0.000000
   78        9.609956  -0.000000
   79        9.924435  -0.000000
   80        9.957044  -0.000000
   81       10.186115  -0.000000
   82       10.196919  -0.000000
   83       10.196921  -0.000000
   84       10.312512  -0.000000
   85       10.312526  -0.000000
   86       10.402022  -0.000000
   87       10.402911  -0.000000
   88       10.425968  -0.000000
   89       10.426015  -0.000000
   90       10.430700  -0.000000

  0.4444444E+00  0.3709151E-15  0.3742002E-15  0.5486968E-02
    1       -4.776501   1.000000
    2       -4.281369   1.000000
    3       -3.655107   1.000000
    4       -3.655096   1.000000
    5       -3.327616   1.000000
    6       -3.327604   1.000000
    7       -2.430201   1.000000
    8       -2.428849   1.000000
    9       -2.126147   1.000000
   10       -2.126132   1.000000
   11       -2.124918   1.000000
   12       -2.124903   1.000000
   13        0.409993   1.000000
   14        0.410008   1.000000
   15        0.412517   1.000000
   16        0.412531   1.000000
   17        0.439552   1.000000
   18        0.449174   1.000000
   19        1.745012   1.000000
   20        1.799532   1.000000
   21        1.799536   1.000000
   22        1.844301   1.000000
   23        1.930466   1.000000
   24        2.009006   1.000000
   25        2.009012   1.000000
   26        2.159758   1.000000
   27        2.159767   1.000000
   28        2.240581   1.000000
   29        2.240589   1.000000
   30        2.633216   1.000000
   31        3.008383   1.000000
   32        3.008389   1.000000
   33        3.259376   1.000000
   34        3.259380   1.000000
   35        3.796503   1.000000
   36        3.796505   1.000000
   37        3.988344   1.000000
   38        3.988350   1.000000
   39        4.183813   1.000000
   40        4.183816   1.000000
   41        4.378976   1.000000
   42        4.378983   1.000000
   43        4.613885   1.000000
   44        4.682195   1.000000
   45        4.742790   1.000000
   46        4.750929   1.000000
   47        4.757204   1.000000
   48        4.859224   1.000000
   49        4.859235   1.000000
   50        4.911723   1.000000
   51        4.911729   1.000000
   52        4.973175   1.000000
   53        5.182188   1.000000
   54        5.202322   1.000000
   55        5.731551   1.000000
   56        5.731563   1.000000
   57        6.176074   1.000000
   58        6.176084   1.000000
   59        7.166842   1.000000
   60        7.180756   1.000000
   61        7.402654   1.000000
   62        7.435453   1.000000
   63        8.287095   1.000000
   64        8.287106   1.000000
   65        8.716624   1.000001
   66        8.736668   1.000002
   67        8.736933   1.000002
   68        8.736946   1.000002
   69        8.900517   1.009432
   70        8.994910   1.025513
   71        8.994917   1.025505
   72        8.998566   1.021380
   73        9.130819   0.219309
   74        9.130826   0.219259
   75        9.549201  -0.000000
   76        9.549213  -0.000000
   77        9.549588  -0.000000
   78        9.549601  -0.000000
   79        9.755429  -0.000000
   80        9.836287  -0.000000
   81        9.990595  -0.000000
   82       10.148591  -0.000000
   83       10.359430  -0.000000
   84       10.359443  -0.000000
   85       10.374499  -0.000000
   86       10.374513  -0.000000
   87       10.414592  -0.000000
   88       10.427545  -0.000000
   89       10.826963  -0.000000
   90       10.826971  -0.000000

  0.1111111E+00  0.1111111E+00  0.3742002E-15  0.2743484E-02
    1       -5.524258   1.000000
    2       -4.160843   1.000000
    3       -4.160833   1.000000
    4       -2.655893   1.000000
    5       -2.651614   1.000000
    6       -2.383072   1.000000
    7       -2.383055   1.000000
    8       -2.262730   1.000000
    9       -2.262716   1.000000
   10       -1.872926   1.000000
   11       -1.872907   1.000000
   12       -1.524089   1.000000
   13       -1.257005   1.000000
   14       -0.312899   1.000000
   15       -0.238802   1.000000
   16       -0.238793   1.000000
   17       -0.175734   1.000000
   18        0.230171   1.000000
   19        0.230180   1.000000
   20        0.241364   1.000000
   21        0.241372   1.000000
   22        1.400841   1.000000
   23        1.400850   1.000000
   24        2.689652   1.000000
   25        2.689663   1.000000
   26        2.779618   1.000000
   27        2.779629   1.000000
   28        3.005374   1.000000
   29        3.405569   1.000000
   30        3.405583   1.000000
   31        3.737145   1.000000
   32        3.737157   1.000000
   33        3.805090   1.000000
   34        4.039239   1.000000
   35        4.096476   1.000000
   36        4.096486   1.000000
   37        4.116295   1.000000
   38        4.116308   1.000000
   39        4.151778   1.000000
   40        4.178896   1.000000
   41        4.366296   1.000000
   42        4.469178   1.000000
   43        4.469184   1.000000
   44        4.581171   1.000000
   45        4.616887   1.000000
   46        4.868483   1.000000
   47        4.868491   1.000000
   48        4.942444   1.000000
   49        4.942456   1.000000
   50        5.007080   1.000000
   51        5.281643   1.000000
   52        5.281646   1.000000
   53        5.471550   1.000000
   54        5.508746   1.000000
   55        5.525884   1.000000
   56        5.525890   1.000000
   57        5.764097   1.000000
   58        6.419966   1.000000
   59        7.210430   1.000000
   60        7.210434   1.000000
   61        7.384140   1.000000
   62        7.384142   1.000000
   63        7.847405   1.000000
   64        8.404410   1.000000
   65        8.580581   1.000000
   66        8.904178   1.010542
   67        8.904186   1.010544
   68        9.175907   0.008381
   69        9.486143  -0.000000
   70        9.486150  -0.000000
   71        9.521181  -0.000000
   72        9.521193  -0.000000
   73        9.524502  -0.000000
   74        9.524507  -0.000000
   75        9.715988  -0.000000
   76        9.739997  -0.000000
   77        9.740008  -0.000000
   78        9.791281  -0.000000
   79        9.837254  -0.000000
   80        9.906581  -0.000000
   81        9.906584  -0.000000
   82        9.919075  -0.000000
   83        9.958305  -0.000000
   84        9.958322  -0.000000
   85        9.981422  -0.000000
   86        9.981436  -0.000000
   87       10.358872  -0.000000
   88       10.358888  -0.000000
   89       10.441560  -0.000000
   90       10.456745  -0.000000

  0.2222222E+00  0.1111111E+00  0.3742002E-15  0.5486968E-02
    1       -5.289575   1.000000
    2       -3.999633   1.000000
    3       -3.999623   1.000000
    4       -3.340198   1.000000
    5       -2.885123   1.000000
    6       -2.723965   1.000000
    7       -2.723951   1.000000
    8       -2.437484   1.000000
    9       -2.437469   1.000000
   10       -1.775539   1.000000
   11       -1.775521   1.000000
   12       -1.607831   1.000000
   13       -0.821770   1.000000
   14       -0.194579   1.000000
   15       -0.194568   1.000000
   16        0.238032   1.000000
   17        0.526897   1.000000
   18        0.526908   1.000000
   19        0.599669   1.000000
   20        0.888189   1.000000
   21        0.888198   1.000000
   22        1.615642   1.000000
   23        1.615650   1.000000
   24        2.276251   1.000000
   25        2.370589   1.000000
   26        2.370599   1.000000
   27        2.651542   1.000000
   28        2.651552   1.000000
   29        3.233396   1.000000
   30        3.460389   1.000000
   31        3.460399   1.000000
   32        3.592032   1.000000
   33        3.592038   1.000000
   34        3.645384   1.000000
   35        3.838451   1.000000
   36        3.838459   1.000000
   37        4.061699   1.000000
   38        4.061702   1.000000
   39        4.181300   1.000000
   40        4.250882   1.000000
   41        4.275629   1.000000
   42        4.275639   1.000000
   43        4.553463   1.000000
   44        4.564654   1.000000
   45        4.624460   1.000000
   46        4.813257   1.000000
   47        4.813259   1.000000
   48        4.984552   1.000000
   49        4.984562   1.000000
   50        5.082227   1.000000
   51        5.082233   1.000000
   52        5.156662   1.000000
   53        5.156673   1.000000
   54        5.175727   1.000000
   55        5.436272   1.000000
   56        5.536009   1.000000
   57        6.178079   1.000000
   58        6.888572   1.000000
   59        6.888576   1.000000
   60        6.998320   1.000000
   61        7.289782   1.000000
   62        7.622375   1.000000
   63        7.622382   1.000000
   64        8.086943   1.000000
   65        8.598181   1.000000
   66        9.027535   0.951775
   67        9.027544   0.951742
   68        9.092194   0.526149
   69        9.212467  -0.034994
   70        9.212477  -0.034996
   71        9.411949  -0.000036
   72        9.411961  -0.000036
   73        9.419650  -0.000022
   74        9.490339  -0.000000
   75        9.669290  -0.000000
   76        9.669303  -0.000000
   77        9.710410  -0.000000
   78        9.796538  -0.000000
   79        9.796550  -0.000000
   80        9.878650  -0.000000
   81        9.878658  -0.000000
   82       10.031310  -0.000000
   83       10.031324  -0.000000
   84       10.218574  -0.000000
   85       10.257418  -0.000000
   86       10.264573  -0.000000
   87       10.419822  -0.000000
   88       10.419827  -0.000000
   89       10.420983  -0.000000
   90       10.464432  -0.000000

  0.3333333E+00  0.1111111E+00  0.3742002E-15  0.5486968E-02
    1       -4.944989   1.000000
    2       -3.960238   1.000000
    3       -3.766465   1.000000
    4       -3.766454   1.000000
    5       -3.120060   1.000000
    6       -3.120048   1.000000
    7       -3.024118   1.000000
    8       -2.504730   1.000000
    9       -2.504715   1.000000
   10       -1.726407   1.000000
   11       -1.725428   1.000000
   12       -1.725411   1.000000
   13       -0.240524   1.000000
   14       -0.102832   1.000000
   15       -0.102818   1.000000
   16        0.731693   1.000000
   17        0.824388   1.000000
   18        0.824401   1.000000
   19        1.422767   1.000000
   20        1.567486   1.000000
   21        1.585871   1.000000
   22        1.585878   1.000000
   23        1.902825   1.000000
   24        1.902831   1.000000
   25        2.096679   1.000000
   26        2.096688   1.000000
   27        2.448862   1.000000
   28        2.448870   1.000000
   29        2.642217   1.000000
   30        2.986473   1.000000
   31        3.123229   1.000000
   32        3.123234   1.000000
   33        3.460447   1.000000
   34        3.460452   1.000000
   35        3.659195   1.000000
   36        3.659198   1.000000
   37        3.855169   1.000000
   38        3.855169   1.000000
   39        4.267944   1.000000
   40        4.267950   1.000000
   41        4.309461   1.000000
   42        4.462873   1.000000
   43        4.462876   1.000000
   44        4.524931   1.000000
   45        4.531088   1.000000
   46        4.632541   1.000000
   47        4.774593   1.000000
   48        4.800307   1.000000
   49        4.800310   1.000000
   50        5.060457   1.000000
   51        5.060467   1.000000
   52        5.075182   1.000000
   53        5.347236   1.000000
   54        5.516978   1.000000
   55        5.516988   1.000000
   56        5.545765   1.000000
   57        6.444911   1.000000
   58        6.444919   1.000000
   59        6.749335   1.000000
   60        6.851680   1.000000
   61        7.593667   1.000000
   62        7.746588   1.000000
   63        7.982467   1.000000
   64        7.982477   1.000000
   65        8.716555   1.000001
   66        8.821097   1.000367
   67        8.821108   1.000368
   68        8.947515   1.028633
   69        8.977258   1.035134
   70        9.018343   0.981808
   71        9.118153   0.311980
   72        9.118161   0.311916
   73        9.262421  -0.019812
   74        9.262432  -0.019807
   75        9.441294  -0.000006
   76        9.441304  -0.000006
   77        9.598772  -0.000000
   78        9.771879  -0.000000
   79        9.771893  -0.000000
   80        9.905749  -0.000000
   81       10.134347  -0.000000
   82       10.144139  -0.000000
   83       10.148239  -0.000000
   84       10.148253  -0.000000
   85       10.298311  -0.000000
   86       10.354982  -0.000000
   87       10.354989  -0.000000
   88       10.498321  -0.000000
   89       10.568408  -0.000000
   90       10.568416  -0.000000

  0.4444444E+00  0.1111111E+00  0.3742002E-15  0.5486968E-02
    1       -4.499464   1.000000
    2       -4.498501   1.000000
    3       -3.474348   1.000000
    4       -3.474337   1.000000
    5       -3.469652   1.000000
    6       -3.469640   1.000000
    7       -3.069937   1.000000
    8       -2.526542   1.000000
    9       -2.526528   1.000000
   10       -1.769166   1.000000
   11       -1.710781   1.000000
   12       -1.710764   1.000000
   13       -0.055706   1.000000
   14       -0.055691   1.000000
   15        0.136081   1.000000
   16        0.976697   1.000000
   17        0.976710   1.000000
   18        0.985171   1.000000
   19        1.144009   1.000000
   20        1.914390   1.000000
   21        1.914399   1.000000
   22        2.068791   1.000000
   23        2.068794   1.000000
   24        2.118185   1.000000
   25        2.118186   1.000000
   26        2.223407   1.000000
   27        2.241959   1.000000
   28        2.324001   1.000000
   29        2.324007   1.000000
   30        2.351163   1.000000
   31        2.941889   1.000000
   32        2.941891   1.000000
   33        2.992603   1.000000
   34        2.992606   1.000000
   35        3.729534   1.000000
   36        3.729541   1.000000
   37        3.934124   1.000000
   38        3.934129   1.000000
   39        4.086451   1.000000
   40        4.086460   1.000000
   41        4.398601   1.000000
   42        4.398604   1.000000
   43        4.434751   1.000000
   44        4.440148   1.000000
   45        4.598450   1.000000
   46        4.703007   1.000000
   47        4.703017   1.000000
   48        4.718394   1.000000
   49        4.861853   1.000000
   50        4.940405   1.000000
   51        5.099634   1.000000
   52        5.099643   1.000000
   53        5.464475   1.000000
   54        5.473475   1.000000
   55        5.965264   1.000000
   56        5.965273   1.000000
   57        5.994874   1.000000
   58        5.994886   1.000000
   59        6.672705   1.000000
   60        7.044652   1.000000
   61        7.596334   1.000000
   62        8.010306   1.000000
   63        8.394836   1.000000
   64        8.394848   1.000000
   65        8.408234   1.000000
   66        8.408246   1.000000
   67        8.610822   1.000000
   68        8.743741   1.000004
   69        8.844235   1.001105
   70        8.853439   1.001654
   71        9.153273   0.089224
   72        9.153282   0.089183
   73        9.243445  -0.028464
   74        9.243453  -0.028461
   75        9.304504  -0.005869
   76        9.304516  -0.005866
   77        9.619324  -0.000000
   78        9.649547  -0.000000
   79        9.750131  -0.000000
   80        9.750145  -0.000000
   81       10.097908  -0.000000
   82       10.121101  -0.000000
   83       10.153622  -0.000000
   84       10.195229  -0.000000
   85       10.195244  -0.000000
   86       10.520701  -0.000000
   87       10.589979  -0.000000
   88       10.589990  -0.000000
   89       10.839776  -0.000000
   90       10.849788  -0.000000

 -0.4444444E+00  0.1111111E+00  0.3742002E-15  0.5486968E-02
    1       -4.946317   1.000000
    2       -3.959951   1.000000
    3       -3.772111   1.000000
    4       -3.772101   1.000000
    5       -3.120105   1.000000
    6       -3.120093   1.000000
    7       -3.022512   1.000000
    8       -2.501803   1.000000
    9       -2.501788   1.000000
   10       -1.731263   1.000000
   11       -1.722443   1.000000
   12       -1.722427   1.000000
   13       -0.224525   1.000000
   14       -0.104136   1.000000
   15       -0.104122   1.000000
   16        0.715418   1.000000
   17        0.843268   1.000000
   18        0.843280   1.000000
   19        1.321770   1.000000
   20        1.489499   1.000000
   21        1.489506   1.000000
   22        1.676297   1.000000
   23        1.919120   1.000000
   24        1.919128   1.000000
   25        2.172847   1.000000
   26        2.172856   1.000000
   27        2.469595   1.000000
   28        2.469603   1.000000
   29        2.633588   1.000000
   30        2.983219   1.000000
   31        3.068658   1.000000
   32        3.068663   1.000000
   33        3.535088   1.000000
   34        3.535090   1.000000
   35        3.613691   1.000000
   36        3.613697   1.000000
   37        3.835347   1.000000
   38        3.835350   1.000000
   39        4.298983   1.000000
   40        4.317228   1.000000
   41        4.317233   1.000000
   42        4.378103   1.000000
   43        4.378109   1.000000
   44        4.402803   1.000000
   45        4.511813   1.000000
   46        4.540969   1.000000
   47        4.692551   1.000000
   48        4.692561   1.000000
   49        4.948763   1.000000
   50        5.141372   1.000000
   51        5.141378   1.000000
   52        5.205238   1.000000
   53        5.291942   1.000000
   54        5.519212   1.000000
   55        5.597745   1.000000
   56        5.597758   1.000000
   57        6.458422   1.000000
   58        6.458430   1.000000
   59        6.848972   1.000000
   60        6.884341   1.000000
   61        7.557247   1.000000
   62        7.702100   1.000000
   63        7.979405   1.000000
   64        7.979416   1.000000
   65        8.708706   1.000000
   66        8.860560   1.002229
   67        8.860572   1.002230
   68        8.983239   1.033535
   69        8.989037   1.030456
   70        9.002844   1.015401
   71        9.079403   0.632553
   72        9.079410   0.632495
   73        9.298705  -0.007147
   74        9.298718  -0.007144