 running on   36 total cores
 distrk:  each k-point on   36 cores,    1 groups
 distr:  one band on    6 cores,    6 groups
 using from now: INCAR     
 vasp.5.4.4.18Apr17-6-g9f103f2a35 (build Dec  7 2020 12:43:57) complex           
 POSCAR found type information on POSCAR  Mo V  B 
 POSCAR found :  3 types and      36 ions
 scaLAPACK will be used
 LDA part: xc-table for Pade appr. of Perdew
 POSCAR, INCAR and KPOINTS ok, starting setup
 resort distribution
 resort distribution
 resort distribution
 resort distribution
 resort distribution
 resort distribution
 resort distribution
 resort distribution
 resort distribution
 resort distribution
 resort distribution
 resort distribution
 resort distribution
 resort distribution
 resort distribution
 resort distribution
 resort distribution
 resort distribution
 resort distribution
 resort distribution
 resort distribution
 resort distribution
 resort distribution
 resort distribution
 resort distribution
 resort distribution
 resort distribution
 resort distribution
 resort distribution
 resort distribution
 resort distribution
 resort distribution
 resort distribution
 resort distribution
 resort distribution
 resort distribution
 FFT: planning ...
 WAVECAR not read
 augmentation electrons   138.05609825411904     
 soft         electrons   0.0000000000000000     
 augmentation electrons   138.05609825411904     
 soft         electrons   0.0000000000000000     
 augmentation electrons   138.05609825411904     
 soft         electrons   0.0000000000000000     
 augmentation electrons   138.05609825411904     
 soft         electrons   0.0000000000000000     
 augmentation electrons   138.05609825411904     
 soft         electrons   0.0000000000000000     
 augmentation electrons   138.05609825411904     
 soft         electrons   0.0000000000000000     
 augmentation electrons   138.05609825411904     
 soft         electrons   0.0000000000000000     
 augmentation electrons   138.05609825411904     
 soft         electrons   0.0000000000000000     
 augmentation electrons   138.05609825411904     
 soft         electrons   0.0000000000000000     
 augmentation electrons   138.05609825411904     
 soft         electrons   0.0000000000000000     
 augmentation electrons   138.05609825411904     
 soft         electrons   0.0000000000000000     
 augmentation electrons   138.05609825411904     
 soft         electrons   0.0000000000000000     
 augmentation electrons   138.05609825411904     
 soft         electrons   0.0000000000000000     
 augmentation electrons   138.05609825411904     
 soft         electrons   0.0000000000000000     
 augmentation electrons   138.05609825411904     
 soft         electrons   0.0000000000000000     
 augmentation electrons   138.05609825411904     
 soft         electrons   0.0000000000000000     
 augmentation electrons   138.05609825411904     
 soft         electrons   0.0000000000000000     
 augmentation electrons   138.05609825411904     
 soft         electrons   0.0000000000000000     
 augmentation electrons   138.05609825411904     
 soft         electrons   0.0000000000000000     
 augmentation electrons   138.05609825411904     
 soft         electrons   0.0000000000000000     
 augmentation electrons   138.05609825411904     
 soft         electrons   0.0000000000000000     
 augmentation electrons   138.05609825411904     
 soft         electrons   0.0000000000000000     
 augmentation electrons   138.05609825411904     
 soft         electrons   0.0000000000000000     
 augmentation electrons   138.05609825411904     
 soft         electrons   0.0000000000000000     
 augmentation electrons   138.05609825411904     
 soft         electrons   0.0000000000000000     
 augmentation electrons   138.05609825411904     
 soft         electrons   0.0000000000000000     
 augmentation electrons   138.05609825411904     
 soft         electrons   0.0000000000000000     
 augmentation electrons   138.05609825411904     
 soft         electrons   0.0000000000000000     
 augmentation electrons   138.05609825411904     
 soft         electrons   0.0000000000000000     
 augmentation electrons   138.05609825411904     
 soft         electrons   0.0000000000000000     
 augmentation electrons   138.05609825411904     
 soft         electrons   0.0000000000000000     
 augmentation electrons   138.05609825411904     
 soft         electrons   0.0000000000000000     
 augmentation electrons   138.05609825411904     
 soft         electrons   0.0000000000000000     
 augmentation electrons   138.05609825411904     
 soft         electrons   0.0000000000000000     
 augmentation electrons   138.05609825411904     
 soft         electrons   0.0000000000000000     
 augmentation electrons   138.05609825411904     
 soft         electrons   0.0000000000000000     
 total        electrons   138.05609825411904     
 total        electrons   138.05609825411904     
 total        electrons   138.05609825411904     
 total        electrons   138.05609825411904     
 total        electrons   138.05609825411904     
 total        electrons   138.05609825411904     
 total        electrons   138.05609825411904     
 total        electrons   138.05609825411904     
 total        electrons   138.05609825411904     
 total        electrons   138.05609825411904     
 total        electrons   138.05609825411904     
 total        electrons   138.05609825411904     
 total        electrons   138.05609825411904     
 total        electrons   138.05609825411904     
 total        electrons   138.05609825411904     
 total        electrons   138.05609825411904     
 total        electrons   138.05609825411904     
 total        electrons   138.05609825411904     
 total        electrons   138.05609825411904     
 total        electrons   138.05609825411904     
 total        electrons   138.05609825411904     
 total        electrons   138.05609825411904     
 total        electrons   138.05609825411904     
 total        electrons   138.05609825411904     
 total        electrons   138.05609825411904     
 total        electrons   138.05609825411904     
 total        electrons   138.05609825411904     
 total        electrons   138.05609825411904     
 total        electrons   138.05609825411904     
 total        electrons   138.05609825411904     
 total        electrons   138.05609825411904     
 total        electrons   138.05609825411904     
 total        electrons   138.05609825411904     
 total        electrons   138.05609825411904     
 total        electrons   138.05609825411904     
 total        electrons   138.05609825411904     
 augmentation electrons   669.81052404285356     
 soft         electrons   0.0000000000000000     
 total        electrons   669.81052404285356     
 augmentation electrons   669.81052404285356     
 soft         electrons   0.0000000000000000     
 total        electrons   669.81052404285356     
 augmentation electrons   669.81052404285356     
 soft         electrons   0.0000000000000000     
 total        electrons   669.81052404285356     
 augmentation electrons   669.81052404285356     
 soft         electrons   0.0000000000000000     
 total        electrons   669.81052404285356     
 augmentation electrons   669.81052404285356     
 soft         electrons   0.0000000000000000     
 total        electrons   669.81052404285356     
 augmentation electrons   669.81052404285356     
 soft         electrons   0.0000000000000000     
 total        electrons   669.81052404285356     
 augmentation electrons   669.81052404285356     
 soft         electrons   0.0000000000000000     
 total        electrons   669.81052404285356     
 augmentation electrons   669.81052404285356     
 soft         electrons   0.0000000000000000     
 total        electrons   669.81052404285356     
 augmentation electrons   669.81052404285356     
 soft         electrons   0.0000000000000000     
 augmentation electrons   669.81052404285356     
 soft         electrons   0.0000000000000000     
 total        electrons   669.81052404285356     
 augmentation electrons   669.81052404285356     
 soft         electrons   0.0000000000000000     
 total        electrons   669.81052404285356     
 augmentation electrons   669.81052404285356     
 soft         electrons   0.0000000000000000     
 total        electrons   669.81052404285356     
 augmentation electrons   669.81052404285356     
 soft         electrons   0.0000000000000000     
 total        electrons   669.81052404285356     
 augmentation electrons   669.81052404285356     
 soft         electrons   0.0000000000000000     
 total        electrons   669.81052404285356     
 augmentation electrons   669.81052404285356     
 soft         electrons   0.0000000000000000     
 total        electrons   669.81052404285356     
 augmentation electrons   669.81052404285356     
 soft         electrons   0.0000000000000000     
 total        electrons   669.81052404285356     
 augmentation electrons   669.81052404285356     
 soft         electrons   0.0000000000000000     
 total        electrons   669.81052404285356     
 augmentation electrons   669.81052404285356     
 soft         electrons   0.0000000000000000     
 total        electrons   669.81052404285356     
 augmentation electrons   669.81052404285356     
 soft         electrons   0.0000000000000000     
 total        electrons   669.81052404285356     
 augmentation electrons   669.81052404285356     
 soft         electrons   0.0000000000000000     
 total        electrons   669.81052404285356     
 augmentation electrons   669.81052404285356     
 soft         electrons   0.0000000000000000     
 total        electrons   669.81052404285356     
 augmentation electrons   669.81052404285356     
 soft         electrons   0.0000000000000000     
 total        electrons   669.81052404285356     
 augmentation electrons   669.81052404285356     
 soft         electrons   0.0000000000000000     
 total        electrons   669.81052404285356     
 augmentation electrons   669.81052404285356     
 soft         electrons   0.0000000000000000     
 total        electrons   669.81052404285356     
 augmentation electrons   669.81052404285356     
 soft         electrons   0.0000000000000000     
 total        electrons   669.81052404285356     
 augmentation electrons   669.81052404285356     
 soft         electrons   0.0000000000000000     
 total        electrons   669.81052404285356     
 augmentation electrons   669.81052404285356     
 soft         electrons   0.0000000000000000     
 total        electrons   669.81052404285356     
 augmentation electrons   669.81052404285356     
 soft         electrons   0.0000000000000000     
 total        electrons   669.81052404285356     
 augmentation electrons   669.81052404285356     
 soft         electrons   0.0000000000000000     
 total        electrons   669.81052404285356     
 augmentation electrons   669.81052404285356     
 soft         electrons   0.0000000000000000     
 total        electrons   669.81052404285356     
 augmentation electrons   669.81052404285356     
 soft         electrons   0.0000000000000000     
 total        electrons   669.81052404285356     
 augmentation electrons   669.81052404285356     
 soft         electrons   0.0000000000000000     
 total        electrons   669.81052404285356     
 augmentation electrons   669.81052404285356     
 soft         electrons   0.0000000000000000     
 total        electrons   669.81052404285356     
 augmentation electrons   669.81052404285356     
 soft         electrons   0.0000000000000000     
 total        electrons   669.81052404285356     
 augmentation electrons   669.81052404285356     
 soft         electrons   0.0000000000000000     
 total        electrons   669.81052404285356     
 augmentation electrons   669.81052404285356     
 soft         electrons   0.0000000000000000     
 total        electrons   669.81052404285356     
 total        electrons   669.81052404285356     
 entering main loop
       N       E                     dE             d eps       ncg     rms          rms(c)
DAV:   1     0.117518394297E+04    0.11752E+04   -0.51349E+04 22524   0.153E+03
DAV:   2    -0.732500771660E+02   -0.12484E+04   -0.11850E+04 22500   0.399E+02
DAV:   3    -0.332060724860E+03   -0.25881E+03   -0.24468E+03 32970   0.155E+02
DAV:   4    -0.353962868587E+03   -0.21902E+02   -0.20650E+02 37524   0.553E+01
DAV:   5    -0.355268660066E+03   -0.13058E+01   -0.12284E+01 37548   0.116E+01    0.106E+02
DAV:   6    -0.326691544202E+03    0.28577E+02   -0.65799E+02 35430   0.108E+02    0.579E+01
DAV:   7    -0.352081408945E+03   -0.25390E+02   -0.10784E+03 40050   0.241E+02    0.465E+01
DAV:   8    -0.308744805141E+03    0.43337E+02   -0.19978E+02 35874   0.527E+01    0.283E+01
DAV:   9    -0.298633779991E+03    0.10111E+02   -0.37626E+01 36816   0.299E+01    0.101E+01
DAV:  10    -0.298533834014E+03    0.99946E-01   -0.28074E+00 36612   0.668E+00    0.799E+00
DAV:  11    -0.297998612221E+03    0.53522E+00   -0.61148E+00 36252   0.118E+01    0.502E+00
DAV:  12    -0.298059291532E+03   -0.60679E-01   -0.67024E-01 36744   0.440E+00    0.364E+00
DAV:  13    -0.297943723305E+03    0.11557E+00   -0.25663E-01 35886   0.257E+00    0.191E+00
DAV:  14    -0.297896619023E+03    0.47104E-01   -0.16911E-01 35460   0.222E+00    0.101E+00
DAV:  15    -0.297895522926E+03    0.10961E-02   -0.10791E-02 37092   0.431E-01    0.495E-01
DAV:  16    -0.297895514486E+03    0.84398E-05   -0.38939E-04 37212   0.932E-02    0.358E-01
DAV:  17    -0.297894904169E+03    0.61032E-03   -0.17094E-03 36036   0.211E-01    0.132E-01
DAV:  18    -0.297894848577E+03    0.55592E-04   -0.22512E-04 37800   0.526E-02    0.516E-02
DAV:  19    -0.297894826486E+03    0.22091E-04   -0.20261E-04 35868   0.840E-02    0.172E-02
DAV:  20    -0.297894823447E+03    0.30391E-05   -0.20325E-05 34032   0.265E-02    0.528E-03
DAV:  21    -0.297894823113E+03    0.33464E-06   -0.12911E-06 19896   0.738E-03
   1 F= -.29789482E+03 E0= -.29789411E+03  d E =-.297895E+03
 curvature:   0.00 expect dE= 0.000E+00 dE for cont linesearch  0.000E+00
 trial: gam= 0.00000 g(F)=  0.697E+00 g(S)=  0.633E+00 ort = 0.000E+00 (trialstep = 0.100E+01)
 search vector abs. value=  0.133E+01
 bond charge predicted
       N       E                     dE             d eps       ncg     rms          rms(c)
DAV:   1    -0.298337737915E+03   -0.44291E+00   -0.52159E+01 28728   0.302E+01    0.135E+01
DAV:   2    -0.299003496863E+03   -0.66576E+00   -0.81524E+00 37026   0.156E+01    0.893E+00
DAV:   3    -0.299301307336E+03   -0.29781E+00   -0.17302E+01 36402   0.205E+01    0.102E+01
DAV:   4    -0.298091833269E+03    0.12095E+01   -0.56068E+00 36720   0.137E+01    0.114E+00
DAV:   5    -0.298102788821E+03   -0.10956E-01   -0.18227E-01 34392   0.144E+00    0.595E-01
DAV:   6    -0.298100890274E+03    0.18985E-02   -0.17355E-02 33840   0.457E-01    0.323E-01
DAV:   7    -0.298100460052E+03    0.43022E-03   -0.70851E-03 35532   0.260E-01    0.188E-01
DAV:   8    -0.298100096279E+03    0.36377E-03   -0.98852E-04 35208   0.110E-01    0.835E-02
DAV:   9    -0.298100023675E+03    0.72604E-04   -0.40067E-04 36276   0.624E-02    0.299E-02
DAV:  10    -0.298100020775E+03    0.28997E-05   -0.30175E-05 34170   0.221E-02    0.907E-03
DAV:  11    -0.298100020962E+03   -0.18686E-06   -0.48063E-06 27840   0.847E-03
   2 F= -.29810002E+03 E0= -.29809915E+03  d E =-.205198E+00
 trial-energy change:   -0.205198  1 .order   -0.234138   -1.329985    0.861709
 step:   0.5876(harm=  0.6068)  dis= 0.01945  next Energy=  -298.279721 (dE=-0.385E+00)
 bond charge predicted
       N       E                     dE             d eps       ncg     rms          rms(c)
DAV:   1    -0.298319214060E+03   -0.21919E+00   -0.89005E+00 28314   0.124E+01    0.549E+00
DAV:   2    -0.298402849150E+03   -0.83635E-01   -0.11711E+00 36438   0.570E+00    0.349E+00
DAV:   3    -0.298492981390E+03   -0.90132E-01   -0.26408E+00 36516   0.895E+00    0.410E+00
DAV:   4    -0.298278552543E+03    0.21443E+00   -0.73807E-01 36606   0.469E+00    0.525E-01
DAV:   5    -0.298279092983E+03   -0.54044E-03   -0.35676E-02 37422   0.652E-01    0.148E-01
DAV:   6    -0.298278622982E+03    0.47000E-03   -0.62242E-03 33264   0.280E-01    0.144E-01
DAV:   7    -0.298278481449E+03    0.14153E-03   -0.20418E-03 37032   0.224E-01    0.530E-02
DAV:   8    -0.298278407592E+03    0.73858E-04   -0.52293E-04 35208   0.778E-02    0.209E-02
DAV:   9    -0.298278412393E+03   -0.48019E-05   -0.84562E-05 36228   0.481E-02    0.160E-02
DAV:  10    -0.298278412694E+03   -0.30014E-06   -0.14239E-05 34230   0.208E-02    0.501E-03
DAV:  11    -0.298278411651E+03    0.10424E-05   -0.31129E-06 23448   0.601E-03    0.175E-03
DAV:  12    -0.298278411492E+03    0.15945E-06   -0.82165E-07 15756   0.413E-03
   3 F= -.29827841E+03 E0= -.29827751E+03  d E =-.383588E+00
 curvature:  -0.30 expect dE=-0.456E-01 dE for cont linesearch -0.256E-05
 trial: gam= 0.11584 g(F)=  0.228E-01 g(S)=  0.128E+00 ort =-0.335E-02 (trialstep = 0.918E+00)
 search vector abs. value=  0.168E+00
 bond charge predicted
       N       E                     dE             d eps       ncg     rms          rms(c)
DAV:   1    -0.298358521872E+03   -0.80110E-01   -0.51172E+00 26232   0.888E+00    0.249E+00
DAV:   2    -0.298339877981E+03    0.18644E-01   -0.41835E-01 34296   0.274E+00    0.154E+00
DAV:   3    -0.298381872029E+03   -0.41994E-01   -0.68689E-01 36390   0.463E+00    0.200E+00
DAV:   4    -0.298318828415E+03    0.63044E-01   -0.29606E-01 35910   0.308E+00    0.269E-01
DAV:   5    -0.298318583692E+03    0.24472E-03   -0.80260E-03 30168   0.303E-01    0.126E-01
DAV:   6    -0.298318416052E+03    0.16764E-03   -0.82780E-04 36306   0.135E-01    0.298E-02
DAV:   7    -0.298318426375E+03   -0.10323E-04   -0.94672E-05 34986   0.445E-02    0.191E-02
DAV:   8    -0.298318424700E+03    0.16749E-05   -0.10245E-05 33948   0.140E-02    0.449E-03
DAV:   9    -0.298318424128E+03    0.57190E-06   -0.89545E-07 17490   0.585E-03
   4 F= -.29831842E+03 E0= -.29831766E+03  d E =-.400126E-01
 trial-energy change:   -0.040013  1 .order   -0.038642   -0.137930    0.060647
 step:   0.6452(harm=  0.6373)  dis= 0.00758  next Energy=  -298.327387 (dE=-0.490E-01)
 bond charge predicted
       N       E                     dE             d eps       ncg     rms          rms(c)
DAV:   1    -0.298331137004E+03   -0.12712E-01   -0.45262E-01 26460   0.265E+00    0.739E-01
DAV:   2    -0.298329054778E+03    0.20822E-02   -0.35266E-02 33816   0.801E-01    0.427E-01
DAV:   3    -0.298333286171E+03   -0.42314E-02   -0.57603E-02 36414   0.137E+00    0.605E-01
DAV:   4    -0.298327451174E+03    0.58350E-02   -0.25421E-02 35940   0.903E-01    0.812E-02
DAV:   5    -0.298327399971E+03    0.51203E-04   -0.73924E-04 30420   0.907E-02    0.407E-02
DAV:   6    -0.298327374735E+03    0.25236E-04   -0.92519E-05 36282   0.475E-02    0.917E-03
DAV:   7    -0.298327372856E+03    0.18791E-05   -0.11156E-05 34110   0.166E-02    0.650E-03
DAV:   8    -0.298327372776E+03    0.79712E-07   -0.88603E-07 17214   0.624E-03
   5 F= -.29832737E+03 E0= -.29832653E+03  d E =-.489613E-01
 curvature:  -0.36 expect dE=-0.351E-02 dE for cont linesearch -0.355E-07
 trial: gam= 0.06557 g(F)=  0.508E-02 g(S)=  0.480E-02 ort =-0.129E-03 (trialstep = 0.863E+00)
 search vector abs. value=  0.106E-01
 bond charge predicted
       N       E                     dE             d eps       ncg     rms          rms(c)
DAV:   1    -0.298332008126E+03   -0.46353E-02   -0.28915E-01 22740   0.182E+00    0.329E-01
DAV:   2    -0.298335800238E+03   -0.37921E-02   -0.41968E-02 36330   0.122E+00    0.637E-01
DAV:   3    -0.298331706080E+03    0.40942E-02   -0.17069E-02 36420   0.740E-01    0.231E-01
DAV:   4    -0.298331319956E+03    0.38612E-03   -0.15118E-03 30576   0.138E-01    0.381E-02
DAV:   5    -0.298331310197E+03    0.97584E-05   -0.27729E-04 35436   0.757E-02    0.142E-02
DAV:   6    -0.298331305220E+03    0.49773E-05   -0.64714E-05 35268   0.309E-02    0.107E-02
DAV:   7    -0.298331304514E+03    0.70613E-06   -0.97403E-06 31716   0.135E-02
   6 F= -.29833130E+03 E0= -.29833055E+03  d E =-.393174E-02
 trial-energy change:   -0.003932  1 .order   -0.003985   -0.008520    0.000549
 step:   0.8090(harm=  0.8108)  dis= 0.00285  next Energy=  -298.331322 (dE=-0.395E-02)
 bond charge predicted
       N       E                     dE             d eps       ncg     rms          rms(c)
DAV:   1    -0.298331323143E+03   -0.17923E-04   -0.11210E-03 23364   0.113E-01    0.207E-02
DAV:   2    -0.298331339734E+03   -0.16591E-04   -0.17228E-04 36402   0.777E-02    0.409E-02
DAV:   3    -0.298331322878E+03    0.16856E-04   -0.70203E-05 35946   0.476E-02    0.145E-02
DAV:   4    -0.298331322193E+03    0.68512E-06   -0.53885E-06 27792   0.843E-03    0.285E-03
DAV:   5    -0.298331322351E+03   -0.15807E-06   -0.77662E-07 15384   0.484E-03
   7 F= -.29833132E+03 E0= -.29833056E+03  d E =-.394958E-02
 curvature:  -0.43 expect dE=-0.600E-03 dE for cont linesearch -0.238E-07
 trial: gam= 0.13278 g(F)=  0.759E-03 g(S)=  0.624E-03 ort = 0.241E-04 (trialstep = 0.852E+00)
 search vector abs. value=  0.158E-02
 bond charge predicted
       N       E                     dE             d eps       ncg     rms          rms(c)
DAV:   1    -0.298332083723E+03   -0.76153E-03   -0.39131E-02 22884   0.676E-01    0.121E-01
DAV:   2    -0.298332224338E+03   -0.14062E-03   -0.29365E-03 36042   0.294E-01    0.153E-01
DAV:   3    -0.298332080176E+03    0.14416E-03   -0.92132E-04 36132   0.171E-01    0.845E-02
DAV:   4    -0.298332027172E+03    0.53004E-04   -0.18584E-04 35250   0.545E-02    0.261E-02
DAV:   5    -0.298332019026E+03    0.81464E-05   -0.50102E-05 36180   0.377E-02    0.492E-03
DAV:   6    -0.298332018508E+03    0.51713E-06   -0.48588E-06 29028   0.892E-03
   8 F= -.29833202E+03 E0= -.29833125E+03  d E =-.696157E-03
 trial-energy change:   -0.000696  1 .order   -0.000707   -0.001181   -0.000234
 step:   1.0832(harm=  1.0623)  dis= 0.00138  next Energy=  -298.332050 (dE=-0.728E-03)
 reached required accuracy - stopping structural energy minimisation
 writing wavefunctions
 augmentation electrons   18.154500672122083     
 augmentation electrons   18.154500672122083     
 soft         electrons   119.92613072911503     
 augmentation electrons   18.154500672122083     
 soft         electrons   119.92613072911503     
 soft         electrons   119.92613072911503     
 augmentation electrons   18.154500672122083     
 soft         electrons   119.92613072911503     
 augmentation electrons   18.154500672122083     
 soft         electrons   119.92613072911503     
 augmentation electrons   18.154500672122083     
 soft         electrons   119.92613072911503     
 augmentation electrons   18.154500672122083     
 soft         electrons   119.92613072911503     
 augmentation electrons   18.154500672122083     
 soft         electrons   119.92613072911503     
 augmentation electrons   18.154500672122083     
 soft         electrons   119.92613072911503     
 augmentation electrons   18.154500672122083     
 soft         electrons   119.92613072911503     
 augmentation electrons   18.154500672122083     
 soft         electrons   119.92613072911503     
 augmentation electrons   18.154500672122083     
 soft         electrons   119.92613072911503     
 augmentation electrons   18.154500672122083     
 soft         electrons   119.92613072911503     
 augmentation electrons   18.154500672122083     
 soft         electrons   119.92613072911503     
 augmentation electrons   18.154500672122083     
 soft         electrons   119.92613072911503     
 augmentation electrons   18.154500672122083     
 soft         electrons   119.92613072911503     
 augmentation electrons   18.154500672122083     
 soft         electrons   119.92613072911503     
 augmentation electrons   18.154500672122083     
 soft         electrons   119.92613072911503     
 augmentation electrons   18.154500672122083     
 soft         electrons   119.92613072911503     
 augmentation electrons   18.154500672122083     
 soft         electrons   119.92613072911503     
 augmentation electrons   18.154500672122083     
 soft         electrons   119.92613072911503     
 augmentation electrons   18.154500672122083     
 soft         electrons   119.92613072911503     
 augmentation electrons   18.154500672122083     
 soft         electrons   119.92613072911503     
 augmentation electrons   18.154500672122083     
 soft         electrons   119.92613072911503     
 augmentation electrons   18.154500672122083     
 soft         electrons   119.92613072911503     
 augmentation electrons   18.154500672122083     
 soft         electrons   119.92613072911503     
 augmentation electrons   18.154500672122083     
 soft         electrons   119.92613072911503     
 augmentation electrons   18.154500672122083     
 soft         electrons   119.92613072911503     
 augmentation electrons   18.154500672122083     
 soft         electrons   119.92613072911503     
 augmentation electrons   18.154500672122083     
 soft         electrons   119.92613072911503     
 augmentation electrons   18.154500672122083     
 soft         electrons   119.92613072911503     
 augmentation electrons   18.154500672122083     
 soft         electrons   119.92613072911503     
 augmentation electrons   18.154500672122083     
 augmentation electrons   18.154500672122083     
 soft         electrons   119.92613072911503     
 augmentation electrons   18.154500672122083     
 soft         electrons   119.92613072911503     
 augmentation electrons   18.154500672122083     
 soft         electrons   119.92613072911503     
 soft         electrons   119.92613072911503     
 total        electrons   138.08063140123710     
 total        electrons   138.08063140123710     
 total        electrons   138.08063140123710     
 total        electrons   138.08063140123710     
 total        electrons   138.08063140123710     
 total        electrons   138.08063140123710     
 total        electrons   138.08063140123710     
 total        electrons   138.08063140123710     
 total        electrons   138.08063140123710     
 total        electrons   138.08063140123710     
 total        electrons   138.08063140123710     
 total        electrons   138.08063140123710     
 total        electrons   138.08063140123710     
 total        electrons   138.08063140123710     
 total        electrons   138.08063140123710     
 total        electrons   138.08063140123710     
 total        electrons   138.08063140123710     
 total        electrons   138.08063140123710     
 total        electrons   138.08063140123710     
 total        electrons   138.08063140123710     
 total        electrons   138.08063140123710     
 total        electrons   138.08063140123710     
 total        electrons   138.08063140123710     
 total        electrons   138.08063140123710     
 total        electrons   138.08063140123710     
 total        electrons   138.08063140123710     
 total        electrons   138.08063140123710     
 total        electrons   138.08063140123710     
 total        electrons   138.08063140123710     
 total        electrons   138.08063140123710     
 total        electrons   138.08063140123710     
 total        electrons   138.08063140123710     
 total        electrons   138.08063140123710     
 total        electrons   138.08063140123710     
 total        electrons   138.08063140123710     
 total        electrons   138.08063140123710     
Note: The following floating-point exceptions are signalling: IEEE_OVERFLOW_FLAG
Note: The following floating-point exceptions are signalling: IEEE_OVERFLOW_FLAG
Note: The following floating-point exceptions are signalling: IEEE_OVERFLOW_FLAG
Note: The following floating-point exceptions are signalling: IEEE_OVERFLOW_FLAG
Note: The following floating-point exceptions are signalling: IEEE_OVERFLOW_FLAG
Note: The following floating-point exceptions are signalling: IEEE_OVERFLOW_FLAG
Note: The following floating-point exceptions are signalling: IEEE_OVERFLOW_FLAG
Note: The following floating-point exceptions are signalling: IEEE_OVERFLOW_FLAG
Note: The following floating-point exceptions are signalling: IEEE_OVERFLOW_FLAG
Note: The following floating-point exceptions are signalling: IEEE_OVERFLOW_FLAG
Note: The following floating-point exceptions are signalling: IEEE_OVERFLOW_FLAG
Note: The following floating-point exceptions are signalling: IEEE_OVERFLOW_FLAG
Note: The following floating-point exceptions are signalling: IEEE_OVERFLOW_FLAG
Note: The following floating-point exceptions are signalling: IEEE_OVERFLOW_FLAG
Note: The following floating-point exceptions are signalling: IEEE_OVERFLOW_FLAG
Note: The following floating-point exceptions are signalling: IEEE_OVERFLOW_FLAG
Note: The following floating-point exceptions are signalling: IEEE_OVERFLOW_FLAG
Note: The following floating-point exceptions are signalling: IEEE_OVERFLOW_FLAG
Note: The following floating-point exceptions are signalling: IEEE_OVERFLOW_FLAG
Note: The following floating-point exceptions are signalling: IEEE_OVERFLOW_FLAG
Note: The following floating-point exceptions are signalling: IEEE_OVERFLOW_FLAG
Note: The following floating-point exceptions are signalling: IEEE_OVERFLOW_FLAG
Note: The following floating-point exceptions are signalling: IEEE_OVERFLOW_FLAG
Note: The following floating-point exceptions are signalling: IEEE_OVERFLOW_FLAG
Note: The following floating-point exceptions are signalling: IEEE_OVERFLOW_FLAG
Note: The following floating-point exceptions are signalling: IEEE_OVERFLOW_FLAG
Note: The following floating-point exceptions are signalling: IEEE_OVERFLOW_FLAG
Note: The following floating-point exceptions are signalling: IEEE_OVERFLOW_FLAG
Note: The following floating-point exceptions are signalling: IEEE_OVERFLOW_FLAG
Note: The following floating-point exceptions are signalling: IEEE_OVERFLOW_FLAG
Note: The following floating-point exceptions are signalling: IEEE_OVERFLOW_FLAG
Note: The following floating-point exceptions are signalling: IEEE_OVERFLOW_FLAG
Note: The following floating-point exceptions are signalling: IEEE_OVERFLOW_FLAG
Note: The following floating-point exceptions are signalling: IEEE_OVERFLOW_FLAG
Note: The following floating-point exceptions are signalling: IEEE_OVERFLOW_FLAG
Note: The following floating-point exceptions are signalling: IEEE_OVERFLOW_FLAG
