   23   23   60    1
  0.8498952E+01  0.6078000E-09  0.6078000E-09  0.6110000E-09  0.5000000E-15
   1.0000000000000000E-004
  CAR 
 Name                                    
     89    125     56

  0.3742002E-15  0.3742002E-15  0.3742002E-15  0.1371742E-02
    1       -6.116671   1.000000
    2       -3.897553   1.000000
    3       -3.139832   1.000000
    4       -2.728896   1.000000
    5       -2.549948   1.000000
    6       -2.331867   1.000000
    7       -2.316975   1.000000
    8       -1.934983   1.000000
    9       -1.878828   1.000000
   10       -1.637465   1.000000
   11       -1.593023   1.000000
   12       -0.323263   1.000000
   13        0.016941   1.000000
   14        0.113419   1.000000
   15        0.333242   1.000000
   16        1.839621   1.000000
   17        1.994967   1.000000
   18        2.118537   1.000000
   19        2.278716   1.000000
   20        2.635555   1.000000
   21        2.658408   1.000000
   22        3.056498   1.000000
   23        3.293402   1.000000
   24        3.613120   1.000000
   25        3.773125   1.000000
   26        3.888885   1.000000
   27        3.986173   1.000000
   28        4.148233   1.000000
   29        4.258613   1.000000
   30        4.272681   1.000000
   31        4.439777   1.000000
   32        4.468120   1.000000
   33        4.534981   1.000000
   34        4.754727   1.000000
   35        4.825651   1.000000
   36        5.036759   1.000000
   37        5.700724   1.000000
   38        6.195423   1.000000
   39        6.439421   1.000000
   40        6.792376   1.000000
   41        6.907974   1.000000
   42        7.104304   1.000000
   43        7.150844   1.000000
   44        7.788164   1.000000
   45        8.048719   1.006259
   46        8.137026   1.035268
   47        8.755286  -0.000000
   48        9.332715  -0.000000
   49        9.337331  -0.000000
   50        9.338577  -0.000000
   51        9.507442  -0.000000
   52        9.557768  -0.000000
   53        9.813621  -0.000000
   54       10.129086  -0.000000
   55       10.201283  -0.000000
   56       10.216955  -0.000000

  0.1111111E+00  0.3745146E-15  0.3742002E-15  0.5486968E-02
    1       -6.057504   1.000000
    2       -3.879856   1.000000
    3       -3.145478   1.000000
    4       -2.812116   1.000000
    5       -2.722888   1.000000
    6       -2.590421   1.000000
    7       -2.443915   1.000000
    8       -2.231170   1.000000
    9       -1.528764   1.000000
   10       -1.406901   1.000000
   11       -1.083457   1.000000
   12       -0.240187   1.000000
   13       -0.001740   1.000000
   14        0.131080   1.000000
   15        0.398488   1.000000
   16        1.876379   1.000000
   17        2.031814   1.000000
   18        2.164109   1.000000
   19        2.299689   1.000000
   20        2.632209   1.000000
   21        2.662422   1.000000
   22        3.076803   1.000000
   23        3.103134   1.000000
   24        3.271999   1.000000
   25        3.728537   1.000000
   26        3.856730   1.000000
   27        3.991616   1.000000
   28        4.069359   1.000000
   29        4.185085   1.000000
   30        4.273990   1.000000
   31        4.332047   1.000000
   32        4.463112   1.000000
   33        4.695377   1.000000
   34        4.778492   1.000000
   35        4.944974   1.000000
   36        5.326580   1.000000
   37        5.519798   1.000000
   38        5.694024   1.000000
   39        5.888252   1.000000
   40        7.002852   1.000000
   41        7.205590   1.000000
   42        7.300592   1.000000
   43        7.454667   1.000000
   44        7.612195   1.000000
   45        8.090518   1.020522
   46        8.146059   1.032641
   47        8.771589  -0.000000
   48        9.285763  -0.000000
   49        9.291611  -0.000000
   50        9.327688  -0.000000
   51        9.478954  -0.000000
   52        9.495511  -0.000000
   53        9.759632  -0.000000
   54       10.024925  -0.000000
   55       10.112752  -0.000000
   56       10.136430  -0.000000

  0.2222222E+00  0.3685699E-15  0.3742002E-15  0.5486968E-02
    1       -5.882011   1.000000
    2       -3.826535   1.000000
    3       -3.482186   1.000000
    4       -3.183996   1.000000
    5       -2.751907   1.000000
    6       -2.639105   1.000000
    7       -2.615646   1.000000
    8       -2.497616   1.000000
    9       -1.034233   1.000000
   10       -0.989787   1.000000
   11       -0.319417   1.000000
   12       -0.108677   1.000000
   13        0.006321   1.000000
   14        0.087164   1.000000
   15        0.746622   1.000000
   16        1.964865   1.000000
   17        2.116166   1.000000
   18        2.252463   1.000000
   19        2.302044   1.000000
   20        2.432411   1.000000
   21        2.558826   1.000000
   22        2.680110   1.000000
   23        2.918532   1.000000
   24        3.232828   1.000000
   25        3.497569   1.000000
   26        3.742376   1.000000
   27        3.905747   1.000000
   28        3.980116   1.000000
   29        4.047359   1.000000
   30        4.257613   1.000000
   31        4.266669   1.000000
   32        4.455646   1.000000
   33        4.683336   1.000000
   34        4.806062   1.000000
   35        4.869208   1.000000
   36        5.261651   1.000000
   37        5.305960   1.000000
   38        5.472866   1.000000
   39        5.819282   1.000000
   40        6.747812   1.000000
   41        7.147275   1.000000
   42        7.367012   1.000000
   43        7.637002   1.000000
   44        8.027122   1.002815
   45        8.304266   0.139984
   46        8.449395  -0.009860
   47        8.816705  -0.000000
   48        9.031755  -0.000000
   49        9.093934  -0.000000
   50        9.197186  -0.000000
   51        9.299736  -0.000000
   52        9.430074  -0.000000
   53        9.633310  -0.000000
   54        9.766905  -0.000000
   55       10.036929  -0.000000
   56       10.122604  -0.000000

  0.3333333E+00  0.4145315E-15  0.3742002E-15  0.5486968E-02
    1       -5.596856   1.000000
    2       -4.115271   1.000000
    3       -3.737844   1.000000
    4       -3.292017   1.000000
    5       -2.794821   1.000000
    6       -2.788034   1.000000
    7       -2.672420   1.000000
    8       -2.574323   1.000000
    9       -0.504548   1.000000
   10       -0.501113   1.000000
   11       -0.236506   1.000000
   12        0.001758   1.000000
   13        0.352353   1.000000
   14        0.508411   1.000000
   15        1.314836   1.000000
   16        1.851134   1.000000
   17        1.897887   1.000000
   18        1.993835   1.000000
   19        2.057710   1.000000
   20        2.196175   1.000000
   21        2.537373   1.000000
   22        2.634141   1.000000
   23        3.011066   1.000000
   24        3.091438   1.000000
   25        3.322033   1.000000
   26        3.493302   1.000000
   27        3.834119   1.000000
   28        3.870130   1.000000
   29        4.029302   1.000000
   30        4.043924   1.000000
   31        4.268354   1.000000
   32        4.337434   1.000000
   33        4.502831   1.000000
   34        4.692402   1.000000
   35        4.859415   1.000000
   36        4.877832   1.000000
   37        5.015689   1.000000
   38        5.935307   1.000000
   39        6.159344   1.000000
   40        6.634276   1.000000
   41        6.725206   1.000000
   42        7.549903   1.000000
   43        7.565392   1.000000
   44        8.070259   1.012299
   45        8.509821  -0.000978
   46        8.558103  -0.000083
   47        8.876286  -0.000000
   48        8.967674  -0.000000
   49        8.995128  -0.000000
   50        9.014592  -0.000000
   51        9.243323  -0.000000
   52        9.358592  -0.000000
   53        9.428573  -0.000000
   54        9.640110  -0.000000
   55        9.730460  -0.000000
   56        9.939461  -0.000000

  0.4444444E+00  0.3784822E-15  0.3742002E-15  0.5486968E-02
    1       -5.224678   1.000000
    2       -4.664541   1.000000
    3       -3.621316   1.000000
    4       -3.439019   1.000000
    5       -2.865492   1.000000
    6       -2.802667   1.000000
    7       -2.759315   1.000000
    8       -2.538340   1.000000
    9       -0.319951   1.000000
   10       -0.073487   1.000000
   11       -0.056016   1.000000
   12       -0.045823   1.000000
   13        0.829294   1.000000
   14        1.254342   1.000000
   15        1.366390   1.000000
   16        1.400495   1.000000
   17        1.508321   1.000000
   18        1.989405   1.000000
   19        2.050189   1.000000
   20        2.127492   1.000000
   21        2.240005   1.000000
   22        2.752591   1.000000
   23        2.861586   1.000000
   24        3.087613   1.000000
   25        3.250955   1.000000
   26        3.272590   1.000000
   27        3.707347   1.000000
   28        3.795016   1.000000
   29        3.844757   1.000000
   30        4.135944   1.000000
   31        4.202051   1.000000
   32        4.273447   1.000000
   33        4.484299   1.000000
   34        4.582032   1.000000
   35        4.712914   1.000000
   36        4.947115   1.000000
   37        5.031945   1.000000
   38        5.832287   1.000000
   39        6.264670   1.000000
   40        6.580155   1.000000
   41        7.144383   1.000000
   42        7.444702   1.000000
   43        7.666146   1.000000
   44        7.932853   1.000024
   45        8.079604   1.015825
   46        8.087008   1.018957
   47        8.880067  -0.000000
   48        8.909497  -0.000000
   49        9.185770  -0.000000
   50        9.252601  -0.000000
   51        9.326495  -0.000000
   52        9.414149  -0.000000
   53        9.426779  -0.000000
   54        9.532084  -0.000000
   55        9.537161  -0.000000
   56        9.780400  -0.000000

  0.1111111E+00  0.1111111E+00  0.3742002E-15  0.2743484E-02
    1       -5.939844   1.000000
    2       -3.843975   1.000000
    3       -3.202513   1.000000
    4       -3.158577   1.000000
    5       -2.946129   1.000000
    6       -2.742743   1.000000
    7       -2.624396   1.000000
    8       -1.961448   1.000000
    9       -1.636091   1.000000
   10       -0.754875   1.000000
   11       -0.637813   1.000000
   12       -0.182071   1.000000
   13       -0.076359   1.000000
   14        0.275879   1.000000
   15        0.573168   1.000000
   16        1.918372   1.000000
   17        2.077990   1.000000
   18        2.280358   1.000000
   19        2.295098   1.000000
   20        2.449147   1.000000
   21        2.522710   1.000000
   22        2.880717   1.000000
   23        3.189166   1.000000
   24        3.194822   1.000000
   25        3.517392   1.000000
   26        3.777351   1.000000
   27        3.804830   1.000000
   28        4.001129   1.000000
   29        4.011676   1.000000
   30        4.278893   1.000000
   31        4.295885   1.000000
   32        4.573314   1.000000
   33        4.725089   1.000000
   34        4.927077   1.000000
   35        4.996899   1.000000
   36        5.137006   1.000000
   37        5.227834   1.000000
   38        5.480737   1.000000
   39        5.810041   1.000000
   40        6.840600   1.000000
   41        7.271341   1.000000
   42        7.308009   1.000000
   43        7.711998   1.000000
   44        7.856956   1.000000
   45        8.056527   1.008113
   46        8.447924  -0.010309
   47        8.801364  -0.000000
   48        9.173436  -0.000000
   49        9.185965  -0.000000
   50        9.268804  -0.000000
   51        9.318517  -0.000000
   52        9.433653  -0.000000
   53        9.556403  -0.000000
   54        9.957598  -0.000000
   55        9.962402  -0.000000
   56       10.171011  -0.000000

  0.2222222E+00  0.1111111E+00  0.3742002E-15  0.5486968E-02
    1       -5.708953   1.000000
    2       -3.786607   1.000000
    3       -3.773143   1.000000
    4       -3.245186   1.000000
    5       -3.209873   1.000000
    6       -2.894015   1.000000
    7       -2.500721   1.000000
    8       -2.015002   1.000000
    9       -1.241254   1.000000
   10       -0.442980   1.000000
   11       -0.246303   1.000000
   12        0.087952   1.000000
   13        0.251098   1.000000
   14        0.372023   1.000000
   15        1.002669   1.000000
   16        1.745859   1.000000
   17        1.996413   1.000000
   18        2.165490   1.000000
   19        2.183834   1.000000
   20        2.457091   1.000000
   21        2.466136   1.000000
   22        2.688987   1.000000
   23        3.083836   1.000000
   24        3.223148   1.000000
   25        3.302163   1.000000
   26        3.599060   1.000000
   27        3.639619   1.000000
   28        3.863647   1.000000
   29        3.885107   1.000000
   30        4.146130   1.000000
   31        4.328643   1.000000
   32        4.499711   1.000000
   33        4.628465   1.000000
   34        4.820653   1.000000
   35        4.907312   1.000000
   36        4.935667   1.000000
   37        5.014599   1.000000
   38        5.465047   1.000000
   39        6.328093   1.000000
   40        6.636655   1.000000
   41        6.783104   1.000000
   42        7.488900   1.000000
   43        7.725807   1.000000
   44        8.049930   1.006522
   45        8.448011  -0.010282
   46        8.746346  -0.000000
   47        8.843150  -0.000000
   48        8.885607  -0.000000
   49        9.024939  -0.000000
   50        9.063018  -0.000000
   51        9.289235  -0.000000
   52        9.317549  -0.000000
   53        9.421046  -0.000000
   54        9.753779  -0.000000
   55        9.813714  -0.000000
   56        9.878000  -0.000000

  0.3333333E+00  0.1111111E+00  0.3742002E-15  0.5486968E-02
    1       -5.375339   1.000000
    2       -4.373486   1.000000
    3       -3.669777   1.000000
    4       -3.390511   1.000000
    5       -3.339258   1.000000
    6       -2.959882   1.000000
    7       -2.383976   1.000000
    8       -2.122064   1.000000
    9       -0.689943   1.000000
   10       -0.654661   1.000000
   11        0.205729   1.000000
   12        0.388663   1.000000
   13        0.646941   1.000000
   14        0.904220   1.000000
   15        1.081296   1.000000
   16        1.615612   1.000000
   17        1.753405   1.000000
   18        2.057173   1.000000
   19        2.157413   1.000000
   20        2.269266   1.000000
   21        2.322986   1.000000
   22        2.713870   1.000000
   23        2.786278   1.000000
   24        2.983355   1.000000
   25        3.337589   1.000000
   26        3.407843   1.000000
   27        3.720944   1.000000
   28        3.775315   1.000000
   29        3.824375   1.000000
   30        3.965562   1.000000
   31        4.276413   1.000000
   32        4.281307   1.000000
   33        4.546025   1.000000
   34        4.581964   1.000000
   35        4.821237   1.000000
   36        4.949768   1.000000
   37        5.016415   1.000000
   38        5.772759   1.000000
   39        6.320396   1.000000
   40        6.401105   1.000000
   41        7.028645   1.000000
   42        7.560940   1.000000
   43        7.678823   1.000000
   44        8.092147   1.021262
   45        8.279511   0.307558
   46        8.316377   0.078624
   47        8.822951  -0.000000
   48        8.930126  -0.000000
   49        8.957812  -0.000000
   50        9.192713  -0.000000
   51        9.237407  -0.000000
   52        9.332710  -0.000000
   53        9.444757  -0.000000
   54        9.645683  -0.000000
   55        9.669411  -0.000000
   56        9.693494  -0.000000

  0.4444444E+00  0.1111111E+00  0.3742002E-15  0.5486968E-02
    1       -5.049123   1.000000
    2       -4.786309   1.000000
    3       -3.570705   1.000000
    4       -3.465562   1.000000
    5       -3.436550   1.000000
    6       -2.966005   1.000000
    7       -2.330714   1.000000
    8       -2.161624   1.000000
    9       -0.734494   1.000000
   10       -0.349020   1.000000
   11        0.388385   1.000000
   12        0.435005   1.000000
   13        0.696557   1.000000
   14        1.054452   1.000000
   15        1.345426   1.000000
   16        1.602412   1.000000
   17        1.714436   1.000000
   18        1.926130   1.000000
   19        2.062290   1.000000
   20        2.252693   1.000000
   21        2.290897   1.000000
   22        2.387328   1.000000
   23        2.758349   1.000000
   24        3.022703   1.000000
   25        3.112599   1.000000
   26        3.539861   1.000000
   27        3.576701   1.000000
   28        3.738972   1.000000
   29        3.905417   1.000000
   30        4.031922   1.000000
   31        4.174238   1.000000
   32        4.178672   1.000000
   33        4.363926   1.000000
   34        4.651371   1.000000
   35        4.716186   1.000000
   36        5.069236   1.000000
   37        5.127032   1.000000
   38        5.779809   1.000000
   39        6.100568   1.000000
   40        6.481742   1.000000
   41        7.471279   1.000000
   42        7.471425   1.000000
   43        7.725282   1.000000
   44        7.880262   1.000001
   45        8.074785   1.013941
   46        8.106074   1.027652
   47        8.748559  -0.000000
   48        8.957938  -0.000000
   49        9.122816  -0.000000
   50        9.210470  -0.000000
   51        9.215303  -0.000000
   52        9.245644  -0.000000
   53        9.328934  -0.000000
   54        9.569969  -0.000000
   55        9.650727  -0.000000
   56        9.744600  -0.000000

 -0.4444444E+00  0.1111111E+00  0.3742002E-15  0.5486968E-02
    1       -5.377508   1.000000
    2       -4.370277   1.000000
    3       -3.667792   1.000000
    4       -3.388244   1.000000
    5       -3.360404   1.000000
    6       -2.949956   1.000000
    7       -2.367849   1.000000
    8       -2.126697   1.000000
    9       -0.693760   1.000000
   10       -0.646825   1.000000
   11        0.195634   1.000000
   12        0.392113   1.000000
   13        0.644959   1.000000
   14        0.889725   1.000000
   15        1.132746   1.000000
   16        1.543801   1.000000
   17        1.766373   1.000000
   18        2.091779   1.000000
   19        2.124740   1.000000
   20        2.303560   1.000000
   21        2.388308   1.000000
   22        2.685454   1.000000
   23        2.738491   1.000000
   24        3.019197   1.000000
   25        3.248298   1.000000
   26        3.426184   1.000000
   27        3.666670   1.000000
   28        3.756437   1.000000
   29        3.840044   1.000000
   30        4.054453   1.000000
   31        4.174335   1.000000
   32        4.235394   1.000000
   33        4.528966   1.000000
   34        4.650596   1.000000
   35        4.800838   1.000000
   36        5.037348   1.000000
   37        5.067570   1.000000
   38        5.893202   1.000000
   39        6.320809   1.000000
   40        6.321215   1.000000
   41        6.917802   1.000000
   42        7.521944   1.000000
   43        7.745929   1.000000
   44        8.101438   1.025547
   45        8.269599   0.386685
   46        8.340170   0.000199
   47        8.811870  -0.000000
   48        8.948315  -0.000000
   49        8.991261  -0.000000
   50        9.181213  -0.000000
   51        9.272828  -0.000000
   52        9.334332  -0.000000
   53        9.413384  -0.000000
   54        9.625602  -0.000000
   55        9.660338  -0.000000
   56        9.676343  -0.000000

 -0.3333333E+00  0.1111111E+00  0.3742002E-15  0.5486968E-02
    1       -5.710635   1.000000
    2       -3.782127   1.000000
    3       -3.774298   1.000000
    4       -3.241685   1.000000
    5       -3.232188   1.000000
    6       -2.906790   1.000000
    7       -2.449249   1.000000
    8       -2.025797   1.000000
    9       -1.240524   1.000000
   10       -0.437888   1.000000
   11       -0.263998   1.000000
   12        0.092036   1.000000
   13        0.261473   1.000000
   14        0.383152   1.000000
   15        0.938669   1.000000
   16        1.797509   1.000000
   17        2.053751   1.000000
   18        2.190851   1.000000
   19        2.215723   1.000000
   20        2.393990   1.000000
   21        2.549502   1.000000
   22        2.635709   1.000000
   23        3.003613   1.000000
   24        3.126480   1.000000
   25        3.334955   1.000000
   26        3.564329   1.000000
   27        3.570263   1.000000
   28        3.850991   1.000000
   29        3.970572   1.000000
   30        4.149903   1.000000
   31        4.306966   1.000000
   32        4.497619   1.000000
   33        4.502613   1.000000
   34        4.783262   1.000000
   35        4.978474   1.000000
   36        5.000102   1.000000
   37        5.136996   1.000000
   38        5.704241   1.000000
   39        6.166189   1.000000
   40        6.531379   1.000000
   41        6.800240   1.000000
   42        7.530706   1.000000
   43        7.659837   1.000000
   44        8.064943   1.010535
   45        8.492794  -0.002053
   46        8.767977  -0.000000
   47        8.834021  -0.000000
   48        8.873179  -0.000000
   49        9.027358  -0.000000
   50        9.065015  -0.000000
   51        9.244560  -0.000000
   52        9.405740  -0.000000
   53        9.434013  -0.000000
   54        9.665592  -0.000000
   55        9.755939  -0.000000
   56        9.943536  -0.000000

 -0.2222222E+00  0.1111111E+00  0.3742002E-15  0.5486968E-02
    1       -5.940900   1.000000
    2       -3.845714   1.000000
    3       -3.191682   1.000000
    4       -3.163975   1.000000
    5       -2.948328   1.000000
    6       -2.837038   1.000000
    7       -2.504595   1.000000
    8       -1.979297   1.000000
    9       -1.627798   1.000000
   10       -0.790875   1.000000
   11       -0.605849   1.000000
   12       -0.185245   1.000000
   13       -0.073949   1.000000
   14        0.259071   1.000000
   15        0.562996   1.000000
   16        1.978083   1.000000
   17        2.120275   1.000000
   18        2.198981   1.000000
   19        2.359964   1.000000
   20        2.491126   1.000000
   21        2.560764   1.000000
   22        2.831544   1.000000
   23        3.116186   1.000000
   24        3.177749   1.000000
   25        3.364261   1.000000
   26        3.775612   1.000000
   27        3.825311   1.000000
   28        3.911601   1.000000
   29        4.101620   1.000000
   30        4.231769   1.000000
   31        4.317159   1.000000
   32        4.571437   1.000000
   33        4.718245   1.000000
   34        4.995102   1.000000
   35        5.051690   1.000000
   36        5.218156   1.000000
   37        5.383805   1.000000
   38        5.480297   1.000000
   39        5.634541   1.000000
   40        6.813275   1.000000
   41        7.291513   1.000000
   42        7.306888   1.000000
   43        7.737676   1.000000
   44        7.837639   1.000000
   45        8.039084   1.004446
   46        8.431406  -0.016288
   47        8.803708  -0.000000
   48        9.117267  -0.000000
   49        9.197077  -0.000000
   50        9.291022  -0.000000
   51        9.324741  -0.000000
   52        9.467218  -0.000000
   53        9.636094  -0.000000
   54        9.869033  -0.000000
   55        9.966868  -0.000000
   56       10.108718  -0.000000

 -0.1111111E+00  0.1111111E+00  0.3742002E-15  0.2743484E-02
    1       -6.057864   1.000000
    2       -3.880608   1.000000
    3       -3.144589   1.000000
    4       -2.796444   1.000000
    5       -2.782134   1.000000
    6       -2.522465   1.000000
    7       -2.476836   1.000000
    8       -2.206850   1.000000
    9       -1.544176   1.000000
   10       -1.411718   1.000000
   11       -1.071455   1.000000
   12       -0.239851   1.000000
   13        0.027037   1.000000
   14        0.064546   1.000000
   15        0.426347   1.000000
   16        1.898152   1.000000
   17        2.050411   1.000000
   18        2.129164   1.000000
   19        2.330868   1.000000
   20        2.593059   1.000000
   21        2.678988   1.000000
   22        3.094570   1.000000
   23        3.231510   1.000000
   24        3.298133   1.000000
   25        3.369422   1.000000
   26        3.893122   1.000000
   27        3.939034   1.000000
   28        4.160194   1.000000
   29        4.168316   1.000000
   30        4.309359   1.000000
   31        4.310748   1.000000
   32        4.592292   1.000000
   33        4.655651   1.000000
   34        4.899229   1.000000
   35        4.938412   1.000000
   36        5.207691   1.000000
   37        5.501908   1.000000
   38        5.736014   1.000000
   39        5.884832   1.000000
   40        7.045474   1.000000
   41        7.156777   1.000000
   42        7.352464   1.000000
   43        7.390187   1.000000
   44        7.676895   1.000000
   45        7.998558   1.000822
   46        8.188342   0.951700
   47        8.772422  -0.000000
   48        9.274748  -0.000000
   49        9.299219  -0.000000
   50        9.317892  -0.000000
   51        9.464758  -0.000000
   52        9.504360  -0.000000
   53        9.829117  -0.000000
   54       10.009637  -0.000000
   55       10.064874  -0.000000
   56       10.136072  -0.000000

  0.2222222E+00  0.2222222E+00  0.3742002E-15  0.2743484E-02
    1       -5.427941   1.000000
    2       -4.100587   1.000000
    3       -3.756530   1.000000
    4       -3.686608   1.000000
    5       -3.239830   1.000000
    6       -3.103068   1.000000
    7       -2.269499   1.000000
    8       -1.417565   1.000000
    9       -1.385309   1.000000
   10       -0.838859   1.000000
   11        0.450651   1.000000
   12        0.528750   1.000000
   13        0.670959   1.000000
   14        0.762015   1.000000
   15        0.988750   1.000000
   16        1.286213   1.000000
   17        2.031832   1.000000
   18        2.034054   1.000000
   19        2.230376   1.000000
   20        2.301769   1.000000
   21        2.558192   1.000000
   22        2.656465   1.000000
   23        2.906013   1.000000
   24        3.030881   1.000000
   25        3.083466   1.000000
   26        3.488840   1.000000
   27        3.502420   1.000000
   28        3.769481   1.000000
   29        3.802431   1.000000
   30        3.984376   1.000000
   31        4.382077   1.000000
   32        4.386137   1.000000
   33        4.403001   1.000000
   34        4.622258   1.000000
   35        4.860248   1.000000
   36        4.981530   1.000000
   37        5.072325   1.000000
   38        5.632116   1.000000
   39        6.329747   1.000000
   40        6.373133   1.000000
   41        6.959063   1.000000
   42        7.626362   1.000000
   43        7.722473   1.000000
   44        8.200592   0.898700
   45        8.446782  -0.010668
   46        8.639035  -0.000000
   47        8.654147  -0.000000
   48        8.738573  -0.000000
   49        8.931704  -0.000000
   50        9.071290  -0.000000
   51        9.256530  -0.000000
   52        9.343650  -0.000000
   53        9.344920  -0.000000
   54        9.531492  -0.000000
   55        9.673584  -0.000000
   56        9.790969  -0.000000

  0.3333333E+00  0.2222222E+00  0.3742002E-15  0.5486968E-02
    1       -5.058693   1.000000
    2       -4.553479   1.000000
    3       -3.947496   1.000000
    4       -3.576510   1.000000
    5       -3.359752   1.000000
    6       -3.180246   1.000000
    7       -2.051115   1.000000
    8       -1.477753   1.000000
    9       -1.137718   1.000000
   10       -0.810982   1.000000
   11        0.313120   1.000000
   12        0.818232   1.000000
   13        0.954405   1.000000
   14        1.041874   1.000000
   15        1.308525   1.000000
   16        1.596880   1.000000
   17        1.766828   1.000000
   18        1.952889   1.000000
   19        2.045401   1.000000
   20        2.244742   1.000000
   21        2.361173   1.000000
   22        2.498555   1.000000
   23        2.579309   1.000000
   24        2.921849   1.000000
   25        3.210513   1.000000
   26        3.240941   1.000000
   27        3.585781   1.000000
   28        3.747231   1.000000
   29        3.790396   1.000000
   30        4.003843   1.000000
   31        4.149045   1.000000
   32        4.267557   1.000000
   33        4.324171   1.000000
   34        4.537896   1.000000
   35        4.781077   1.000000
   36        5.090546   1.000000
   37        5.343509   1.000000
   38        5.809155   1.000000
   39        5.946311   1.000000
   40        6.170018   1.000000
   41        7.499511   1.000000
   42        7.580390   1.000000
   43        7.992193   1.000609
   44        8.131966   1.035418
   45        8.281477   0.292507
   46        8.303538   0.144139
   47        8.599686  -0.000007
   48        8.806624  -0.000000
   49        8.831136  -0.000000
   50        8.962751  -0.000000
   51        9.063802  -0.000000
   52        9.235965  -0.000000
   53        9.309825  -0.000000
   54        9.349343  -0.000000
   55        9.511956  -0.000000
   56        9.710805  -0.000000

  0.4444444E+00  0.2222222E+00  0.3742002E-15  0.5486968E-02
    1       -5.065953   1.000000
    2       -4.540981   1.000000
    3       -3.951545   1.000000
    4       -3.570971   1.000000
    5       -3.391532   1.000000
    6       -3.162493   1.000000
    7       -2.027404   1.000000
    8       -1.479774   1.000000
    9       -1.145876   1.000000
   10       -0.817625   1.000000
   11        0.322152   1.000000
   12        0.802495   1.000000
   13        0.981101   1.000000
   14        1.039329   1.000000
   15        1.311152   1.000000
   16        1.616435   1.000000
   17        1.682678   1.000000
   18        1.997764   1.000000
   19        2.060214   1.000000
   20        2.242467   1.000000
   21        2.327001   1.000000
   22        2.562266   1.000000
   23        2.634249   1.000000
   24        2.863849   1.000000
   25        3.238270   1.000000
   26        3.268362   1.000000
   27        3.442678   1.000000
   28        3.661388   1.000000
   29        3.842051   1.000000
   30        3.947570   1.000000
   31        4.060863   1.000000
   32        4.307913   1.000000
   33        4.435997   1.000000