   57   57    1    1
  0.1334943E+02  0.6088057E-09  0.6088057E-09  0.2372246E-08  0.5000000E-15
   1.0000000000000000E-004
  CAR 
 Name                                    
    203     41    132

  0.3742002E-15  0.3742002E-15  0.1262379E-14  0.1234568E-01
    1      -11.520651   1.000000
    2      -10.957945   1.000000
    3      -10.192519   1.000000
    4       -9.435652   1.000000
    5       -8.709911   1.000000
    6       -8.637277   1.000000
    7       -8.256804   1.000000
    8       -8.070874   1.000000
    9       -7.931080   1.000000
   10       -7.829927   1.000000
   11       -7.752020   1.000000
   12       -7.718542   1.000000
   13       -7.682174   1.000000
   14       -7.670585   1.000000
   15       -7.409074   1.000000
   16       -7.366317   1.000000
   17       -7.320897   1.000000
   18       -7.280052   1.000000
   19       -7.161883   1.000000
   20       -7.025804   1.000000
   21       -6.997225   1.000000
   22       -6.873965   1.000000
   23       -6.245271   1.000000
   24       -6.115213   1.000000
   25       -6.114758   1.000000
   26       -6.007787   1.000000
   27       -5.880069   1.000000
   28       -5.868346   1.000000
   29       -5.818990   1.000000
   30       -5.675099   1.000000
   31       -5.233716   1.000000
   32       -4.737837   1.000000
   33       -4.609546   1.000000
   34       -4.607605   1.000000
   35       -4.542049   1.000000
   36       -4.433413   1.000000
   37       -4.221880   1.000000
   38       -3.663841   1.000000
   39       -3.318766   1.000000
   40       -3.211612   1.000000
   41       -3.142398   1.000000
   42       -2.942450   1.000000
   43       -2.785299   1.000000
   44       -2.733602   1.000000
   45       -2.569051   1.000000
   46       -2.530129   1.000000
   47       -2.449598   1.000000
   48       -2.425089   1.000000
   49       -2.256997   1.000000
   50       -2.210513   1.000000
   51       -2.108551   1.000000
   52       -2.044521   1.000000
   53       -1.936025   1.000000
   54       -1.918860   1.000000
   55       -1.856242   1.000000
   56       -1.813283   1.000000
   57       -1.789706   1.000000
   58       -1.706638   1.000000
   59       -1.676166   1.000000
   60       -1.670877   1.000000
   61       -1.533567   1.000000
   62       -1.380693   1.000000
   63       -1.298994   1.000000
   64       -1.287530   1.000000
   65       -1.193289   1.000000
   66       -1.120895   1.000000
   67       -1.075572   1.000000
   68       -0.945420   1.000000
   69       -0.846433   1.000000
   70       -0.810885   1.000000
   71       -0.808836   1.000000
   72       -0.676055   1.000000
   73       -0.655946   1.000000
   74       -0.621972   1.000000
   75       -0.463446   1.000000
   76       -0.407935   1.000000
   77       -0.245893   1.000000
   78       -0.100393   1.000000
   79       -0.092842   1.000000
   80        0.145796   1.000000
   81        0.280562   1.000000
   82        0.373515   1.000000
   83        0.515156   1.000000
   84        0.623205   1.000000
   85        0.829747   1.000000
   86        0.942968   1.000000
   87        1.117673   1.000000
   88        1.159726   1.000000
   89        1.215971   1.000000
   90        1.386478   1.000000
   91        1.401351   1.000000
   92        1.431165   1.000000
   93        1.528743   1.000000
   94        1.538018   1.000000
   95        1.592948   1.000000
   96        1.598618   1.000000
   97        2.001828   1.000009
   98        2.034422   1.000026
   99        2.643513   0.643874
  100        2.646117   0.633353
  101        2.696903   0.420745
  102        2.754960   0.199810
  103        2.901954  -0.033491
  104        2.943375  -0.034075
  105        3.083544  -0.007312
  106        3.156812  -0.001838
  107        3.208232  -0.000575
  108        3.530769  -0.000000
  109        3.566378  -0.000000
  110        3.573820  -0.000000
  111        3.619992  -0.000000
  112        3.708768  -0.000000
  113        3.769986  -0.000000
  114        3.818148  -0.000000
  115        3.863762  -0.000000
  116        3.901990  -0.000000
  117        3.974352  -0.000000
  118        3.991882  -0.000000
  119        4.048243  -0.000000
  120        4.098000  -0.000000
  121        4.201662  -0.000000
  122        4.207467  -0.000000
  123        4.273558  -0.000000
  124        4.316421  -0.000000
  125        4.463398  -0.000000
  126        4.727293  -0.000000
  127        4.918158  -0.000000
  128        4.992303  -0.000000
  129        5.398785  -0.000000
  130        5.791153  -0.000000
  131        6.007174  -0.000000
  132        6.206552  -0.000000

  0.1111111E+00  0.3857958E-15  0.1262379E-14  0.2469136E-01
    1      -11.463254   1.000000
    2      -10.905234   1.000000
    3      -10.149530   1.000000
    4       -9.401988   1.000000
    5       -8.675667   1.000000
    6       -8.655407   1.000000
    7       -8.402310   1.000000
    8       -8.286647   1.000000
    9       -8.097601   1.000000
   10       -8.001597   1.000000
   11       -7.976304   1.000000
   12       -7.931096   1.000000
   13       -7.822981   1.000000
   14       -7.769144   1.000000
   15       -7.475920   1.000000
   16       -7.259161   1.000000
   17       -7.179185   1.000000
   18       -7.113459   1.000000
   19       -6.944756   1.000000
   20       -6.870352   1.000000
   21       -6.786557   1.000000
   22       -6.603830   1.000000
   23       -6.302884   1.000000
   24       -6.123044   1.000000
   25       -6.079300   1.000000
   26       -5.964425   1.000000
   27       -5.860099   1.000000
   28       -5.821581   1.000000
   29       -5.700085   1.000000
   30       -5.548730   1.000000
   31       -5.176363   1.000000
   32       -4.623004   1.000000
   33       -4.568454   1.000000
   34       -4.492082   1.000000
   35       -4.427656   1.000000
   36       -4.320675   1.000000
   37       -4.119116   1.000000
   38       -3.630469   1.000000
   39       -3.280467   1.000000
   40       -3.239477   1.000000
   41       -3.174375   1.000000
   42       -2.931064   1.000000
   43       -2.903240   1.000000
   44       -2.709108   1.000000
   45       -2.670542   1.000000
   46       -2.643790   1.000000
   47       -2.539944   1.000000
   48       -2.442630   1.000000
   49       -2.342002   1.000000
   50       -2.252257   1.000000
   51       -2.180458   1.000000
   52       -1.994845   1.000000
   53       -1.948509   1.000000
   54       -1.904981   1.000000
   55       -1.840278   1.000000
   56       -1.806252   1.000000
   57       -1.778798   1.000000
   58       -1.735222   1.000000
   59       -1.676517   1.000000
   60       -1.670222   1.000000
   61       -1.524566   1.000000
   62       -1.407568   1.000000
   63       -1.368031   1.000000
   64       -1.319399   1.000000
   65       -1.260864   1.000000
   66       -1.135959   1.000000
   67       -1.119716   1.000000
   68       -1.029550   1.000000
   69       -0.972354   1.000000
   70       -0.848718   1.000000
   71       -0.823198   1.000000
   72       -0.746198   1.000000
   73       -0.646956   1.000000
   74       -0.578794   1.000000
   75       -0.471113   1.000000
   76       -0.407337   1.000000
   77       -0.280732   1.000000
   78       -0.157183   1.000000
   79       -0.096150   1.000000
   80        0.054972   1.000000
   81        0.141715   1.000000
   82        0.313227   1.000000
   83        0.344604   1.000000
   84        0.619396   1.000000
   85        0.769400   1.000000
   86        0.904050   1.000000
   87        0.921860   1.000000
   88        1.067056   1.000000
   89        1.099292   1.000000
   90        1.273685   1.000000
   91        1.387247   1.000000
   92        1.432592   1.000000
   93        1.442590   1.000000
   94        1.490104   1.000000
   95        1.652134   1.000000
   96        1.749743   1.000000
   97        2.073561   1.000082
   98        2.293910   1.010237
   99        2.515504   0.993271
  100        2.621497   0.729131
  101        2.702468   0.397655
  102        2.759457   0.185238
  103        2.849878  -0.003637
  104        2.900152  -0.033114
  105        3.184121  -0.001011
  106        3.238161  -0.000273
  107        3.372335  -0.000005
  108        3.529427  -0.000000
  109        3.541784  -0.000000
  110        3.584912  -0.000000
  111        3.611229  -0.000000
  112        3.681788  -0.000000
  113        3.746697  -0.000000
  114        3.776716  -0.000000
  115        3.803379  -0.000000
  116        3.865227  -0.000000
  117        3.913865  -0.000000
  118        3.925619  -0.000000
  119        3.985045  -0.000000
  120        4.005256  -0.000000
  121        4.072530  -0.000000
  122        4.137569  -0.000000
  123        4.165014  -0.000000
  124        4.236364  -0.000000
  125        4.363487  -0.000000
  126        4.645750  -0.000000
  127        4.883532  -0.000000
  128        5.019723  -0.000000
  129        5.585972  -0.000000
  130        5.952154  -0.000000
  131        6.196715  -0.000000
  132        6.258346  -0.000000

  0.2222222E+00  0.3935346E-15  0.1262379E-14  0.2469136E-01
    1      -11.293224   1.000000
    2      -10.749503   1.000000
    3      -10.023751   1.000000
    4       -9.304082   1.000000
    5       -8.975187   1.000000
    6       -8.760909   1.000000
    7       -8.740461   1.000000
    8       -8.566623   1.000000
    9       -8.251291   1.000000
   10       -8.191379   1.000000
   11       -8.159241   1.000000
   12       -8.021999   1.000000
   13       -8.014718   1.000000
   14       -7.982000   1.000000
   15       -7.759830   1.000000
   16       -7.343434   1.000000
   17       -7.069425   1.000000
   18       -6.783866   1.000000
   19       -6.769995   1.000000
   20       -6.698121   1.000000
   21       -6.489918   1.000000
   22       -6.328177   1.000000
   23       -6.053769   1.000000
   24       -5.988984   1.000000
   25       -5.891091   1.000000
   26       -5.787577   1.000000
   27       -5.713784   1.000000
   28       -5.647081   1.000000
   29       -5.281634   1.000000
   30       -5.252483   1.000000
   31       -5.009438   1.000000
   32       -4.448173   1.000000
   33       -4.436806   1.000000
   34       -4.398293   1.000000
   35       -4.125180   1.000000
   36       -3.935880   1.000000
   37       -3.754229   1.000000
   38       -3.560577   1.000000
   39       -3.388311   1.000000
   40       -3.285684   1.000000
   41       -3.212910   1.000000
   42       -3.150865   1.000000
   43       -3.133123   1.000000
   44       -3.075882   1.000000
   45       -2.873848   1.000000
   46       -2.666551   1.000000
   47       -2.555010   1.000000
   48       -2.500310   1.000000
   49       -2.378968   1.000000
   50       -2.245673   1.000000
   51       -2.164663   1.000000
   52       -2.110679   1.000000
   53       -2.060843   1.000000
   54       -1.961238   1.000000
   55       -1.926697   1.000000
   56       -1.847192   1.000000
   57       -1.826287   1.000000
   58       -1.761183   1.000000
   59       -1.732160   1.000000
   60       -1.667250   1.000000
   61       -1.547212   1.000000
   62       -1.532932   1.000000
   63       -1.449667   1.000000
   64       -1.409242   1.000000
   65       -1.352549   1.000000
   66       -1.283905   1.000000
   67       -1.224426   1.000000
   68       -1.198239   1.000000
   69       -1.085112   1.000000
   70       -1.008955   1.000000
   71       -0.950469   1.000000
   72       -0.869794   1.000000
   73       -0.727855   1.000000
   74       -0.594386   1.000000
   75       -0.559308   1.000000
   76       -0.429037   1.000000
   77       -0.382073   1.000000
   78       -0.257529   1.000000
   79       -0.168159   1.000000
   80       -0.151193   1.000000
   81        0.112197   1.000000
   82        0.226943   1.000000
   83        0.315651   1.000000
   84        0.475434   1.000000
   85        0.517391   1.000000
   86        0.736632   1.000000
   87        0.804745   1.000000
   88        0.901228   1.000000
   89        1.023271   1.000000
   90        1.205217   1.000000
   91        1.245991   1.000000
   92        1.328762   1.000000
   93        1.385821   1.000000
   94        1.402132   1.000000
   95        1.664966   1.000000
   96        1.821162   1.000000
   97        1.932685   1.000001
   98        2.270928   1.007110
   99        2.361667   1.023896
  100        2.648144   0.625114
  101        2.729732   0.289317
  102        2.915281  -0.035214
  103        3.019517  -0.018236
  104        3.122506  -0.003657
  105        3.230800  -0.000329
  106        3.281869  -0.000084
  107        3.332615  -0.000019
  108        3.369707  -0.000006
  109        3.417993  -0.000001
  110        3.467773  -0.000000
  111        3.516999  -0.000000
  112        3.579941  -0.000000
  113        3.650922  -0.000000
  114        3.713223  -0.000000
  115        3.731804  -0.000000
  116        3.783510  -0.000000
  117        3.821733  -0.000000
  118        3.858820  -0.000000
  119        3.908292  -0.000000
  120        3.926753  -0.000000
  121        3.976871  -0.000000
  122        4.031603  -0.000000
  123        4.075012  -0.000000
  124        4.202729  -0.000000
  125        4.234231  -0.000000
  126        4.318971  -0.000000
  127        4.391658  -0.000000
  128        4.427707  -0.000000
  129        4.698237  -0.000000
  130        4.790950  -0.000000
  131        5.790014  -0.000000
  132        6.305000  -0.000000

  0.3333333E+00  0.3939838E-15  0.1262379E-14  0.2469136E-01
    1      -11.017900   1.000000
    2      -10.498381   1.000000
    3       -9.825162   1.000000
    4       -9.581012   1.000000
    5       -9.255190   1.000000
    6       -9.141973   1.000000
    7       -8.958005   1.000000
    8       -8.397180   1.000000
    9       -8.353931   1.000000
   10       -8.323704   1.000000
   11       -8.308547   1.000000
   12       -8.174588   1.000000
   13       -8.151486   1.000000
   14       -8.073240   1.000000
   15       -7.992591   1.000000
   16       -7.430054   1.000000
   17       -7.404516   1.000000
   18       -6.633352   1.000000
   19       -6.596861   1.000000
   20       -6.541653   1.000000
   21       -6.072735   1.000000
   22       -6.019079   1.000000
   23       -5.922351   1.000000
   24       -5.833214   1.000000
   25       -5.819093   1.000000
   26       -5.597037   1.000000
   27       -5.125903   1.000000
   28       -5.018342   1.000000
   29       -4.927691   1.000000
   30       -4.770805   1.000000
   31       -4.660946   1.000000
   32       -4.289501   1.000000
   33       -4.217747   1.000000
   34       -4.138100   1.000000
   35       -3.893293   1.000000
   36       -3.762038   1.000000
   37       -3.671741   1.000000
   38       -3.651084   1.000000
   39       -3.620779   1.000000
   40       -3.532450   1.000000
   41       -3.504608   1.000000
   42       -3.404594   1.000000
   43       -3.232131   1.000000
   44       -2.973080   1.000000
   45       -2.845031   1.000000
   46       -2.745186   1.000000
   47       -2.649392   1.000000
   48       -2.558375   1.000000
   49       -2.466957   1.000000
   50       -2.356203   1.000000
   51       -2.265987   1.000000
   52       -2.239462   1.000000
   53       -2.152383   1.000000
   54       -2.114661   1.000000
   55       -2.036093   1.000000
   56       -1.999411   1.000000
   57       -1.974063   1.000000
   58       -1.883600   1.000000
   59       -1.839412   1.000000
   60       -1.804284   1.000000
   61       -1.664948   1.000000
   62       -1.612845   1.000000
   63       -1.580672   1.000000
   64       -1.489856   1.000000
   65       -1.457457   1.000000
   66       -1.413958   1.000000
   67       -1.347167   1.000000
   68       -1.234882   1.000000
   69       -1.167909   1.000000
   70       -1.125760   1.000000
   71       -1.078546   1.000000
   72       -0.950091   1.000000
   73       -0.754572   1.000000
   74       -0.711408   1.000000
   75       -0.604437   1.000000
   76       -0.548016   1.000000
   77       -0.465895   1.000000
   78       -0.387703   1.000000
   79       -0.255172   1.000000
   80       -0.121878   1.000000
   81       -0.077569   1.000000
   82        0.106739   1.000000
   83        0.246437   1.000000
   84        0.410172   1.000000
   85        0.516554   1.000000
   86        0.739437   1.000000
   87        0.792178   1.000000
   88        0.859144   1.000000
   89        0.957605   1.000000
   90        1.067352   1.000000
   91        1.128128   1.000000
   92        1.251069   1.000000
   93        1.301707   1.000000
   94        1.374603   1.000000
   95        1.478366   1.000000
   96        1.685863   1.000000
   97        2.089363   1.000128
   98        2.133148   1.000400
   99        2.193111   1.001609
  100        2.538972   0.958309
  101        2.731368   0.283154
  102        2.780077   0.124470
  103        2.873405  -0.022528
  104        2.934941  -0.034954
  105        3.060349  -0.010533
  106        3.090445  -0.006514
  107        3.230570  -0.000331
  108        3.281938  -0.000084
  109        3.327750  -0.000022
  110        3.398370  -0.000002
  111        3.434692  -0.000001
  112        3.476891  -0.000000
  113        3.537245  -0.000000
  114        3.641259  -0.000000
  115        3.657022  -0.000000
  116        3.762815  -0.000000
  117        3.809810  -0.000000
  118        3.871074  -0.000000
  119        3.891695  -0.000000
  120        3.947374  -0.000000
  121        4.005928  -0.000000
  122        4.083587  -0.000000
  123        4.133452  -0.000000
  124        4.176269  -0.000000
  125        4.222136  -0.000000
  126        4.319628  -0.000000
  127        4.489114  -0.000000
  128        4.525863  -0.000000
  129        4.612601  -0.000000
  130        4.697924  -0.000000
  131        4.883283  -0.000000
  132        5.629881  -0.000000

  0.4444444E+00  0.3881204E-15  0.1262379E-14  0.2469136E-01
    1      -10.663512   1.000000
    2      -10.173366   1.000000
    3      -10.102423   1.000000
    4       -9.708374   1.000000
    5       -9.571142   1.000000
    6       -9.256444   1.000000
    7       -8.959279   1.000000
    8       -8.434474   1.000000
    9       -8.400631   1.000000
   10       -8.395291   1.000000
   11       -8.372509   1.000000
   12       -8.247412   1.000000
   13       -8.158503   1.000000
   14       -8.124161   1.000000
   15       -7.987266   1.000000
   16       -7.803210   1.000000
   17       -7.434965   1.000000
   18       -6.635327   1.000000
   19       -6.548538   1.000000
   20       -6.428691   1.000000
   21       -5.903367   1.000000
   22       -5.778039   1.000000
   23       -5.692794   1.000000
   24       -5.658877   1.000000
   25       -5.599126   1.000000
   26       -5.501341   1.000000
   27       -4.722874   1.000000
   28       -4.589359   1.000000
   29       -4.440950   1.000000
   30       -4.293692   1.000000
   31       -4.216435   1.000000
   32       -4.186466   1.000000
   33       -4.119879   1.000000
   34       -4.023417   1.000000
   35       -3.973705   1.000000
   36       -3.900083   1.000000
   37       -3.869948   1.000000
   38       -3.814100   1.000000
   39       -3.724933   1.000000
   40       -3.624517   1.000000
   41       -3.567368   1.000000
   42       -3.533061   1.000000
   43       -3.373109   1.000000
   44       -3.283037   1.000000
   45       -2.973296   1.000000
   46       -2.744435   1.000000
   47       -2.686656   1.000000
   48       -2.584794   1.000000
   49       -2.500412   1.000000
   50       -2.458450   1.000000
   51       -2.319647   1.000000
   52       -2.276306   1.000000
   53       -2.240430   1.000000
   54       -2.159445   1.000000
   55       -2.111196   1.000000
   56       -2.077812   1.000000
   57       -2.040502   1.000000
   58       -1.972669   1.000000
   59       -1.919108   1.000000
   60       -1.846612   1.000000
   61       -1.775057   1.000000
   62       -1.686896   1.000000
   63       -1.630314   1.000000
   64       -1.566827   1.000000
   65       -1.532735   1.000000
   66       -1.494035   1.000000
   67       -1.392567   1.000000
   68       -1.358364   1.000000
   69       -1.216853   1.000000
   70       -1.161184   1.000000
   71       -1.104147   1.000000
   72       -1.001877   1.000000
   73       -0.867939   1.000000
   74       -0.697128   1.000000
   75       -0.666403   1.000000
   76       -0.643926   1.000000
   77       -0.539401   1.000000
   78       -0.406196   1.000000
   79       -0.285561   1.000000
   80       -0.206224   1.000000
   81       -0.037201   1.000000
   82        0.059671   1.000000
   83        0.160011   1.000000
   84        0.431060   1.000000
   85        0.514140   1.000000
   86        0.706096   1.000000
   87        0.771890   1.000000
   88        0.872515   1.000000
   89        0.919346   1.000000
   90        1.028089   1.000000
   91        1.118516   1.000000
   92        1.207724   1.000000
   93        1.332356   1.000000
   94        1.355096   1.000000
   95        1.404200   1.000000
   96        1.726334   1.000000
   97        2.067262   1.000069
   98        2.197238   1.001757
   99        2.250117   1.004959
  100        2.264072   1.006334
  101        2.366982   1.025125
  102        2.565890   0.901722
  103        2.643457   0.644100
  104        2.777002   0.132878
  105        2.916022  -0.035259
  106        2.989287  -0.025100
  107        3.123866  -0.003564
  108        3.194744  -0.000792
  109        3.247474  -0.000214
  110        3.286686  -0.000073
  111        3.337632  -0.000016
  112        3.390941  -0.000003
  113        3.459551  -0.000000
  114        3.536394  -0.000000
  115        3.610439  -0.000000
  116        3.726244  -0.000000
  117        3.761328  -0.000000
  118        3.801256  -0.000000
  119        3.865279  -0.000000
  120        3.975798  -0.000000
  121        4.026614  -0.000000
  122        4.072695  -0.000000
  123        4.217555  -0.000000
  124        4.300879  -0.000000
  125        4.346300  -0.000000
  126        4.452451  -0.000000
  127        4.525802  -0.000000
  128        4.823827  -0.000000
  129        4.876380  -0.000000
  130        4.941862  -0.000000
  131        5.023428  -0.000000
  132        5.350985  -0.000000

  0.3742002E-15  0.1111111E+00  0.1262379E-14  0.2469136E-01
    1      -11.463256   1.000000
    2      -10.905235   1.000000
    3      -10.149532   1.000000
    4       -9.402011   1.000000
    5       -8.675663   1.000000
    6       -8.655384   1.000000
    7       -8.402400   1.000000
    8       -8.286639   1.000000
    9       -8.097609   1.000000
   10       -8.001762   1.000000
   11       -7.976235   1.000000
   12       -7.931063   1.000000
   13       -7.822597   1.000000
   14       -7.769332   1.000000
   15       -7.473699   1.000000
   16       -7.261625   1.000000
   17       -7.179570   1.000000
   18       -7.113485   1.000000
   19       -6.944527   1.000000
   20       -6.870723   1.000000
   21       -6.786684   1.000000
   22       -6.603540   1.000000
   23       -6.302536   1.000000
   24       -6.122947   1.000000
   25       -6.079002   1.000000
   26       -5.964583   1.000000
   27       -5.859778   1.000000
   28       -5.821438   1.000000
   29       -5.700611   1.000000
   30       -5.548587   1.000000
   31       -5.176204   1.000000
   32       -4.623119   1.000000
   33       -4.568504   1.000000
   34       -4.492504   1.000000
   35       -4.427477   1.000000
   36       -4.320667   1.000000
   37       -4.118908   1.000000
   38       -3.630452   1.000000
   39       -3.280538   1.000000
   40       -3.239350   1.000000
   41       -3.174409   1.000000
   42       -2.931052   1.000000
   43       -2.903306   1.000000
   44       -2.709373   1.000000
   45       -2.670717   1.000000
   46       -2.643444   1.000000
   47       -2.539870   1.000000
   48       -2.443049   1.000000
   49       -2.341773   1.000000
   50       -2.252213   1.000000
   51       -2.180404   1.000000
   52       -1.995472   1.000000
   53       -1.948370   1.000000
   54       -1.905336   1.000000
   55       -1.840238   1.000000
   56       -1.806191   1.000000
   57       -1.778380   1.000000
   58       -1.735131   1.000000
   59       -1.675913   1.000000
   60       -1.670384   1.000000
   61       -1.524786   1.000000
   62       -1.407356   1.000000
   63       -1.368008   1.000000
   64       -1.319370   1.000000
   65       -1.260366   1.000000
   66       -1.136088   1.000000
   67       -1.119884   1.000000
   68       -1.029640   1.000000
   69       -0.972618   1.000000
   70       -0.849173   1.000000
   71       -0.822264   1.000000
   72       -0.746133   1.000000
   73       -0.646825   1.000000
   74       -0.578548   1.000000
   75       -0.471046   1.000000
   76       -0.407348   1.000000
   77       -0.280965   1.000000
   78       -0.157729   1.000000
   79       -0.096399   1.000000
   80        0.054150   1.000000
   81        0.142408   1.000000
   82        0.313612   1.000000
   83        0.344551   1.000000
   84        0.618709   1.000000
   85        0.770001   1.000000
   86        0.903952   1.000000
   87        0.921843   1.000000
   88        1.067968   1.000000
   89        1.099430   1.000000
   90        1.273045   1.000000
   91        1.387164   1.000000
   92        1.432726   1.000000
   93        1.442579   1.000000
   94        1.490018   1.000000
   95        1.651979   1.000000
   96        1.749727   1.000000
   97        2.073752   1.000083
   98        2.293142   1.010119
   99        2.515685   0.993050
  100        2.621625   0.728659
  101        2.702427   0.397824
  102        2.759041   0.186567
  103        2.849909  -0.003669
  104        2.900156  -0.033115
  105        3.183896  -0.001016
  106        3.238014  -0.000274
  107        3.372094  -0.000005
  108        3.529648  -0.000000
  109        3.542128  -0.000000
  110        3.585529  -0.000000
  111        3.611058  -0.000000
  112        3.681698  -0.000000
  113        3.746549  -0.000000
  114        3.772345  -0.000000
  115        3.798648  -0.000000
  116        3.865041  -0.000000
  117        3.885898  -0.000000
  118        3.941097  -0.000000
  119        3.967558  -0.000000
  120        3.988765  -0.000000
  121        4.030669  -0.000000
  122        4.115040  -0.000000
  123        4.154518  -0.000000
  124        4.229889  -0.000000
  125        4.298793  -0.000000
  126        4.414504  -0.000000
  127        4.728812  -0.000000
  128        4.886215  -0.000000
  129        5.547465  -0.000000
  130        5.925253  -0.000000
  131        6.180434  -0.000000
  132        6.219171  -0.000000

  0.1111111E+00  0.1111111E+00  0.1262379E-14  0.2469136E-01
    1      -11.348880   1.000000
    2      -10.800565   1.000000
    3      -10.064736   1.000000
    4       -9.336774   1.000000
    5       -8.714903   1.000000
    6       -8.695463   1.000000
    7       -8.602688   1.000000
    8       -8.563990   1.000000
    9       -8.468651   1.000000
   10       -8.285279   1.000000
   11       -8.242026   1.000000
   12       -7.989191   1.000000
   13       -7.795836   1.000000
   14       -7.624419   1.000000
   15       -7.468055   1.000000
   16       -7.393794   1.000000
   17       -7.340381   1.000000
   18       -6.921867   1.000000
   19       -6.907006   1.000000
   20       -6.769472   1.000000
   21       -6.438372   1.000000
   22       -6.229206   1.000000
   23       -6.154492   1.000000
   24       -6.020855   1.000000
   25       -5.919756   1.000000
   26       -5.842203   1.000000
   27       -5.805409   1.000000
   28       -5.631248   1.000000
   29       -5.540897   1.000000
   30       -5.436614   1.000000
   31       -5.109112   1.000000
   32       -4.704948   1.000000
   33       -4.333509   1.000000
   34       -4.242923   1.000000
   35       -4.144497   1.000000
   36       -4.093697   1.000000
   37       -3.937278   1.000000
   38       -3.598863   1.000000
   39       -3.360786   1.000000
   40       -3.304932   1.000000
   41       -3.186972   1.000000
   42       -3.155615   1.000000
   43       -3.134035   1.000000
   44       -2.849312   1.000000
   45       -2.670644   1.000000
   46       -2.643032   1.000000
   47       -2.526439   1.000000
   48       -2.465565   1.000000
   49       -2.383316   1.000000
   50       -2.230316   1.000000
   51       -2.180145   1.000000
   52       -2.103917   1.000000
   53       -2.009048   1.000000
   54       -1.886483   1.000000
   55       -1.875683   1.000000
   56       -1.836470   1.000000
   57       -1.817265   1.000000
   58       -1.794404   1.000000
   59       -1.732896   1.000000
   60       -1.654144   1.000000
   61       -1.584463   1.000000
   62       -1.446200   1.000000
   63       -1.419347   1.000000
   64       -1.391833   1.000000
   65       -1.321635   1.000000
   66       -1.239628   1.000000
   67       -1.203357   1.000000
   68       -1.143459   1.000000
   69       -1.095364   1.000000
   70       -0.938824   1.000000
   71       -0.855243   1.000000
   72       -0.760890   1.000000
   73       -0.713035   1.000000
   74       -0.680817   1.000000
   75       -0.652206   1.000000
   76       -0.428106   1.000000
   77       -0.277609   1.000000
   78       -0.224644   1.000000
   79       -0.154537   1.000000
   80        0.029637   1.000000
   81        0.047482   1.000000
   82        0.260618   1.000000
   83        0.300487   1.000000
   84        0.399774   1.000000
   85        0.526077   1.000000
   86        0.776684   1.000000
   87        0.842129   1.000000
   88        0.986099   1.000000
   89        1.155307   1.000000
   90        1.237116   1.000000
   91        1.292999   1.000000
   92        1.329230   1.000000
   93        1.356398   1.000000
   94        1.401238   1.000000
   95        1.526321   1.000000
   96        1.863202   1.000000
   97        2.009763   1.000012
   98        2.258833   1.005786