 running on   54 total cores
 distrk:  each k-point on   54 cores,    1 groups
 distr:  one band on    9 cores,    6 groups
 using from now: INCAR     
 vasp.5.4.4.18Apr17-6-g9f103f2a35 (build Dec  7 2020 12:43:57) complex           
 POSCAR found type information on POSCAR  Mo V  B  H 
 POSCAR found :  4 types and      57 ions
 scaLAPACK will be used
 LDA part: xc-table for Pade appr. of Perdew
 POSCAR, INCAR and KPOINTS ok, starting setup
 resort distribution
 resort distribution
 resort distribution
 resort distribution
 resort distribution
 resort distribution
 resort distribution
 resort distribution
 resort distribution
 resort distribution
 resort distribution
 resort distribution
 resort distribution
 resort distribution
 resort distribution
 resort distribution
 resort distribution
 resort distribution
 resort distribution
 resort distribution
 resort distribution
 resort distribution
 resort distribution
 resort distribution
 resort distribution
 resort distribution
 resort distribution
 resort distribution
 resort distribution
 resort distribution
 resort distribution
 resort distribution
 resort distribution
 resort distribution
 resort distribution
 resort distribution
 resort distribution
 resort distribution
 resort distribution
 resort distribution
 resort distribution
 resort distribution
 resort distribution
 resort distribution
 resort distribution
 resort distribution
 resort distribution
 resort distribution
 resort distribution
 resort distribution
 resort distribution
 resort distribution
 resort distribution
 resort distribution
 FFT: planning ...
 WAVECAR not read
 augmentation electrons   203.01607124419843     
 soft         electrons   0.0000000000000000     
 augmentation electrons   203.01607124419843     
 soft         electrons   0.0000000000000000     
 augmentation electrons   203.01607124419843     
 soft         electrons   0.0000000000000000     
 augmentation electrons   203.01607124419843     
 soft         electrons   0.0000000000000000     
 augmentation electrons   203.01607124419843     
 soft         electrons   0.0000000000000000     
 augmentation electrons   203.01607124419843     
 soft         electrons   0.0000000000000000     
 augmentation electrons   203.01607124419843     
 soft         electrons   0.0000000000000000     
 augmentation electrons   203.01607124419843     
 soft         electrons   0.0000000000000000     
 augmentation electrons   203.01607124419843     
 soft         electrons   0.0000000000000000     
 augmentation electrons   203.01607124419843     
 soft         electrons   0.0000000000000000     
 augmentation electrons   203.01607124419843     
 soft         electrons   0.0000000000000000     
 augmentation electrons   203.01607124419843     
 soft         electrons   0.0000000000000000     
 augmentation electrons   203.01607124419843     
 soft         electrons   0.0000000000000000     
 augmentation electrons   203.01607124419843     
 soft         electrons   0.0000000000000000     
 augmentation electrons   203.01607124419843     
 soft         electrons   0.0000000000000000     
 augmentation electrons   203.01607124419843     
 soft         electrons   0.0000000000000000     
 augmentation electrons   203.01607124419843     
 soft         electrons   0.0000000000000000     
 augmentation electrons   203.01607124419843     
 soft         electrons   0.0000000000000000     
 augmentation electrons   203.01607124419843     
 soft         electrons   0.0000000000000000     
 augmentation electrons   203.01607124419843     
 soft         electrons   0.0000000000000000     
 augmentation electrons   203.01607124419843     
 soft         electrons   0.0000000000000000     
 augmentation electrons   203.01607124419843     
 soft         electrons   0.0000000000000000     
 augmentation electrons   203.01607124419843     
 soft         electrons   0.0000000000000000     
 augmentation electrons   203.01607124419843     
 soft         electrons   0.0000000000000000     
 augmentation electrons   203.01607124419843     
 soft         electrons   0.0000000000000000     
 augmentation electrons   203.01607124419843     
 soft         electrons   0.0000000000000000     
 augmentation electrons   203.01607124419843     
 soft         electrons   0.0000000000000000     
 augmentation electrons   203.01607124419843     
 soft         electrons   0.0000000000000000     
 augmentation electrons   203.01607124419843     
 soft         electrons   0.0000000000000000     
 augmentation electrons   203.01607124419843     
 soft         electrons   0.0000000000000000     
 augmentation electrons   203.01607124419843     
 soft         electrons   0.0000000000000000     
 augmentation electrons   203.01607124419843     
 soft         electrons   0.0000000000000000     
 augmentation electrons   203.01607124419843     
 soft         electrons   0.0000000000000000     
 augmentation electrons   203.01607124419843     
 soft         electrons   0.0000000000000000     
 augmentation electrons   203.01607124419843     
 soft         electrons   0.0000000000000000     
 augmentation electrons   203.01607124419843     
 soft         electrons   0.0000000000000000     
 augmentation electrons   203.01607124419843     
 soft         electrons   0.0000000000000000     
 augmentation electrons   203.01607124419843     
 soft         electrons   0.0000000000000000     
 augmentation electrons   203.01607124419843     
 soft         electrons   0.0000000000000000     
 augmentation electrons   203.01607124419843     
 soft         electrons   0.0000000000000000     
 augmentation electrons   203.01607124419843     
 soft         electrons   0.0000000000000000     
 augmentation electrons   203.01607124419843     
 soft         electrons   0.0000000000000000     
 augmentation electrons   203.01607124419843     
 soft         electrons   0.0000000000000000     
 augmentation electrons   203.01607124419843     
 soft         electrons   0.0000000000000000     
 augmentation electrons   203.01607124419843     
 soft         electrons   0.0000000000000000     
 augmentation electrons   203.01607124419843     
 soft         electrons   0.0000000000000000     
 augmentation electrons   203.01607124419843     
 soft         electrons   0.0000000000000000     
 augmentation electrons   203.01607124419843     
 soft         electrons   0.0000000000000000     
 augmentation electrons   203.01607124419843     
 soft         electrons   0.0000000000000000     
 augmentation electrons   203.01607124419843     
 soft         electrons   0.0000000000000000     
 augmentation electrons   203.01607124419843     
 soft         electrons   0.0000000000000000     
 augmentation electrons   203.01607124419843     
 soft         electrons   0.0000000000000000     
 augmentation electrons   203.01607124419843     
 soft         electrons   0.0000000000000000     
 augmentation electrons   203.01607124419843     
 soft         electrons   0.0000000000000000     
 total        electrons   203.01607124419843     
 total        electrons   203.01607124419843     
 total        electrons   203.01607124419843     
 total        electrons   203.01607124419843     
 total        electrons   203.01607124419843     
 total        electrons   203.01607124419843     
 total        electrons   203.01607124419843     
 total        electrons   203.01607124419843     
 total        electrons   203.01607124419843     
 total        electrons   203.01607124419843     
 total        electrons   203.01607124419843     
 total        electrons   203.01607124419843     
 total        electrons   203.01607124419843     
 total        electrons   203.01607124419843     
 total        electrons   203.01607124419843     
 total        electrons   203.01607124419843     
 total        electrons   203.01607124419843     
 total        electrons   203.01607124419843     
 total        electrons   203.01607124419843     
 total        electrons   203.01607124419843     
 total        electrons   203.01607124419843     
 total        electrons   203.01607124419843     
 total        electrons   203.01607124419843     
 total        electrons   203.01607124419843     
 total        electrons   203.01607124419843     
 total        electrons   203.01607124419843     
 total        electrons   203.01607124419843     
 total        electrons   203.01607124419843     
 total        electrons   203.01607124419843     
 total        electrons   203.01607124419843     
 total        electrons   203.01607124419843     
 total        electrons   203.01607124419843     
 total        electrons   203.01607124419843     
 total        electrons   203.01607124419843     
 total        electrons   203.01607124419843     
 total        electrons   203.01607124419843     
 total        electrons   203.01607124419843     
 total        electrons   203.01607124419843     
 total        electrons   203.01607124419843     
 total        electrons   203.01607124419843     
 total        electrons   203.01607124419843     
 total        electrons   203.01607124419843     
 total        electrons   203.01607124419843     
 total        electrons   203.01607124419843     
 total        electrons   203.01607124419843     
 total        electrons   203.01607124419843     
 total        electrons   203.01607124419843     
 total        electrons   203.01607124419843     
 total        electrons   203.01607124419843     
 total        electrons   203.01607124419843     
 total        electrons   203.01607124419843     
 total        electrons   203.01607124419843     
 total        electrons   203.01607124419843     
 total        electrons   203.01607124419843     
 augmentation electrons   601.63303511203276     
 soft         electrons   0.0000000000000000     
 augmentation electrons   601.63303511203276     
 soft         electrons   0.0000000000000000     
 augmentation electrons   601.63303511203276     
 soft         electrons   0.0000000000000000     
 augmentation electrons   601.63303511203276     
 soft         electrons   0.0000000000000000     
 augmentation electrons   601.63303511203276     
 soft         electrons   0.0000000000000000     
 augmentation electrons   601.63303511203276     
 soft         electrons   0.0000000000000000     
 augmentation electrons   601.63303511203276     
 soft         electrons   0.0000000000000000     
 augmentation electrons   601.63303511203276     
 soft         electrons   0.0000000000000000     
 augmentation electrons   601.63303511203276     
 soft         electrons   0.0000000000000000     
 augmentation electrons   601.63303511203276     
 soft         electrons   0.0000000000000000     
 augmentation electrons   601.63303511203276     
 soft         electrons   0.0000000000000000     
 augmentation electrons   601.63303511203276     
 soft         electrons   0.0000000000000000     
 augmentation electrons   601.63303511203276     
 soft         electrons   0.0000000000000000     
 augmentation electrons   601.63303511203276     
 soft         electrons   0.0000000000000000     
 augmentation electrons   601.63303511203276     
 soft         electrons   0.0000000000000000     
 augmentation electrons   601.63303511203276     
 soft         electrons   0.0000000000000000     
 augmentation electrons   601.63303511203276     
 soft         electrons   0.0000000000000000     
 augmentation electrons   601.63303511203276     
 soft         electrons   0.0000000000000000     
 augmentation electrons   601.63303511203276     
 soft         electrons   0.0000000000000000     
 augmentation electrons   601.63303511203276     
 soft         electrons   0.0000000000000000     
 augmentation electrons   601.63303511203276     
 soft         electrons   0.0000000000000000     
 augmentation electrons   601.63303511203276     
 soft         electrons   0.0000000000000000     
 augmentation electrons   601.63303511203276     
 soft         electrons   0.0000000000000000     
 augmentation electrons   601.63303511203276     
 soft         electrons   0.0000000000000000     
 augmentation electrons   601.63303511203276     
 soft         electrons   0.0000000000000000     
 augmentation electrons   601.63303511203276     
 soft         electrons   0.0000000000000000     
 augmentation electrons   601.63303511203276     
 soft         electrons   0.0000000000000000     
 augmentation electrons   601.63303511203276     
 soft         electrons   0.0000000000000000     
 augmentation electrons   601.63303511203276     
 soft         electrons   0.0000000000000000     
 augmentation electrons   601.63303511203276     
 soft         electrons   0.0000000000000000     
 augmentation electrons   601.63303511203276     
 soft         electrons   0.0000000000000000     
 augmentation electrons   601.63303511203276     
 soft         electrons   0.0000000000000000     
 augmentation electrons   601.63303511203276     
 soft         electrons   0.0000000000000000     
 augmentation electrons   601.63303511203276     
 soft         electrons   0.0000000000000000     
 augmentation electrons   601.63303511203276     
 soft         electrons   0.0000000000000000     
 augmentation electrons   601.63303511203276     
 soft         electrons   0.0000000000000000     
 augmentation electrons   601.63303511203276     
 soft         electrons   0.0000000000000000     
 augmentation electrons   601.63303511203276     
 soft         electrons   0.0000000000000000     
 augmentation electrons   601.63303511203276     
 soft         electrons   0.0000000000000000     
 augmentation electrons   601.63303511203276     
 soft         electrons   0.0000000000000000     
 augmentation electrons   601.63303511203276     
 soft         electrons   0.0000000000000000     
 augmentation electrons   601.63303511203276     
 soft         electrons   0.0000000000000000     
 augmentation electrons   601.63303511203276     
 soft         electrons   0.0000000000000000     
 augmentation electrons   601.63303511203276     
 soft         electrons   0.0000000000000000     
 augmentation electrons   601.63303511203276     
 soft         electrons   0.0000000000000000     
 augmentation electrons   601.63303511203276     
 soft         electrons   0.0000000000000000     
 augmentation electrons   601.63303511203276     
 soft         electrons   0.0000000000000000     
 augmentation electrons   601.63303511203276     
 soft         electrons   0.0000000000000000     
 augmentation electrons   601.63303511203276     
 soft         electrons   0.0000000000000000     
 augmentation electrons   601.63303511203276     
 soft         electrons   0.0000000000000000     
 augmentation electrons   601.63303511203276     
 soft         electrons   0.0000000000000000     
 augmentation electrons   601.63303511203276     
 soft         electrons   0.0000000000000000     
 augmentation electrons   601.63303511203276     
 soft         electrons   0.0000000000000000     
 augmentation electrons   601.63303511203276     
 soft         electrons   0.0000000000000000     
 total        electrons   601.63303511203276     
 total        electrons   601.63303511203276     
 total        electrons   601.63303511203276     
 total        electrons   601.63303511203276     
 total        electrons   601.63303511203276     
 total        electrons   601.63303511203276     
 total        electrons   601.63303511203276     
 total        electrons   601.63303511203276     
 total        electrons   601.63303511203276     
 total        electrons   601.63303511203276     
 total        electrons   601.63303511203276     
 total        electrons   601.63303511203276     
 total        electrons   601.63303511203276     
 total        electrons   601.63303511203276     
 total        electrons   601.63303511203276     
 total        electrons   601.63303511203276     
 total        electrons   601.63303511203276     
 total        electrons   601.63303511203276     
 total        electrons   601.63303511203276     
 total        electrons   601.63303511203276     
 total        electrons   601.63303511203276     
 total        electrons   601.63303511203276     
 total        electrons   601.63303511203276     
 total        electrons   601.63303511203276     
 total        electrons   601.63303511203276     
 total        electrons   601.63303511203276     
 total        electrons   601.63303511203276     
 total        electrons   601.63303511203276     
 total        electrons   601.63303511203276     
 total        electrons   601.63303511203276     
 total        electrons   601.63303511203276     
 total        electrons   601.63303511203276     
 total        electrons   601.63303511203276     
 total        electrons   601.63303511203276     
 total        electrons   601.63303511203276     
 total        electrons   601.63303511203276     
 total        electrons   601.63303511203276     
 total        electrons   601.63303511203276     
 total        electrons   601.63303511203276     
 total        electrons   601.63303511203276     
 total        electrons   601.63303511203276     
 total        electrons   601.63303511203276     
 total        electrons   601.63303511203276     
 total        electrons   601.63303511203276     
 total        electrons   601.63303511203276     
 total        electrons   601.63303511203276     
 total        electrons   601.63303511203276     
 total        electrons   601.63303511203276     
 total        electrons   601.63303511203276     
 total        electrons   601.63303511203276     
 total        electrons   601.63303511203276     
 total        electrons   601.63303511203276     
 total        electrons   601.63303511203276     
 total        electrons   601.63303511203276     
 entering main loop
       N       E                     dE             d eps       ncg     rms          rms(c)
DAV:   1     0.179076230128E+04    0.17908E+04   -0.75637E+04 10824   0.134E+03
DAV:   2    -0.155887645263E+03   -0.19466E+04   -0.17858E+04 11448   0.348E+02
DAV:   3    -0.487213040359E+03   -0.33133E+03   -0.31680E+03 15540   0.149E+02
DAV:   4    -0.511001717626E+03   -0.23789E+02   -0.23187E+02 17196   0.435E+01
DAV:   5    -0.511948074061E+03   -0.94636E+00   -0.93003E+00 18192   0.845E+00    0.115E+02
RMM:   6    -0.494618938116E+03    0.17329E+02   -0.85633E+02 17105   0.890E+01    0.642E+01
RMM:   7    -0.548562244043E+03   -0.53943E+02   -0.33749E+02 13984   0.687E+01    0.463E+01
RMM:   8    -0.461238810914E+03    0.87323E+02   -0.92970E+01 15123   0.218E+01    0.323E+01
RMM:   9    -0.448070610841E+03    0.13168E+02   -0.30218E+01 14060   0.195E+01    0.227E+01
RMM:  10    -0.444491881825E+03    0.35787E+01   -0.20300E+01 16858   0.993E+00    0.205E+01
RMM:  11    -0.437273302747E+03    0.72186E+01   -0.50442E+00 15782   0.594E+00    0.147E+01
RMM:  12    -0.437027196384E+03    0.24611E+00   -0.11669E+00 12592   0.406E+00    0.133E+01
RMM:  13    -0.437049947268E+03   -0.22751E-01   -0.49378E-01 17085   0.953E-01    0.130E+01
RMM:  14    -0.437175002306E+03   -0.12506E+00   -0.26925E-01 13436   0.180E+00    0.121E+01
RMM:  15    -0.436781672530E+03    0.39333E+00   -0.20157E+00 12178   0.565E+00    0.843E+00
RMM:  16    -0.435797437882E+03    0.98423E+00   -0.19826E+00 11811   0.577E+00    0.365E+00
RMM:  17    -0.435745078617E+03    0.52359E-01   -0.87634E-01 16533   0.187E+00    0.237E+00
RMM:  18    -0.435732856249E+03    0.12222E-01   -0.13959E-01 16094   0.845E-01    0.222E+00
RMM:  19    -0.435740907974E+03   -0.80517E-02   -0.26630E-01 12910   0.181E+00    0.237E+00
RMM:  20    -0.435679307921E+03    0.61600E-01   -0.57746E-02 13241   0.915E-01    0.882E-01
RMM:  21    -0.435679692871E+03   -0.38495E-03   -0.57210E-02 16742   0.434E-01    0.960E-01
RMM:  22    -0.435669018943E+03    0.10674E-01   -0.13395E-02 13933   0.371E-01    0.371E-01
RMM:  23    -0.435669582880E+03   -0.56394E-03   -0.78388E-03 16948   0.128E-01    0.249E-01
RMM:  24    -0.435671753857E+03   -0.21710E-02   -0.97333E-03 12299   0.367E-01    0.392E-01
RMM:  25    -0.435671704846E+03    0.49011E-04   -0.40452E-03 16369   0.921E-02    0.313E-01
RMM:  26    -0.435671812124E+03   -0.10728E-03   -0.76844E-04 13123   0.102E-01    0.202E-01
RMM:  27    -0.435672859359E+03   -0.10472E-02   -0.15693E-03 15407   0.106E-01    0.112E-01
RMM:  28    -0.435673260771E+03   -0.40141E-03   -0.30528E-04 16621   0.294E-02    0.814E-02
RMM:  29    -0.435673501378E+03   -0.24061E-03   -0.82909E-05 15966   0.243E-02    0.675E-02
RMM:  30    -0.435673827744E+03   -0.32637E-03   -0.11086E-04 16506   0.225E-02    0.543E-02
RMM:  31    -0.435673927726E+03   -0.99982E-04   -0.76335E-05 13049   0.296E-02    0.713E-03
RMM:  32    -0.435673991722E+03   -0.63995E-04   -0.55795E-05 13944   0.104E-02    0.988E-03
RMM:  33    -0.435673999607E+03   -0.78850E-05   -0.39639E-06  9815   0.512E-03    0.806E-03
RMM:  34    -0.435674009042E+03   -0.94352E-05   -0.12078E-06  8786   0.369E-03    0.441E-03
RMM:  35    -0.435674015061E+03   -0.60195E-05   -0.11761E-06  8597   0.256E-03    0.310E-03
RMM:  36    -0.435674016132E+03   -0.10702E-05   -0.36209E-07  7778   0.233E-03    0.202E-03
RMM:  37    -0.435674017720E+03   -0.15887E-05   -0.43340E-07  7664   0.219E-03    0.770E-04
RMM:  38    -0.435674018645E+03   -0.92503E-06   -0.32730E-07  7068   0.169E-03
   1 F= -.43567402E+03 E0= -.43567647E+03  d E =0.736482E-02
 augmentation electrons   18.394547797593773     
 soft         electrons   184.66726401430384     
 augmentation electrons   18.394547797593773     
 soft         electrons   184.66726401430384     
 augmentation electrons   18.394547797593773     
 soft         electrons   184.66726401430384     
 augmentation electrons   18.394547797593773     
 soft         electrons   184.66726401430384     
 augmentation electrons   18.394547797593773     
 soft         electrons   184.66726401430384     
 augmentation electrons   18.394547797593773     
 soft         electrons   184.66726401430384     
 augmentation electrons   18.394547797593773     
 soft         electrons   184.66726401430384     
 augmentation electrons   18.394547797593773     
 soft         electrons   184.66726401430384     
 augmentation electrons   18.394547797593773     
 soft         electrons   184.66726401430384     
 augmentation electrons   18.394547797593773     
 soft         electrons   184.66726401430384     
 augmentation electrons   18.394547797593773     
 soft         electrons   184.66726401430384     
 augmentation electrons   18.394547797593773     
 soft         electrons   184.66726401430384     
 augmentation electrons   18.394547797593773     
 soft         electrons   184.66726401430384     
 augmentation electrons   18.394547797593773     
 soft         electrons   184.66726401430384     
 augmentation electrons   18.394547797593773     
 soft         electrons   184.66726401430384     
 augmentation electrons   18.394547797593773     
 soft         electrons   184.66726401430384     
 augmentation electrons   18.394547797593773     
 soft         electrons   184.66726401430384     
 augmentation electrons   18.394547797593773     
 soft         electrons   184.66726401430384     
 augmentation electrons   18.394547797593773     
 soft         electrons   184.66726401430384     
 augmentation electrons   18.394547797593773     
 soft         electrons   184.66726401430384     
 augmentation electrons   18.394547797593773     
 soft         electrons   184.66726401430384     
 augmentation electrons   18.394547797593773     
 soft         electrons   184.66726401430384     
 augmentation electrons   18.394547797593773     
 soft         electrons   184.66726401430384     
 augmentation electrons   18.394547797593773     
 soft         electrons   184.66726401430384     
 augmentation electrons   18.394547797593773     
 soft         electrons   184.66726401430384     
 augmentation electrons   18.394547797593773     
 soft         electrons   184.66726401430384     
 augmentation electrons   18.394547797593773     
 soft         electrons   184.66726401430384     
 augmentation electrons   18.394547797593773     
 soft         electrons   184.66726401430384     
 augmentation electrons   18.394547797593773     
 soft         electrons   184.66726401430384     
 augmentation electrons   18.394547797593773     
 soft         electrons   184.66726401430384     
 augmentation electrons   18.394547797593773     
 soft         electrons   184.66726401430384     
 augmentation electrons   18.394547797593773     
 augmentation electrons   18.394547797593773     
 soft         electrons   184.66726401430384     
 augmentation electrons   18.394547797593773     
 soft         electrons   184.66726401430384     
 augmentation electrons   18.394547797593773     
 soft         electrons   184.66726401430384     
 augmentation electrons   18.394547797593773     
 soft         electrons   184.66726401430384     
 augmentation electrons   18.394547797593773     
 soft         electrons   184.66726401430384     
 augmentation electrons   18.394547797593773     
 soft         electrons   184.66726401430384     
 augmentation electrons   18.394547797593773     
 soft         electrons   184.66726401430384     
 augmentation electrons   18.394547797593773     
 soft         electrons   184.66726401430384     
 augmentation electrons   18.394547797593773     
 soft         electrons   184.66726401430384     
 augmentation electrons   18.394547797593773     
 soft         electrons   184.66726401430384     
 augmentation electrons   18.394547797593773     
 soft         electrons   184.66726401430384     
 augmentation electrons   18.394547797593773     
 soft         electrons   184.66726401430384     
 augmentation electrons   18.394547797593773     
 soft         electrons   184.66726401430384     
 augmentation electrons   18.394547797593773     
 soft         electrons   184.66726401430384     
 augmentation electrons   18.394547797593773     
 soft         electrons   184.66726401430384     
 augmentation electrons   18.394547797593773     
 soft         electrons   184.66726401430384     
 augmentation electrons   18.394547797593773     
 soft         electrons   184.66726401430384     
 augmentation electrons   18.394547797593773     
 soft         electrons   184.66726401430384     
 augmentation electrons   18.394547797593773     
 soft         electrons   184.66726401430384     
 augmentation electrons   18.394547797593773     
 soft         electrons   184.66726401430384     
 augmentation electrons   18.394547797593773     
 soft         electrons   184.66726401430384     
 augmentation electrons   18.394547797593773     
 soft         electrons   184.66726401430384     
 soft         electrons   184.66726401430384     
 total        electrons   203.06181181189760     
 total        electrons   203.06181181189760     
 total        electrons   203.06181181189760     
 total        electrons   203.06181181189760     
 total        electrons   203.06181181189760     
 total        electrons   203.06181181189760     
 total        electrons   203.06181181189760     
 total        electrons   203.06181181189760     
 total        electrons   203.06181181189760     
 total        electrons   203.06181181189760     
 total        electrons   203.06181181189760     
 total        electrons   203.06181181189760     
 total        electrons   203.06181181189760     
 total        electrons   203.06181181189760     
 total        electrons   203.06181181189760     
 total        electrons   203.06181181189760     
 total        electrons   203.06181181189760     
 total        electrons   203.06181181189760     
 total        electrons   203.06181181189760     
 total        electrons   203.06181181189760     
 total        electrons   203.06181181189760     
 total        electrons   203.06181181189760     
 total        electrons   203.06181181189760     
 total        electrons   203.06181181189760     
 total        electrons   203.06181181189760     
 total        electrons   203.06181181189760     
 total        electrons   203.06181181189760     
 total        electrons   203.06181181189760     
 total        electrons   203.06181181189760     
 total        electrons   203.06181181189760     
 total        electrons   203.06181181189760     
 total        electrons   203.06181181189760     
 total        electrons   203.06181181189760     
 total        electrons   203.06181181189760     
 total        electrons   203.06181181189760     
 total        electrons   203.06181181189760     
 total        electrons   203.06181181189760     
 total        electrons   203.06181181189760     
 total        electrons   203.06181181189760     
 total        electrons   203.06181181189760     
 total        electrons   203.06181181189760     
 total        electrons   203.06181181189760     
 total        electrons   203.06181181189760     
 total        electrons   203.06181181189760     
 total        electrons   203.06181181189760     
 total        electrons   203.06181181189760     
 total        electrons   203.06181181189760     
 total        electrons   203.06181181189760     
 total        electrons   203.06181181189760     
 total        electrons   203.06181181189760     
 total        electrons   203.06181181189760     
 total        electrons   203.06181181189760     
 total        electrons   203.06181181189760     
 total        electrons   203.06181181189760     
Note: The following floating-point exceptions are signalling: IEEE_OVERFLOW_FLAG
Note: The following floating-point exceptions are signalling: IEEE_OVERFLOW_FLAG
Note: The following floating-point exceptions are signalling: IEEE_OVERFLOW_FLAG
Note: The following floating-point exceptions are signalling: IEEE_OVERFLOW_FLAG
Note: The following floating-point exceptions are signalling: IEEE_OVERFLOW_FLAG
Note: The following floating-point exceptions are signalling: IEEE_OVERFLOW_FLAG
Note: The following floating-point exceptions are signalling: IEEE_OVERFLOW_FLAG
Note: The following floating-point exceptions are signalling: IEEE_OVERFLOW_FLAG
Note: The following floating-point exceptions are signalling: IEEE_OVERFLOW_FLAG
Note: The following floating-point exceptions are signalling: IEEE_OVERFLOW_FLAG
Note: The following floating-point exceptions are signalling: IEEE_OVERFLOW_FLAG
Note: The following floating-point exceptions are signalling: IEEE_OVERFLOW_FLAG
Note: The following floating-point exceptions are signalling: IEEE_OVERFLOW_FLAG
Note: The following floating-point exceptions are signalling: IEEE_OVERFLOW_FLAG
Note: The following floating-point exceptions are signalling: IEEE_OVERFLOW_FLAG
Note: The following floating-point exceptions are signalling: IEEE_OVERFLOW_FLAG
Note: The following floating-point exceptions are signalling: IEEE_OVERFLOW_FLAG
Note: The following floating-point exceptions are signalling: IEEE_OVERFLOW_FLAG
Note: The following floating-point exceptions are signalling: IEEE_INVALID_FLAG IEEE_OVERFLOW_FLAG
Note: The following floating-point exceptions are signalling: IEEE_OVERFLOW_FLAG
Note: The following floating-point exceptions are signalling: IEEE_OVERFLOW_FLAG
Note: The following floating-point exceptions are signalling: IEEE_OVERFLOW_FLAG
Note: The following floating-point exceptions are signalling: IEEE_OVERFLOW_FLAG
Note: The following floating-point exceptions are signalling: IEEE_OVERFLOW_FLAG
Note: The following floating-point exceptions are signalling: IEEE_OVERFLOW_FLAG
Note: The following floating-point exceptions are signalling: IEEE_OVERFLOW_FLAG
Note: The following floating-point exceptions are signalling: IEEE_OVERFLOW_FLAG
Note: The following floating-point exceptions are signalling: IEEE_OVERFLOW_FLAG
Note: The following floating-point exceptions are signalling: IEEE_OVERFLOW_FLAG
Note: The following floating-point exceptions are signalling: IEEE_OVERFLOW_FLAG
Note: The following floating-point exceptions are signalling: IEEE_OVERFLOW_FLAG
Note: The following floating-point exceptions are signalling: IEEE_OVERFLOW_FLAG
Note: The following floating-point exceptions are signalling: IEEE_OVERFLOW_FLAG
Note: The following floating-point exceptions are signalling: IEEE_OVERFLOW_FLAG
Note: The following floating-point exceptions are signalling: IEEE_OVERFLOW_FLAG
Note: The following floating-point exceptions are signalling: IEEE_OVERFLOW_FLAG
Note: The following floating-point exceptions are signalling: IEEE_OVERFLOW_FLAG
Note: The following floating-point exceptions are signalling: IEEE_OVERFLOW_FLAG
Note: The following floating-point exceptions are signalling: IEEE_OVERFLOW_FLAG
Note: The following floating-point exceptions are signalling: IEEE_OVERFLOW_FLAG
Note: The following floating-point exceptions are signalling: IEEE_OVERFLOW_FLAG
Note: The following floating-point exceptions are signalling: IEEE_OVERFLOW_FLAG
Note: The following floating-point exceptions are signalling: IEEE_OVERFLOW_FLAG
Note: The following floating-point exceptions are signalling: IEEE_OVERFLOW_FLAG
Note: The following floating-point exceptions are signalling: IEEE_OVERFLOW_FLAG
Note: The following floating-point exceptions are signalling: IEEE_OVERFLOW_FLAG
Note: The following floating-point exceptions are signalling: IEEE_OVERFLOW_FLAG
Note: The following floating-point exceptions are signalling: IEEE_OVERFLOW_FLAG
Note: The following floating-point exceptions are signalling: IEEE_OVERFLOW_FLAG
Note: The following floating-point exceptions are signalling: IEEE_OVERFLOW_FLAG
Note: The following floating-point exceptions are signalling: IEEE_OVERFLOW_FLAG
Note: The following floating-point exceptions are signalling: IEEE_OVERFLOW_FLAG
Note: The following floating-point exceptions are signalling: IEEE_OVERFLOW_FLAG
Note: The following floating-point exceptions are signalling: IEEE_OVERFLOW_FLAG
