    3    3   60    1
  0.7818830E+01  0.2980000E-09  0.2980000E-09  0.3050000E-09  0.5000000E-15
   1.0000000000000000E-004
  CAR 
 Name                                    
     11    216     10

  0.3742002E-15  0.3742002E-15  0.3742002E-15  0.2962963E-03
    1       -5.650171   1.000000
    2        5.362047   1.000000
    3        5.362048   1.000000
    4        6.366171   1.000000
    5        6.577006   1.000000
    6        9.477429  -0.000268
    7        9.477429  -0.000268
    8       12.116719   0.000000
    9       12.116723   0.000000
   10       14.129201   0.000000

  0.6666667E-01  0.3777220E-15  0.3742002E-15  0.1777778E-02
    1       -5.563924   1.000000
    2        5.131155   1.000000
    3        5.354074   1.000000
    4        6.390560   1.000000
    5        6.454973   1.000000
    6        9.457475  -0.000717
    7        9.689485  -0.000000
    8       11.695912  -0.000000
    9       11.731541  -0.000000
   10       14.577574   0.000000

  0.1333333E+00  0.3824091E-15  0.3742002E-15  0.1777778E-02
    1       -5.307590   1.000000
    2        4.492999   1.000000
    3        5.324329   1.000000
    4        6.178448   1.000000
    5        6.451968   1.000000
    6        9.401507  -0.006898
    7       10.223568  -0.000000
    8       11.009238  -0.000000
    9       11.136932  -0.000000
   10       15.253352   0.000000

  0.2000000E+00  0.3806431E-15  0.3742002E-15  0.1777778E-02
    1       -4.888191   1.000000
    2        3.579908   1.000000
    3        5.262056   1.000000
    4        5.877928   1.000000
    5        6.489697   1.000000
    6        9.320347  -0.035447
    7       10.503956  -0.000000
    8       10.688710  -0.000000
    9       10.908075  -0.000000
   10       15.758134   0.000000

  0.2666667E+00  0.3859547E-15  0.3742002E-15  0.1777778E-02
    1       -4.316627   1.000000
    2        2.519064   1.000000
    3        5.165992   1.000000
    4        5.621249   1.000000
    5        6.428665   1.000000
    6        9.228926   0.244654
    7       10.331729  -0.000000
    8       10.435631  -0.000000
    9       11.594712  -0.000000
   10       16.136832   0.000000

  0.3333333E+00  0.3635107E-15  0.3742002E-15  0.1777778E-02
    1       -3.606747   1.000000
    2        1.398679   1.000000
    3        5.053614   1.000000
    4        5.431601   1.000000
    5        6.269702   1.000000
    6        9.143217   0.890290
    7       10.342131  -0.000000
    8       10.477357  -0.000000
    9       12.134669   0.000000
   10       15.726015   0.000000

  0.4000000E+00  0.3993534E-15  0.3742002E-15  0.1777778E-02
    1       -2.774494   1.000000
    2        0.275916   1.000000
    3        4.954903   1.000000
    4        5.310991   1.000000
    5        6.095509   1.000000
    6        9.077353   1.035332
    7       10.339551  -0.000000
    8       10.779427  -0.000000
    9       12.418160   0.000000
   10       15.555751   0.000000

  0.4666667E+00  0.3562316E-15  0.3742002E-15  0.1777778E-02
    1       -1.838429   1.000000
    2       -0.809778   1.000000
    3        4.897687   1.000000
    4        5.253395   1.000000
    5        5.987940   1.000000
    6        9.041703   1.025230
    7       10.359261  -0.000000
    8       11.017604  -0.000000
    9       12.496521   0.000000
   10       15.578562   0.000000

  0.6666667E-01  0.6666667E-01  0.3742002E-15  0.1777778E-02
    1       -5.392612   1.000000
    2        4.724136   1.000000
    3        5.292141   1.000000
    4        6.260223   1.000000
    5        6.449691   1.000000
    6        9.409195  -0.005291
    7       10.068765  -0.000000
    8       11.211579  -0.000000
    9       11.260041  -0.000000
   10       15.230837   0.000000

  0.1333333E+00  0.6666667E-01  0.3742002E-15  0.3555556E-02
    1       -5.054693   1.000000
    2        3.997780   1.000000
    3        5.131823   1.000000
    4        5.987402   1.000000
    5        6.570972   1.000000
    6        9.311964  -0.034490
    7       10.635256  -0.000000
    8       10.694589  -0.000000
    9       10.830830  -0.000000
   10       15.827616   0.000000

  0.2000000E+00  0.6666667E-01  0.3742002E-15  0.3555556E-02
    1       -4.559100   1.000000
    2        3.049220   1.000000
    3        4.910494   1.000000
    4        5.730381   1.000000
    5        6.683391   1.000000
    6        9.183025   0.617200
    7       10.226840  -0.000000
    8       10.609060  -0.000000
    9       11.413943  -0.000000
   10       16.267811   0.000000

  0.2666667E+00  0.6666667E-01  0.3742002E-15  0.3555556E-02
    1       -3.918123   1.000000
    2        1.981900   1.000000
    3        4.671361   1.000000
    4        5.530240   1.000000
    5        6.709695   1.000000
    6        9.042762   1.025718
    7       10.080570  -0.000000
    8       10.594239  -0.000000
    9       12.083109   0.000000
   10       15.885734   0.000000

  0.3333333E+00  0.6666667E-01  0.3742002E-15  0.3555556E-02
    1       -3.146677   1.000000
    2        0.872377   1.000000
    3        4.461079   1.000000
    4        5.396274   1.000000
    5        6.648481   1.000000
    6        8.914842   1.000244
    7       10.138732  -0.000000
    8       10.728125  -0.000000
    9       12.551464   0.000000
   10       15.566478   0.000000

  0.4000000E+00  0.6666667E-01  0.3742002E-15  0.3555556E-02
    1       -2.261756   1.000000
    2       -0.226944   1.000000
    3        4.318780   1.000000
    4        5.322580   1.000000
    5        6.568900   1.000000
    6        8.824183   1.000001
    7       10.248663  -0.000000
    8       10.909497  -0.000000
    9       12.755551   0.000000
   10       15.529503   0.000000

  0.4666667E+00  0.6666667E-01  0.3742002E-15  0.1777778E-02
    1       -1.316987   1.000000
    2       -1.244941   1.000000
    3        4.268658   1.000000
    4        5.299478   1.000000
    5        6.534884   1.000000
    6        8.791240   1.000000
    7       10.296569  -0.000000
    8       10.995830  -0.000000
    9       12.797471   0.000000
   10       15.560599   0.000000

  0.1333333E+00  0.1333333E+00  0.3742002E-15  0.1777778E-02
    1       -4.640468   1.000000
    2        3.333687   1.000000
    3        4.657709   1.000000
    4        5.780372   1.000000
    5        6.841159   1.000000
    6        9.124158   0.969485
    7       10.186206  -0.000000
    8       10.678815  -0.000000
    9       11.385170  -0.000000
   10       16.611600   0.000000

  0.2000000E+00  0.1333333E+00  0.3742002E-15  0.3555556E-02
    1       -4.075138   1.000000
    2        2.490119   1.000000
    3        4.135629   1.000000
    4        5.616521   1.000000
    5        7.133719   1.000000
    6        8.875603   1.000027
    7        9.845194  -0.000000
    8       10.695592  -0.000000
    9       12.154647   0.000000
   10       15.991166   0.000000

  0.2666667E+00  0.1333333E+00  0.3742002E-15  0.3555556E-02
    1       -3.372103   1.000000
    2        1.499485   1.000000
    3        3.714805   1.000000
    4        5.515793   1.000000
    5        7.325687   1.000000
    6        8.611412   1.000000
    7        9.747961  -0.000000
    8       10.782753  -0.000000
    9       12.850222   0.000000
   10       15.569305   0.000000

  0.3333333E+00  0.1333333E+00  0.3742002E-15  0.3555556E-02
    1       -2.547441   1.000000
    2        0.441941   1.000000
    3        3.431922   1.000000
    4        5.470640   1.000000
    5        7.378733   1.000000
    6        8.385142   1.000000
    7        9.890789  -0.000000
    8       10.841805  -0.000000
    9       13.302000   0.000000
   10       15.435253   0.000000

  0.4000000E+00  0.1333333E+00  0.3742002E-15  0.3555556E-02
    1       -1.620114   1.000000
    2       -0.613217   1.000000
    3        3.290331   1.000000
    4        5.458331   1.000000
    5        7.368650   1.000000
    6        8.252695   1.000000
    7       10.086439  -0.000000
    8       10.834041  -0.000000
    9       13.469186   0.000000
   10       15.490605   0.000000

  0.2000000E+00  0.2000000E+00  0.3742002E-15  0.1777778E-02
    1       -3.447571   1.000000
    2        1.867407   1.000000
    3        3.297593   1.000000
    4        5.574276   1.000000
    5        7.630917   1.000000
    6        8.471200   1.000000
    7        9.536765  -0.000009
    8       10.808593  -0.000000
    9       12.989207   0.000000
   10       15.568552   0.000000

  0.2666667E+00  0.2000000E+00  0.3742002E-15  0.3555556E-02
    1       -2.691157   1.000000
    2        1.075189   1.000000
    3        2.670488   1.000000
    4        5.606082   1.000000
    5        8.010934   1.000000
    6        8.056811   1.000000
    7        9.457679  -0.000710
    8       10.827726  -0.000000
    9       13.739191   0.000000
   10       15.325842   0.000000

  0.3333333E+00  0.2000000E+00  0.3742002E-15  0.3555556E-02
    1       -1.825340   1.000000
    2        0.123163   1.000000
    3        2.336892   1.000000
    4        5.676745   1.000000
    5        7.730932   1.000000
    6        8.153773   1.000000
    7        9.679890  -0.000000
    8       10.696448  -0.000000
    9       14.172549   0.000000
   10       15.339717   0.000000

  0.4000000E+00  0.2000000E+00  0.3742002E-15  0.1777778E-02
    1       -0.939498   1.000000
    2       -0.804359   1.000000
    3        2.235437   1.000000
    4        5.715540   1.000000
    5        7.602795   1.000000
    6        8.170594   1.000000
    7        9.888720  -0.000000
    8       10.554978  -0.000000
    9       14.272467   0.000000
   10       15.424771   0.000000

  0.2666667E+00  0.2666667E+00  0.3742002E-15  0.1777778E-02
    1       -1.894116   1.000000
    2        0.619803   1.000000
    3        1.764512   1.000000
    4        5.798095   1.000000
    5        7.498473   1.000000
    6        8.645937   1.000000
    7        9.303285  -0.030463
    8       10.652658  -0.000000
    9       14.546614   0.000000
   10       15.189421   0.000000

  0.3333333E+00  0.2666667E+00  0.3742002E-15  0.3555556E-02
    1       -1.018914   1.000000
    2       -0.085322   1.000000
    3        1.302632   1.000000
    4        6.020289   1.000000
    5        7.077244   1.000000
    6        8.906676   1.000159
    7        9.539802  -0.000007
    8       10.303366  -0.000000
    9       14.912173   0.000000
   10       15.281093   0.000000

  0.3333333E+00  0.3333333E+00  0.3742002E-15  0.5925926E-03
    1       -0.320538   1.000000
    2       -0.320536   1.000000
    3        0.690959   1.000000
    4        6.494011   1.000000
    5        6.494012   1.000000
    6        9.461267  -0.000599
    7        9.461267  -0.000599
    8        9.892457  -0.000000
    9       15.239109   0.000000
   10       15.239110   0.000000

  0.3742002E-15  0.3742002E-15  0.6666667E-01  0.5925926E-03
    1       -5.585267   1.000000
    2        5.415210   1.000000
    3        5.415212   1.000000
    4        5.554767   1.000000
    5        7.288655   1.000000
    6        9.327595  -0.034555
    7        9.327596  -0.034555
    8       12.008144   0.000000
    9       12.008145   0.000000
   10       14.363303   0.000000

  0.6666667E-01  0.3777220E-15  0.6666667E-01  0.3555556E-02
    1       -5.499704   1.000000
    2        5.178868   1.000000
    3        5.401035   1.000000
    4        5.553686   1.000000
    5        7.167776   1.000000
    6        9.302024  -0.029568
    7        9.551495  -0.000003
    8       11.677504  -0.000000
    9       11.714992  -0.000000
   10       14.748607   0.000000

  0.1333333E+00  0.3824091E-15  0.6666667E-01  0.3555556E-02
    1       -5.245457   1.000000
    2        4.528237   1.000000
    3        5.352708   1.000000
    4        5.535416   1.000000
    5        6.945130   1.000000
    6        9.240764   0.166201
    7       10.038440  -0.000000
    8       11.140591  -0.000000
    9       11.224915  -0.000000
   10       15.307647   0.000000

  0.2000000E+00  0.3806431E-15  0.6666667E-01  0.3555556E-02
    1       -4.829571   1.000000
    2        3.602347   1.000000
    3        5.260946   1.000000
    4        5.477836   1.000000
    5        6.740852   1.000000
    6        9.182077   0.624943
    7       10.304365  -0.000000
    8       10.830805  -0.000000
    9       11.087410  -0.000000
   10       15.739433   0.000000

  0.2666667E+00  0.3859547E-15  0.6666667E-01  0.3555556E-02
    1       -4.262935   1.000000
    2        2.533875   1.000000
    3        5.130485   1.000000
    4        5.391843   1.000000
    5        6.533554   1.000000
    6        9.158249   0.802395
    7       10.275084  -0.000000
    8       10.573446  -0.000000
    9       11.609663  -0.000000
   10       15.832493   0.000000

  0.3333333E+00  0.3635107E-15  0.6666667E-01  0.3555556E-02
    1       -3.559286   1.000000
    2        1.412019   1.000000
    3        4.987051   1.000000
    4        5.309978   1.000000
    5        6.305314   1.000000
    6        9.167476   0.738369
    7       10.427133  -0.000000
    8       10.434313  -0.000000
    9       12.095198   0.000000
   10       15.447953   0.000000

  0.4000000E+00  0.3993534E-15  0.6666667E-01  0.3555556E-02
    1       -2.734193   1.000000
    2        0.292376   1.000000
    3        4.866264   1.000000
    4        5.253384   1.000000
    5        6.102801   1.000000
    6        9.185199   0.599304
    7       10.381227  -0.000000
    8       10.697233  -0.000000
    9       12.384548   0.000000
   10       15.164643   0.000000

  0.4666667E+00  0.3562316E-15  0.6666667E-01  0.3555556E-02
    1       -1.804659   1.000000
    2       -0.788403   1.000000
    3        4.797907   1.000000
    4        5.226341   1.000000
    5        5.985048   1.000000
    6        9.195097   0.516310
    7       10.371760  -0.000000
    8       10.898594  -0.000000
    9       12.505770   0.000000
   10       15.026572   0.000000

  0.6666667E-01  0.6666667E-01  0.6666667E-01  0.3555556E-02
    1       -5.329793   1.000000
    2        4.764137   1.000000
    3        5.325516   1.000000
    4        5.545703   1.000000
    5        7.023677   1.000000
    6        9.231720   0.225059
    7        9.926933  -0.000000
    8       11.268839  -0.000000
    9       11.345773  -0.000000
   10       15.300825   0.000000

  0.1333333E+00  0.6666667E-01  0.6666667E-01  0.7111111E-02
    1       -4.994679   1.000000
    2        4.026798   1.000000
    3        5.141586   1.000000
    4        5.506842   1.000000
    5        6.917675   1.000000
    6        9.106461   1.012362
    7       10.389117  -0.000000
    8       10.829857  -0.000000
    9       11.077958  -0.000000
   10       15.850237   0.000000

  0.2000000E+00  0.6666667E-01  0.6666667E-01  0.7111111E-02
    1       -4.503329   1.000000
    2        3.067900   1.000000
    3        4.894865   1.000000
    4        5.436700   1.000000
    5        6.860259   1.000000
    6        8.996659   1.007901
    7       10.336328  -0.000000
    8       10.637365  -0.000000
    9       11.447461  -0.000000
   10       16.073421   0.000000

  0.2666667E+00  0.6666667E-01  0.6666667E-01  0.7111111E-02
    1       -3.868008   1.000000
    2        1.995500   1.000000
    3        4.638179   1.000000
    4        5.362832   1.000000
    5        6.763479   1.000000
    6        8.957443   1.001821
    7       10.231730  -0.000000
    8       10.589979  -0.000000
    9       12.034690   0.000000
   10       15.655720   0.000000

  0.3333333E+00  0.6666667E-01  0.6666667E-01  0.7111111E-02
    1       -3.103431   1.000000
    2        0.886724   1.000000
    3        4.419199   1.000000
    4        5.308827   1.000000
    5        6.617049   1.000000
    6        8.969360   1.002961
    7       10.236047  -0.000000
    8       10.689668  -0.000000
    9       12.477003   0.000000
   10       15.282107   0.000000

  0.4000000E+00  0.6666667E-01  0.6666667E-01  0.7111111E-02
    1       -2.226060   1.000000
    2       -0.207912   1.000000
    3        4.273502   1.000000
    4        5.280782   1.000000
    5        6.488353   1.000000
    6        8.979256   1.004320
    7       10.285045  -0.000000
    8       10.845145  -0.000000
    9       12.708502   0.000000
   10       15.091550   0.000000

  0.4666667E+00  0.6666667E-01  0.6666667E-01  0.3555556E-02
    1       -1.254735   1.000000
    2       -1.253253   1.000000
    3        4.222582   1.000000
    4        5.272907   1.000000
    5        6.438301   1.000000
    6        8.979935   1.004429
    7       10.311086  -0.000000
    8       10.918393  -0.000000
    9       12.776275   0.000000
   10       15.031230   0.000000

  0.1333333E+00  0.1333333E+00  0.6666667E-01  0.3555556E-02
    1       -4.584020   1.000000
    2        3.357306   1.000000
    3        4.644432   1.000000
    4        5.457245   1.000000
    5        7.084615   1.000000
    6        8.840603   1.000003
    7       10.428778  -0.000000
    8       10.620854  -0.000000
    9       11.417954  -0.000000
   10       16.428540   0.000000

  0.2000000E+00  0.1333333E+00  0.6666667E-01  0.7111111E-02
    1       -4.023735   1.000000
    2        2.506863   1.000000
    3        4.114199   1.000000
    4        5.411572   1.000000
    5        7.284495   1.000000
    6        8.595830   1.000000
    7       10.132900  -0.000000
    8       10.687102  -0.000000
    9       12.085098   0.000000
   10       15.851429   0.000000

  0.2666667E+00  0.1333333E+00  0.6666667E-01  0.7111111E-02
    1       -3.327174   1.000000
    2        1.512591   1.000000
    3        3.696839   1.000000
    4        5.392100   1.000000
    5        7.314624   1.000000
    6        8.524971   1.000000
    7        9.980203  -0.000000
    8       10.769550  -0.000000
    9       12.727842   0.000000
   10       15.404649   0.000000

  0.3333333E+00  0.1333333E+00  0.6666667E-01  0.7111111E-02
    1       -2.510279   1.000000
    2        0.457461   1.000000
    3        3.418703   1.000000
    4        5.400900   1.000000
    5        7.184471   1.000000
    6        8.571581   1.000000
    7       10.008413  -0.000000
    8       10.822265  -0.000000
    9       13.180629   0.000000
   10       15.163066   0.000000

  0.4000000E+00  0.1333333E+00  0.6666667E-01  0.7111111E-02
    1       -1.592159   1.000000
    2       -0.590459   1.000000
    3        3.279794   1.000000
    4        5.417775   1.000000
    5        7.070841   1.000000
    6        8.593942   1.000000
    7       10.127957  -0.000000
    8       10.817022  -0.000000
    9       13.387598   0.000000
   10       15.084140   0.000000

  0.2000000E+00  0.2000000E+00  0.6666667E-01  0.3555556E-02
    1       -3.402102   1.000000
    2        1.881088   1.000000
    3        3.284541   1.000000
    4        5.432126   1.000000
    5        7.780300   1.000000
    6        8.144786   1.000000
    7        9.863219  -0.000000
    8       10.802067  -0.000000
    9       12.845977   0.000000
   10       15.463035   0.000000

  0.2666667E+00  0.2000000E+00  0.6666667E-01  0.7111111E-02
    1       -2.653250   1.000000
    2        1.086305   1.000000
    3        2.671592   1.000000
    4        5.507288   1.000000
    5        7.656761   1.000000
    6        8.289057   1.000000
    7        9.714647  -0.000000
    8       10.821465  -0.000000
    9       13.552873   0.000000
   10       15.196638   0.000000

  0.3333333E+00  0.2000000E+00  0.6666667E-01  0.7111111E-02
    1       -1.796940   1.000000
    2        0.139080   1.000000
    3        2.346497   1.000000
    4        5.608831   1.000000
    5        7.322404   1.000000
    6        8.550123   1.000000
    7        9.800408  -0.000000
    8       10.700865  -0.000000
    9       14.022432   0.000000
   10       15.100075   0.000000

  0.4000000E+00  0.2000000E+00  0.6666667E-01  0.3555556E-02
    1       -0.944786   1.000000
    2       -0.755704   1.000000
    3        2.247390   1.000000
    4        5.661270   1.000000
    5        7.188453   1.000000
    6        8.611436   1.000000
    7        9.945477  -0.000000
    8       10.575413  -0.000000
    9       14.166709   0.000000
   10       15.103882   0.000000

  0.2666667E+00  0.2666667E+00  0.6666667E-01  0.3555556E-02
    1       -1.865481   1.000000
    2        0.626166   1.000000
    3        1.787286   1.000000
    4        5.710340   1.000000
    5        7.274876   1.000000
    6        8.758746   1.000000
    7        9.544727  -0.000005
    8       10.659985  -0.000000
    9       14.318775   0.000000
   10       15.074238   0.000000

  0.3333333E+00  0.2666667E+00  0.6666667E-01  0.7111111E-02
    1       -1.004152   1.000000
    2       -0.072434   1.000000
    3        1.336692   1.000000
    4        5.938046   1.000000
    5        6.886684   1.000000
    6        9.090421   1.030692
    7        9.658561  -0.000000
    8       10.334189  -0.000000
    9       14.754008   0.000000
   10       15.074909   0.000000

  0.3333333E+00  0.3333333E+00  0.6666667E-01  0.1185185E-02
    1       -0.320568   1.000000
    2       -0.320567   1.000000
    3        0.755248   1.000000
    4        6.377043   1.000000
    5        6.377044   1.000000
    6        9.594344  -0.000000
    7        9.594344  -0.000000
    8        9.926232  -0.000000
    9       15.064490   0.000000
   10       15.064491   0.000000

  0.3742002E-15  0.3742002E-15  0.1333333E+00  0.5925926E-03
    1       -5.393663   1.000000
    2        4.569600   1.000000
    3        5.573943   1.000000
    4        5.573945   1.000000
    5        8.000443   1.000000
    6        8.960325   1.002055
    7        8.960326   1.002055
    8       11.695424  -0.000000
    9       11.695425  -0.000000
   10       14.988051   0.000000

  0.6666667E-01  0.3777220E-15  0.1333333E+00  0.3555556E-02
    1       -5.310240   1.000000
    2        4.594559   1.000000
    3        5.319695   1.000000
    4        5.539332   1.000000
    5        7.754862   1.000000
    6        8.934648   1.000654
    7        9.268294   0.035774
    8       11.526532  -0.000000
    9       11.577937  -0.000000
   10       15.222622   0.000000

  0.1333333E+00  0.3824091E-15  0.1333333E+00  0.3555556E-02
    1       -5.062421   1.000000
    2        4.586631   1.000000
    3        4.707374   1.000000
    4        5.431389   1.000000
    5        7.383486   1.000000
    6        8.897547   1.000096
    7        9.745694  -0.000000
    8       11.260643  -0.000000
    9       11.335597  -0.000000
   10       15.502837   0.000000

  0.2000000E+00  0.3806431E-15  0.1333333E+00  0.3555556E-02
    1       -4.657399   1.000000
    2        3.658675   1.000000
    3        4.775081   1.000000
    4        5.251883   1.000000
    5        7.034779   1.000000
    6        8.923118   1.000373
    7       10.011467  -0.000000
    8       11.089819  -0.000000
    9       11.311873  -0.000000
   10       15.638437   0.000000

  0.2666667E+00  0.3859547E-15  0.1333333E+00  0.3555556E-02
    1       -4.106068   1.000000
    2        2.573943   1.000000
    3        4.886672   1.000000
    4        5.028622   1.000000
    5        6.691191   1.000000
    6        9.045634   1.027027
    7       10.109987  -0.000000
    8       10.871430  -0.000000
    9       11.686871  -0.000000
   10       15.353367   0.000000

  0.3333333E+00  0.3635107E-15  0.1333333E+00  0.3555556E-02
    1       -3.421926   1.000000
    2        1.452144   1.000000
    3        4.808919   1.000000
    4        4.996416   1.000000
    5        6.365498   1.000000
    6        9.241578   0.161266
    7       10.271581  -0.000000
    8       10.680734  -0.000000
    9       12.076502   0.000000
   10       14.907302   0.000000

  0.4000000E+00  0.3993534E-15  0.1333333E+00  0.3555556E-02
    1       -2.620161   1.000000
    2        0.345345   1.000000
    3        4.637456   1.000000
    4        5.090592   1.000000
    5        6.103332   1.000000
    6        9.453178  -0.000876
    7       10.479256  -0.000000
    8       10.519846  -0.000000
    9       12.362861   0.000000
   10       14.529061   0.000000

  0.4666667E+00  0.3562316E-15  0.1333333E+00  0.3555556E-02
    1       -1.719899   1.000000
    2       -0.710582   1.000000
    3        4.544500   1.000000
    4        5.149761   1.000000
    5        5.953714   1.000000
    6        9.602364  -0.000000
    7       10.412510  -0.000000
    8       10.616134  -0.000000
    9       12.544457   0.000000
   10       14.280663   0.000000

  0.6666667E-01  0.6666667E-01  0.1333333E+00  0.3555556E-02
    1       -5.144614   1.000000
    2        4.639700   1.000000
    3        4.880704   1.000000
    4        5.420643   1.000000
    5        7.523565   1.000000
    6        8.837444   1.000002
    7        9.675754  -0.000000
    8       11.283648  -0.000000
    9       11.425830  -0.000000
   10       15.574999   0.000000

  0.1333333E+00  0.6666667E-01  0.1333333E+00  0.7111111E-02
    1       -4.818192   1.000000
    2        4.105652   1.000000
    3        4.718265   1.000000
    4        5.171963   1.000000
    5        7.330426   1.000000
    6        8.704439   1.000000
    7       10.102152  -0.000000
    8       11.037802  -0.000000
    9       11.324944  -0.000000
   10       15.913098   0.000000

  0.2000000E+00  0.6666667E-01  0.1333333E+00  0.7111111E-02
    1       -4.339971   1.000000
    2        3.117827   1.000000
    3        4.757809   1.000000
    4        4.929864   1.000000
    5        7.112756   1.000000
    6        8.701321   1.000000
    7       10.263428  -0.000000
    8       10.884466  -0.000000
    9       11.551400  -0.000000
   10       15.705042   0.000000

  0.2666667E+00  0.6666667E-01  0.1333333E+00  0.7111111E-02
    1       -3.722217   1.000000
    2        2.034437   1.000000
    3        4.532039   1.000000
    4        4.971931   1.000000
    5        6.820318   1.000000
    6        8.869660   1.000019
    7       10.347329  -0.000000
    8       10.726993  -0.000000
    9       11.987888   0.000000
   10       15.198628   0.000000

  0.3333333E+00  0.6666667E-01  0.1333333E+00  0.7111111E-02
    1       -2.979356   1.000000
    2        0.931245   1.000000
    3        4.297470   1.000000
    4        5.074685   1.000000
    5        6.521672   1.000000
    6        9.124652   0.967883
    7       10.458790  -0.000000
    8       10.606219  -0.000000
    9       12.370162   0.000000
   10       14.748389   0.000000

  0.4000000E+00  0.6666667E-01  0.1333333E+00  0.7111111E-02
    1       -2.127992   1.000000
    2       -0.145081   1.000000
    3        4.142636   1.000000
    4        5.162359   1.000000
    5        6.298743   1.000000
    6        9.353272  -0.024803
    7       10.402999  -0.000000
    8       10.677562  -0.000000
    9       12.637358   0.000000
   10       14.420944   0.000000

  0.4666667E+00  0.6666667E-01  0.1333333E+00  0.3555556E-02
    1       -1.276966   1.000000
    2       -1.072347   1.000000
    3        4.088927   1.000000
    4        5.199027   1.000000
    5        6.214549   1.000000
    6        9.448661  -0.001076
    7       10.352250  -0.000000
    8       10.731049  -0.000000
    9       12.749299   0.000000
   10       14.282426   0.000000

  0.1333333E+00  0.1333333E+00  0.1333333E+00  0.3555556E-02
    1       -4.418536   1.000000
    2        3.424889   1.000000
    3        4.536640   1.000000
    4        4.889341   1.000000
    5        7.505611   1.000000
    6        8.337465   1.000000
    7       10.464761  -0.000000
    8       10.784163  -0.000000
    9       11.524551  -0.000000
   10       16.079189   0.000000

  0.2000000E+00  0.1333333E+00  0.1333333E+00  0.7111111E-02
    1       -3.873852   1.000000
    2        2.554156   1.000000
    3        4.037418   1.000000
    4        4.964720   1.000000
    5        7.504239   1.000000
    6        8.238207   1.000000
    7       10.535439  -0.000000
    8       10.684136  -0.000000
    9       11.979671   0.000000
   10       15.548117   0.000000

  0.2666667E+00  0.1333333E+00  0.1333333E+00  0.7111111E-02
    1       -3.197449   1.000000
    2        1.551209   1.000000
    3        3.641772   1.000000
    4        5.084502   1.000000
    5        7.150571   1.000000
    6        8.567484   1.000000
    7       10.423636  -0.000000
    8       10.724860  -0.000000
    9       12.498895   0.000000
   10       15.047018   0.000000

  0.3333333E+00  0.1333333E+00  0.1333333E+00  0.7111111E-02
    1       -2.405348   1.000000
    2        0.506107   1.000000
    3        3.378514   1.000000
    4        5.211979   1.000000
    5        6.803361   1.000000
    6        8.941670   1.000909
    7       10.315144  -0.000000
    8       10.763863  -0.000000
    9       12.932542   0.000000
   10       14.663302   0.000000

  0.4000000E+00  0.1333333E+00  0.1333333E+00  0.7111111E-02
    1       -1.522416   1.000000
    2       -0.512151   1.000000
    3        3.246660   1.000000
    4        5.305841   1.000000
    5        6.590884   1.000000
    6        9.185521   0.596638
    7       10.248100  -0.000000
    8       10.776238  -0.000000
    9       13.208351   0.000000
   10       14.417821   0.000000

  0.2000000E+00  0.2000000E+00  0.1333333E+00  0.3555556E-02
    1       -3.270544   1.000000
    2        1.920010   1.000000
    3        3.244463   1.000000
    4        5.091575   1.000000
    5        7.592856   1.000000
    6        8.143126   1.000000
    7       10.399738  -0.000000
    8       10.773195  -0.000000
    9       12.563586   0.000000
   10       15.211823   0.000000

  0.2666667E+00  0.2000000E+00  0.1333333E+00  0.7111111E-02
    1       -2.545149   1.000000
    2        1.118800   1.000000
    3        2.675432   1.000000
    4        5.255267   1.000000
    5        7.149728   1.000000
    6        8.631350   1.000000
    7       10.226265  -0.000000
    8       10.801113  -0.000000
    9       13.166177   0.000000
   10       14.897481   0.000000
