 running on    4 total cores
 distrk:  each k-point on    4 cores,    1 groups
 distr:  one band on    2 cores,    2 groups
 using from now: INCAR     
 vasp.5.4.4.18Apr17-6-g9f103f2a35 (build Dec  7 2020 12:43:57) complex           
 POSCAR found type information on POSCAR  V  B 
 POSCAR found :  2 types and       3 ions
 scaLAPACK will be used
 LDA part: xc-table for Pade appr. of Perdew
 POSCAR, INCAR and KPOINTS ok, starting setup
 FFT: planning ...
 WAVECAR not read
 augmentation electrons   11.006997382906679     
 soft         electrons   0.0000000000000000     
 augmentation electrons   11.006997382906679     
 soft         electrons   0.0000000000000000     
 augmentation electrons   11.006997382906679     
 soft         electrons   0.0000000000000000     
 augmentation electrons   11.006997382906679     
 soft         electrons   0.0000000000000000     
 total        electrons   11.006997382906679     
 total        electrons   11.006997382906679     
 total        electrons   11.006997382906679     
 total        electrons   11.006997382906679     
 augmentation electrons   34.444668454806155     
 soft         electrons   0.0000000000000000     
 augmentation electrons   34.444668454806155     
 soft         electrons   0.0000000000000000     
 total        electrons   34.444668454806155     
 augmentation electrons   34.444668454806155     
 soft         electrons   0.0000000000000000     
 total        electrons   34.444668454806155     
 augmentation electrons   34.444668454806155     
 soft         electrons   0.0000000000000000     
 total        electrons   34.444668454806155     
 total        electrons   34.444668454806155     
 entering main loop
       N       E                     dE             d eps       ncg     rms          rms(c)
DAV:   1     0.365550526445E+02    0.36555E+02   -0.46981E+03  4410   0.109E+03
DAV:   2    -0.232366337516E+02   -0.59792E+02   -0.55653E+02  4478   0.191E+02
DAV:   3    -0.274895955560E+02   -0.42530E+01   -0.40530E+01  6238   0.600E+01
DAV:   4    -0.275980763655E+02   -0.10848E+00   -0.10412E+00  6552   0.783E+00
DAV:   5    -0.275988645377E+02   -0.78817E-03   -0.78657E-03  6090   0.491E-01    0.251E+01
RMM:   6    -0.216854100009E+02    0.59135E+01   -0.37071E+01  4330   0.761E+01    0.567E+00
RMM:   7    -0.209763448728E+02    0.70907E+00   -0.37397E+00  4388   0.257E+01    0.322E+00
RMM:   8    -0.210189596183E+02   -0.42615E-01   -0.66721E-01  5082   0.474E+00    0.143E+00
RMM:   9    -0.210308184065E+02   -0.11859E-01   -0.16816E-01  4340   0.588E+00    0.108E+00
RMM:  10    -0.210255973054E+02    0.52211E-02   -0.25349E-02  4361   0.224E+00    0.338E-01
RMM:  11    -0.210244420563E+02    0.11552E-02   -0.16320E-03  4608   0.536E-01    0.181E-01
RMM:  12    -0.210243706561E+02    0.71400E-04   -0.25086E-03  4415   0.684E-01    0.202E-02
RMM:  13    -0.210244270041E+02   -0.56348E-04   -0.57684E-04  5053   0.184E-01    0.227E-02
RMM:  14    -0.210244306995E+02   -0.36954E-05   -0.16151E-05  4448   0.643E-02    0.584E-03
RMM:  15    -0.210244311801E+02   -0.48068E-06   -0.24524E-06  3363   0.177E-02
   1 F= -.21024431E+02 E0= -.21024399E+02  d E =-.210244E+02
 curvature:   0.00 expect dE= 0.000E+00 dE for cont linesearch  0.000E+00
 trial: gam= 0.00000 g(F)=  0.232E-44 g(S)=  0.488E-02 ort = 0.000E+00 (trialstep = 0.100E+01)
 search vector abs. value=  0.488E-02
 bond charge predicted
       N       E                     dE             d eps       ncg     rms          rms(c)
DAV:   1    -0.210280008452E+02   -0.35701E-02   -0.95796E-02  4730   0.279E+00    0.237E-01
RMM:   2    -0.210271750687E+02    0.82578E-03   -0.73000E-03  4447   0.979E-01    0.258E-01
RMM:   3    -0.210268043817E+02    0.37069E-03   -0.82454E-04  4443   0.383E-01    0.106E-01
RMM:   4    -0.210267384012E+02    0.65980E-04   -0.29282E-04  4602   0.199E-01    0.227E-02
RMM:   5    -0.210267426656E+02   -0.42644E-05   -0.57275E-05  4404   0.479E-02    0.832E-03
RMM:   6    -0.210267434868E+02   -0.82118E-06   -0.10296E-05  4352   0.363E-02    0.699E-03
RMM:   7    -0.210267419637E+02    0.15231E-05   -0.10852E-06  3012   0.165E-02    0.173E-03
RMM:   8    -0.210267419410E+02    0.22706E-07   -0.52305E-07  2701   0.569E-03
   2 F= -.21026742E+02 E0= -.21026668E+02  d E =-.231076E-02
 trial-energy change:   -0.002311  1 .order   -0.002312   -0.004880    0.000255
 step:   0.9503(harm=  0.9503)  dis= 0.00000  next Energy=   -21.026750 (dE=-0.232E-02)
 reached required accuracy - stopping structural energy minimisation
 writing wavefunctions
 augmentation electrons   1.8478031824958914     
 soft         electrons   9.1622647520305502     
 total        electrons   11.010067934526441     
 augmentation electrons   1.8478031824958914     
 soft         electrons   9.1622647520305502     
 augmentation electrons   1.8478031824958914     
 soft         electrons   9.1622647520305502     
 augmentation electrons   1.8478031824958914     
 soft         electrons   9.1622647520305502     
 total        electrons   11.010067934526441     
 total        electrons   11.010067934526441     
 total        electrons   11.010067934526441     
