   49   49    1    1
  0.2411350E+02  0.8645320E-09  0.6085000E-09  0.2593596E-08  0.5000000E-15
   1.0000000000000000E-004
  CAR 
 Name                                    
    189    149    120

  0.3742002E-15  0.3742002E-15  0.3742002E-15  0.3367003E-02
    1      -14.028001   1.000000
    2      -12.671190   1.000000
    3      -12.539876   1.000000
    4      -12.013633   1.000000
    5      -11.593754   1.000000
    6      -11.229120   1.000000
    7      -11.212593   1.000000
    8      -11.178065   1.000000
    9      -11.069669   1.000000
   10      -10.755953   1.000000
   11      -10.737982   1.000000
   12      -10.353516   1.000000
   13      -10.231225   1.000000
   14      -10.185145   1.000000
   15       -9.810135   1.000000
   16       -9.778219   1.000000
   17       -9.004929   1.000000
   18       -8.972837   1.000000
   19       -8.932030   1.000000
   20       -8.628090   1.000000
   21       -8.564677   1.000000
   22       -8.506485   1.000000
   23       -8.243350   1.000000
   24       -8.150420   1.000000
   25       -8.055370   1.000000
   26       -8.037028   1.000000
   27       -7.380062   1.000000
   28       -7.240418   1.000000
   29       -6.855834   1.000000
   30       -6.574338   1.000000
   31       -6.524467   1.000000
   32       -6.205672   1.000000
   33       -6.049993   1.000000
   34       -6.001720   1.000000
   35       -5.723796   1.000000
   36       -5.642999   1.000000
   37       -5.557123   1.000000
   38       -5.524319   1.000000
   39       -5.312203   1.000000
   40       -5.215231   1.000000
   41       -5.184157   1.000000
   42       -5.138379   1.000000
   43       -5.098808   1.000000
   44       -4.920847   1.000000
   45       -4.898760   1.000000
   46       -4.793340   1.000000
   47       -4.744908   1.000000
   48       -4.645244   1.000000
   49       -4.611939   1.000000
   50       -4.587321   1.000000
   51       -4.523187   1.000000
   52       -4.460060   1.000000
   53       -4.413111   1.000000
   54       -4.342785   1.000000
   55       -4.212831   1.000000
   56       -4.115080   1.000000
   57       -4.084020   1.000000
   58       -4.038426   1.000000
   59       -3.945410   1.000000
   60       -3.793069   1.000000
   61       -3.603332   1.000000
   62       -3.501974   1.000000
   63       -3.480355   1.000000
   64       -3.442896   1.000000
   65       -3.418634   1.000000
   66       -3.391312   1.000000
   67       -3.289123   1.000000
   68       -3.269953   1.000000
   69       -3.170269   1.000000
   70       -3.126793   1.000000
   71       -3.028798   1.000000
   72       -2.787723   1.000000
   73       -2.747765   1.000000
   74       -2.536154   1.000000
   75       -2.435334   1.000000
   76       -2.365477   1.000000
   77       -2.306663   1.000000
   78       -2.208031   1.000000
   79       -2.132539   1.000000
   80       -2.009722   1.000000
   81       -1.787904   1.000000
   82       -1.597882   1.000000
   83       -1.302447   1.000000
   84       -1.267529   1.000000
   85       -1.170845   1.000000
   86       -1.073857   1.000000
   87       -0.987735   1.000000
   88       -0.946181   1.000000
   89       -0.733810   1.000000
   90       -0.405647   1.000000
   91       -0.242952   1.000211
   92       -0.075358   1.035029
   93        0.009047   0.762914
   94        0.065861   0.304438
   95        0.164530  -0.035458
   96        0.206581  -0.020971
   97        0.227130  -0.012545
   98        0.549962  -0.000000
   99        0.555151  -0.000000
  100        0.602454  -0.000000
  101        0.658275  -0.000000
  102        0.779762  -0.000000
  103        0.784591  -0.000000
  104        0.814998  -0.000000
  105        0.896384  -0.000000
  106        1.228998  -0.000000
  107        1.237636  -0.000000
  108        1.283608  -0.000000
  109        1.308009  -0.000000
  110        1.400560  -0.000000
  111        1.406745  -0.000000
  112        1.451301  -0.000000
  113        1.510435  -0.000000
  114        1.616111  -0.000000
  115        1.644462  -0.000000
  116        1.782981  -0.000000
  117        1.788608  -0.000000
  118        1.939334  -0.000000
  119        2.058699  -0.000000
  120        3.453137   0.000000

  0.1111111E+00  0.3729374E-15  0.3860503E-15  0.6734007E-02
    1      -14.001067   1.000000
    2      -12.675076   1.000000
    3      -12.625614   1.000000
    4      -11.958381   1.000000
    5      -11.579423   1.000000
    6      -11.232261   1.000000
    7      -11.202472   1.000000
    8      -11.166550   1.000000
    9      -11.098919   1.000000
   10      -10.752097   1.000000
   11      -10.733545   1.000000
   12      -10.369997   1.000000
   13      -10.232447   1.000000
   14      -10.180801   1.000000
   15       -9.797004   1.000000
   16       -9.766658   1.000000
   17       -8.994902   1.000000
   18       -8.967055   1.000000
   19       -8.929966   1.000000
   20       -8.651427   1.000000
   21       -8.573964   1.000000
   22       -8.499546   1.000000
   23       -8.300426   1.000000
   24       -8.154369   1.000000
   25       -8.070610   1.000000
   26       -8.048239   1.000000
   27       -7.463818   1.000000
   28       -7.250649   1.000000
   29       -6.795450   1.000000
   30       -6.544546   1.000000
   31       -6.496891   1.000000
   32       -6.185593   1.000000
   33       -6.025639   1.000000
   34       -5.982126   1.000000
   35       -5.714142   1.000000
   36       -5.655882   1.000000
   37       -5.536691   1.000000
   38       -5.458293   1.000000
   39       -5.399470   1.000000
   40       -5.281484   1.000000
   41       -5.176614   1.000000
   42       -5.091713   1.000000
   43       -5.066221   1.000000
   44       -4.895145   1.000000
   45       -4.815419   1.000000
   46       -4.790656   1.000000
   47       -4.773243   1.000000
   48       -4.645649   1.000000
   49       -4.595501   1.000000
   50       -4.566586   1.000000
   51       -4.497136   1.000000
   52       -4.447165   1.000000
   53       -4.401608   1.000000
   54       -4.341813   1.000000
   55       -4.208978   1.000000
   56       -4.143173   1.000000
   57       -4.094998   1.000000
   58       -4.037779   1.000000
   59       -3.934495   1.000000
   60       -3.794737   1.000000
   61       -3.600572   1.000000
   62       -3.517936   1.000000
   63       -3.487942   1.000000
   64       -3.439819   1.000000
   65       -3.408172   1.000000
   66       -3.387986   1.000000
   67       -3.292989   1.000000
   68       -3.261174   1.000000
   69       -3.188967   1.000000
   70       -3.130832   1.000000
   71       -3.074384   1.000000
   72       -2.811985   1.000000
   73       -2.746100   1.000000
   74       -2.530103   1.000000
   75       -2.443254   1.000000
   76       -2.413270   1.000000
   77       -2.280520   1.000000
   78       -2.265881   1.000000
   79       -2.163083   1.000000
   80       -2.029994   1.000000
   81       -1.685456   1.000000
   82       -1.640035   1.000000
   83       -1.325237   1.000000
   84       -1.298167   1.000000
   85       -1.140424   1.000000
   86       -1.055468   1.000000
   87       -0.974502   1.000000
   88       -0.850607   1.000000
   89       -0.770385   1.000000
   90       -0.470372   1.000000
   91       -0.292509   1.000012
   92       -0.054951   1.021688
   93        0.048018   0.449319
   94        0.079816   0.204048
   95        0.156635  -0.034402
   96        0.192279  -0.027534
   97        0.220432  -0.015048
   98        0.526972  -0.000000
   99        0.565504  -0.000000
  100        0.596569  -0.000000
  101        0.693177  -0.000000
  102        0.789325  -0.000000
  103        0.811306  -0.000000
  104        0.836580  -0.000000
  105        0.928538  -0.000000
  106        1.228000  -0.000000
  107        1.236204  -0.000000
  108        1.265321  -0.000000
  109        1.337485  -0.000000
  110        1.398015  -0.000000
  111        1.430793  -0.000000
  112        1.480153  -0.000000
  113        1.531528  -0.000000
  114        1.638072  -0.000000
  115        1.660197  -0.000000
  116        1.710517  -0.000000
  117        1.782277  -0.000000
  118        1.972148  -0.000000
  119        2.001222  -0.000000
  120        3.222563   0.000000

  0.2222222E+00  0.3922785E-15  0.3630220E-15  0.6734007E-02
    1      -13.921051   1.000000
    2      -12.893708   1.000000
    3      -12.569514   1.000000
    4      -11.914135   1.000000
    5      -11.540377   1.000000
    6      -11.254090   1.000000
    7      -11.184059   1.000000
    8      -11.157593   1.000000
    9      -11.095219   1.000000
   10      -10.740873   1.000000
   11      -10.720414   1.000000
   12      -10.439374   1.000000
   13      -10.235915   1.000000
   14      -10.174674   1.000000
   15       -9.753368   1.000000
   16       -9.728399   1.000000
   17       -9.012899   1.000000
   18       -8.947677   1.000000
   19       -8.871026   1.000000
   20       -8.710288   1.000000
   21       -8.620853   1.000000
   22       -8.501302   1.000000
   23       -8.417905   1.000000
   24       -8.217514   1.000000
   25       -8.146679   1.000000
   26       -7.949881   1.000000
   27       -7.671793   1.000000
   28       -7.219214   1.000000
   29       -6.693793   1.000000
   30       -6.486462   1.000000
   31       -6.446144   1.000000
   32       -6.235005   1.000000
   33       -5.954763   1.000000
   34       -5.908684   1.000000
   35       -5.773004   1.000000
   36       -5.623058   1.000000
   37       -5.575197   1.000000
   38       -5.371577   1.000000
   39       -5.313386   1.000000
   40       -5.257334   1.000000
   41       -5.137674   1.000000
   42       -5.058884   1.000000
   43       -4.991610   1.000000
   44       -4.971490   1.000000
   45       -4.856407   1.000000
   46       -4.750017   1.000000
   47       -4.681006   1.000000
   48       -4.611598   1.000000
   49       -4.573208   1.000000
   50       -4.514251   1.000000
   51       -4.455656   1.000000
   52       -4.409934   1.000000
   53       -4.375663   1.000000
   54       -4.309931   1.000000
   55       -4.208490   1.000000
   56       -4.164051   1.000000
   57       -4.131822   1.000000
   58       -4.014462   1.000000
   59       -3.921688   1.000000
   60       -3.815725   1.000000
   61       -3.621634   1.000000
   62       -3.560028   1.000000
   63       -3.508029   1.000000
   64       -3.443198   1.000000
   65       -3.411492   1.000000
   66       -3.369806   1.000000
   67       -3.342001   1.000000
   68       -3.251376   1.000000
   69       -3.220099   1.000000
   70       -3.154731   1.000000
   71       -3.032052   1.000000
   72       -2.932497   1.000000
   73       -2.667124   1.000000
   74       -2.591907   1.000000
   75       -2.505611   1.000000
   76       -2.460265   1.000000
   77       -2.392270   1.000000
   78       -2.259098   1.000000
   79       -2.248517   1.000000
   80       -2.000108   1.000000
   81       -1.774987   1.000000
   82       -1.470183   1.000000
   83       -1.388297   1.000000
   84       -1.356416   1.000000
   85       -1.086546   1.000000
   86       -1.032824   1.000000
   87       -0.907537   1.000000
   88       -0.832471   1.000000
   89       -0.622811   1.000000
   90       -0.585467   1.000000
   91       -0.412327   1.000000
   92       -0.135569   1.015376
   93        0.075852   0.231027
   94        0.110877   0.044172
   95        0.140190  -0.023126
   96        0.205239  -0.021583
   97        0.382526  -0.000008
   98        0.495658  -0.000000
   99        0.521069  -0.000000
  100        0.547261  -0.000000
  101        0.732732  -0.000000
  102        0.848991  -0.000000
  103        0.879962  -0.000000
  104        0.891761  -0.000000
  105        0.994968  -0.000000
  106        1.180223  -0.000000
  107        1.277781  -0.000000
  108        1.286381  -0.000000
  109        1.378591  -0.000000
  110        1.427621  -0.000000
  111        1.439716  -0.000000
  112        1.532840  -0.000000
  113        1.579496  -0.000000
  114        1.641056  -0.000000
  115        1.662652  -0.000000
  116        1.708120  -0.000000
  117        1.778881  -0.000000
  118        1.971248  -0.000000
  119        2.017649  -0.000000
  120        2.593147  -0.000000

  0.3333333E+00  0.3713828E-15  0.3468587E-15  0.6734007E-02
    1      -13.790401   1.000000
    2      -13.150461   1.000000
    3      -12.457505   1.000000
    4      -11.979039   1.000000
    5      -11.488395   1.000000
    6      -11.279845   1.000000
    7      -11.167658   1.000000
    8      -11.157390   1.000000
    9      -11.007180   1.000000
   10      -10.725447   1.000000
   11      -10.701893   1.000000
   12      -10.565890   1.000000
   13      -10.242418   1.000000
   14      -10.178017   1.000000
   15       -9.675189   1.000000
   16       -9.663588   1.000000
   17       -9.085716   1.000000
   18       -8.939049   1.000000
   19       -8.800948   1.000000
   20       -8.732937   1.000000
   21       -8.679715   1.000000
   22       -8.516997   1.000000
   23       -8.495434   1.000000
   24       -8.307760   1.000000
   25       -8.238012   1.000000
   26       -7.940975   1.000000
   27       -7.738594   1.000000
   28       -7.121365   1.000000
   29       -6.693692   1.000000
   30       -6.447291   1.000000
   31       -6.425313   1.000000
   32       -6.329944   1.000000
   33       -6.068052   1.000000
   34       -5.818991   1.000000
   35       -5.707359   1.000000
   36       -5.500139   1.000000
   37       -5.464882   1.000000
   38       -5.286277   1.000000
   39       -5.260715   1.000000
   40       -5.180008   1.000000
   41       -5.143199   1.000000
   42       -5.070758   1.000000
   43       -5.015604   1.000000
   44       -4.922990   1.000000
   45       -4.821646   1.000000
   46       -4.707210   1.000000
   47       -4.669987   1.000000
   48       -4.620806   1.000000
   49       -4.521774   1.000000
   50       -4.504086   1.000000
   51       -4.404967   1.000000
   52       -4.363010   1.000000
   53       -4.302018   1.000000
   54       -4.257213   1.000000
   55       -4.220803   1.000000
   56       -4.165129   1.000000
   57       -4.107923   1.000000
   58       -3.969854   1.000000
   59       -3.946144   1.000000
   60       -3.823056   1.000000
   61       -3.699002   1.000000
   62       -3.642846   1.000000
   63       -3.533318   1.000000
   64       -3.503614   1.000000
   65       -3.449601   1.000000
   66       -3.398661   1.000000
   67       -3.327481   1.000000
   68       -3.261153   1.000000
   69       -3.218637   1.000000
   70       -3.102607   1.000000
   71       -2.984965   1.000000
   72       -2.912619   1.000000
   73       -2.788732   1.000000
   74       -2.604699   1.000000
   75       -2.598683   1.000000
   76       -2.496485   1.000000
   77       -2.478348   1.000000
   78       -2.341268   1.000000
   79       -2.284066   1.000000
   80       -1.944836   1.000000
   81       -1.853457   1.000000
   82       -1.539317   1.000000
   83       -1.464374   1.000000
   84       -1.186441   1.000000
   85       -1.148425   1.000000
   86       -0.897702   1.000000
   87       -0.853098   1.000000
   88       -0.796042   1.000000
   89       -0.735423   1.000000
   90       -0.534152   1.000000
   91       -0.335581   1.000001
   92       -0.287181   1.000017
   93        0.080716   0.198111
   94        0.105685   0.064205
   95        0.144935  -0.027896
   96        0.305978  -0.000607
   97        0.363937  -0.000026
   98        0.420996  -0.000001
   99        0.468979  -0.000000
  100        0.724293  -0.000000
  101        0.864868  -0.000000
  102        0.892489  -0.000000
  103        0.900884  -0.000000
  104        0.943514  -0.000000
  105        1.015522  -0.000000
  106        1.083297  -0.000000
  107        1.358351  -0.000000
  108        1.381567  -0.000000
  109        1.424636  -0.000000
  110        1.435103  -0.000000
  111        1.486597  -0.000000
  112        1.526775  -0.000000
  113        1.583277  -0.000000
  114        1.601094  -0.000000
  115        1.726464  -0.000000
  116        1.828965  -0.000000
  117        1.877941  -0.000000
  118        1.935024  -0.000000
  119        1.996433  -0.000000
  120        2.525469  -0.000000

  0.4444444E+00  0.3870091E-15  0.3932070E-15  0.6734007E-02
    1      -13.613738   1.000000
    2      -13.395703   1.000000
    3      -12.319982   1.000000
    4      -12.114777   1.000000
    5      -11.445886   1.000000
    6      -11.291939   1.000000
    7      -11.157096   1.000000
    8      -11.153993   1.000000
    9      -10.885816   1.000000
   10      -10.737938   1.000000
   11      -10.694496   1.000000
   12      -10.682388   1.000000
   13      -10.250765   1.000000
   14      -10.186716   1.000000
   15       -9.602287   1.000000
   16       -9.589360   1.000000
   17       -9.184897   1.000000
   18       -8.938864   1.000000
   19       -8.826301   1.000000
   20       -8.797219   1.000000
   21       -8.561459   1.000000
   22       -8.540237   1.000000
   23       -8.454809   1.000000
   24       -8.365185   1.000000
   25       -8.298270   1.000000
   26       -8.197720   1.000000
   27       -7.515646   1.000000
   28       -7.090433   1.000000
   29       -6.760213   1.000000
   30       -6.466430   1.000000
   31       -6.413069   1.000000
   32       -6.377406   1.000000
   33       -6.201065   1.000000
   34       -5.654291   1.000000
   35       -5.547337   1.000000
   36       -5.469234   1.000000
   37       -5.393012   1.000000
   38       -5.341819   1.000000
   39       -5.234972   1.000000
   40       -5.209402   1.000000
   41       -5.136059   1.000000
   42       -5.013976   1.000000
   43       -4.959390   1.000000
   44       -4.882243   1.000000
   45       -4.777701   1.000000
   46       -4.716167   1.000000
   47       -4.664131   1.000000
   48       -4.642680   1.000000
   49       -4.533348   1.000000
   50       -4.443106   1.000000
   51       -4.376439   1.000000
   52       -4.351302   1.000000
   53       -4.319121   1.000000
   54       -4.228799   1.000000
   55       -4.128637   1.000000
   56       -4.106449   1.000000
   57       -4.060349   1.000000
   58       -4.030453   1.000000
   59       -3.895199   1.000000
   60       -3.870657   1.000000
   61       -3.778083   1.000000
   62       -3.676577   1.000000
   63       -3.609145   1.000000
   64       -3.540997   1.000000
   65       -3.494133   1.000000
   66       -3.383916   1.000000
   67       -3.326655   1.000000
   68       -3.247323   1.000000
   69       -3.225042   1.000000
   70       -3.052329   1.000000
   71       -2.956201   1.000000
   72       -2.897540   1.000000
   73       -2.776397   1.000000
   74       -2.717075   1.000000
   75       -2.673408   1.000000
   76       -2.610420   1.000000
   77       -2.431529   1.000000
   78       -2.373084   1.000000
   79       -2.245004   1.000000
   80       -2.115842   1.000000
   81       -1.723482   1.000000
   82       -1.639541   1.000000
   83       -1.471842   1.000000
   84       -1.271623   1.000000
   85       -1.035992   1.000000
   86       -0.903075   1.000000
   87       -0.858239   1.000000
   88       -0.781931   1.000000
   89       -0.609849   1.000000
   90       -0.518006   1.000000
   91       -0.449414   1.000000
   92       -0.184184   1.003136
   93        0.025826   0.635049
   94        0.113034   0.036627
   95        0.129017  -0.005852
   96        0.282061  -0.001786
   97        0.367715  -0.000021
   98        0.398708  -0.000003
   99        0.617176  -0.000000
  100        0.704083  -0.000000
  101        0.800231  -0.000000
  102        0.896720  -0.000000
  103        0.914697  -0.000000
  104        0.973802  -0.000000
  105        1.202831  -0.000000
  106        1.221301  -0.000000
  107        1.318719  -0.000000
  108        1.430292  -0.000000
  109        1.461875  -0.000000
  110        1.484205  -0.000000
  111        1.509329  -0.000000
  112        1.565284  -0.000000
  113        1.601455  -0.000000
  114        1.630028  -0.000000
  115        1.650109  -0.000000
  116        1.814847  -0.000000
  117        1.978927  -0.000000
  118        2.035584  -0.000000
  119        2.155049  -0.000000
  120        2.400494  -0.000000

  0.3742002E-15  0.9090909E-01  0.3596334E-15  0.6734007E-02
    1      -13.994856   1.000000
    2      -12.643326   1.000000
    3      -12.543333   1.000000
    4      -11.981967   1.000000
    5      -11.575820   1.000000
    6      -11.398829   1.000000
    7      -11.344646   1.000000
    8      -11.172790   1.000000
    9      -11.082833   1.000000
   10      -10.746850   1.000000
   11      -10.713179   1.000000
   12      -10.333244   1.000000
   13      -10.191345   1.000000
   14      -10.136906   1.000000
   15       -9.802958   1.000000
   16       -9.765709   1.000000
   17       -9.099655   1.000000
   18       -9.011003   1.000000
   19       -8.944230   1.000000
   20       -8.634063   1.000000
   21       -8.598694   1.000000
   22       -8.462858   1.000000
   23       -8.065333   1.000000
   24       -8.025769   1.000000
   25       -7.918136   1.000000
   26       -7.901744   1.000000
   27       -7.426248   1.000000
   28       -7.212733   1.000000
   29       -6.820489   1.000000
   30       -6.611231   1.000000
   31       -6.515939   1.000000
   32       -6.189952   1.000000
   33       -6.104296   1.000000
   34       -5.959879   1.000000
   35       -5.753625   1.000000
   36       -5.657900   1.000000
   37       -5.507166   1.000000
   38       -5.479373   1.000000
   39       -5.364489   1.000000
   40       -5.277308   1.000000
   41       -5.204964   1.000000
   42       -5.143415   1.000000
   43       -5.113943   1.000000
   44       -5.055702   1.000000
   45       -4.916261   1.000000
   46       -4.829761   1.000000
   47       -4.750223   1.000000
   48       -4.719915   1.000000
   49       -4.621337   1.000000
   50       -4.584204   1.000000
   51       -4.557432   1.000000
   52       -4.454057   1.000000
   53       -4.416093   1.000000
   54       -4.344971   1.000000
   55       -4.276137   1.000000
   56       -4.147170   1.000000
   57       -4.053538   1.000000
   58       -3.997481   1.000000
   59       -3.965507   1.000000
   60       -3.800127   1.000000
   61       -3.585960   1.000000
   62       -3.534736   1.000000
   63       -3.481890   1.000000
   64       -3.466159   1.000000
   65       -3.386613   1.000000
   66       -3.375018   1.000000
   67       -3.291425   1.000000
   68       -3.279331   1.000000
   69       -3.148259   1.000000
   70       -3.089895   1.000000
   71       -3.042743   1.000000
   72       -2.924330   1.000000
   73       -2.766942   1.000000
   74       -2.436235   1.000000
   75       -2.422270   1.000000
   76       -2.385258   1.000000
   77       -2.294589   1.000000
   78       -2.213359   1.000000
   79       -2.094875   1.000000
   80       -2.021378   1.000000
   81       -1.816129   1.000000
   82       -1.521416   1.000000
   83       -1.344802   1.000000
   84       -1.304872   1.000000
   85       -1.232950   1.000000
   86       -1.059188   1.000000
   87       -1.041120   1.000000
   88       -0.997218   1.000000
   89       -0.679359   1.000000
   90       -0.519147   1.000000
   91       -0.304344   1.000006
   92       -0.107455   1.027886
   93       -0.090297   1.034157
   94       -0.023172   0.941943
   95        0.145722  -0.028556
   96        0.197549  -0.025133
   97        0.237390  -0.009257
   98        0.416223  -0.000001
   99        0.436321  -0.000000
  100        0.583587  -0.000000
  101        0.768184  -0.000000
  102        0.840648  -0.000000
  103        0.865258  -0.000000
  104        0.954315  -0.000000
  105        1.032569  -0.000000
  106        1.149743  -0.000000
  107        1.179484  -0.000000
  108        1.304134  -0.000000
  109        1.310763  -0.000000
  110        1.391132  -0.000000
  111        1.418270  -0.000000
  112        1.481489  -0.000000
  113        1.532900  -0.000000
  114        1.636324  -0.000000
  115        1.668318  -0.000000
  116        1.726651  -0.000000
  117        1.744284  -0.000000
  118        1.937253  -0.000000
  119        2.088701  -0.000000
  120        2.556385  -0.000000

  0.1111111E+00  0.9090909E-01  0.4822234E-15  0.6734007E-02
    1      -13.946148   1.000000
    2      -12.731495   1.000000
    3      -12.589727   1.000000
    4      -11.912540   1.000000
    5      -11.549937   1.000000
    6      -11.443877   1.000000
    7      -11.292019   1.000000
    8      -11.173267   1.000000
    9      -11.105915   1.000000
   10      -10.746334   1.000000
   11      -10.654787   1.000000
   12      -10.373437   1.000000
   13      -10.230436   1.000000
   14      -10.162781   1.000000
   15       -9.763448   1.000000
   16       -9.717901   1.000000
   17       -9.131477   1.000000
   18       -8.989571   1.000000
   19       -8.898890   1.000000
   20       -8.704658   1.000000
   21       -8.619776   1.000000
   22       -8.477385   1.000000
   23       -8.140400   1.000000
   24       -7.994157   1.000000
   25       -7.940574   1.000000
   26       -7.919754   1.000000
   27       -7.560770   1.000000
   28       -7.212340   1.000000
   29       -6.731784   1.000000
   30       -6.625458   1.000000
   31       -6.419929   1.000000
   32       -6.167757   1.000000
   33       -6.087223   1.000000
   34       -5.945498   1.000000
   35       -5.783211   1.000000
   36       -5.577154   1.000000
   37       -5.531530   1.000000
   38       -5.419416   1.000000
   39       -5.402822   1.000000
   40       -5.291359   1.000000
   41       -5.176192   1.000000
   42       -5.145758   1.000000
   43       -5.077109   1.000000
   44       -5.062539   1.000000
   45       -4.867749   1.000000
   46       -4.773661   1.000000
   47       -4.710661   1.000000
   48       -4.687086   1.000000
   49       -4.589814   1.000000
   50       -4.544029   1.000000
   51       -4.521075   1.000000
   52       -4.455479   1.000000
   53       -4.408110   1.000000
   54       -4.358804   1.000000
   55       -4.282516   1.000000
   56       -4.168447   1.000000
   57       -4.055658   1.000000
   58       -3.993723   1.000000
   59       -3.966935   1.000000
   60       -3.784469   1.000000
   61       -3.592477   1.000000
   62       -3.580084   1.000000
   63       -3.537848   1.000000
   64       -3.470207   1.000000
   65       -3.376253   1.000000
   66       -3.363368   1.000000
   67       -3.267264   1.000000
   68       -3.260005   1.000000
   69       -3.149317   1.000000
   70       -3.141330   1.000000
   71       -3.087764   1.000000
   72       -2.964758   1.000000
   73       -2.705295   1.000000
   74       -2.516615   1.000000
   75       -2.452798   1.000000
   76       -2.441954   1.000000
   77       -2.304040   1.000000
   78       -2.268394   1.000000
   79       -2.098401   1.000000
   80       -2.038850   1.000000
   81       -1.803312   1.000000
   82       -1.494557   1.000000
   83       -1.424781   1.000000
   84       -1.377416   1.000000
   85       -1.205242   1.000000
   86       -1.008160   1.000000
   87       -0.924206   1.000000
   88       -0.839185   1.000000
   89       -0.736756   1.000000
   90       -0.603858   1.000000
   91       -0.317865   1.000002
   92       -0.123479   1.020548
   93       -0.082433   1.035399
   94        0.095130   0.113286
   95        0.121242   0.011963
   96        0.199325  -0.024312
   97        0.217907  -0.016060
   98        0.366139  -0.000023
   99        0.381595  -0.000009
  100        0.713088  -0.000000
  101        0.802598  -0.000000
  102        0.823488  -0.000000
  103        0.885504  -0.000000
  104        0.975940  -0.000000
  105        1.029116  -0.000000
  106        1.129274  -0.000000
  107        1.260893  -0.000000
  108        1.268652  -0.000000
  109        1.335473  -0.000000
  110        1.352564  -0.000000
  111        1.451390  -0.000000
  112        1.521473  -0.000000
  113        1.590556  -0.000000
  114        1.640904  -0.000000
  115        1.699955  -0.000000
  116        1.726961  -0.000000
  117        1.771075  -0.000000
  118        1.992217  -0.000000
  119        2.113751  -0.000000
  120        3.292233   0.000000

  0.2222222E+00  0.9090909E-01  0.3065600E-15  0.6734007E-02
    1      -13.845415   1.000000
    2      -12.976267   1.000000
    3      -12.503837   1.000000
    4      -11.911173   1.000000
    5      -11.507088   1.000000
    6      -11.475995   1.000000
    7      -11.249349   1.000000
    8      -11.216052   1.000000
    9      -11.044644   1.000000
   10      -10.716066   1.000000
   11      -10.569748   1.000000
   12      -10.468686   1.000000
   13      -10.309721   1.000000
   14      -10.202152   1.000000
   15       -9.687295   1.000000
   16       -9.624271   1.000000
   17       -9.163746   1.000000
   18       -9.033143   1.000000
   19       -8.806047   1.000000
   20       -8.740878   1.000000
   21       -8.693269   1.000000
   22       -8.536235   1.000000
   23       -8.240631   1.000000
   24       -8.020166   1.000000
   25       -7.970120   1.000000
   26       -7.839332   1.000000
   27       -7.766803   1.000000
   28       -7.153834   1.000000
   29       -6.684342   1.000000
   30       -6.603678   1.000000
   31       -6.340136   1.000000
   32       -6.250372   1.000000
   33       -6.060501   1.000000
   34       -5.896487   1.000000
   35       -5.762996   1.000000
   36       -5.622772   1.000000
   37       -5.422743   1.000000
   38       -5.380807   1.000000
   39       -5.286693   1.000000
   40       -5.246173   1.000000
   41       -5.189976   1.000000
   42       -5.131552   1.000000
   43       -5.041023   1.000000
   44       -5.004451   1.000000
   45       -4.833523   1.000000
   46       -4.761556   1.000000
   47       -4.679242   1.000000
   48       -4.630632   1.000000