   54   54   85    1
  0.1316444E+02  0.6078000E-09  0.6078000E-09  0.2222000E-08  0.5000000E-15
   1.0000000000000000E-004
  CAR 
 Name                                    
    198     41    132

  0.3742002E-15  0.3742002E-15  0.1262379E-14  0.1234568E-01
    1      -11.426874   1.000000
    2      -10.828091   1.000000
    3       -9.996042   1.000000
    4       -8.557475   1.000000
    5       -8.440159   1.000000
    6       -8.267587   1.000000
    7       -8.050191   1.000000
    8       -7.937376   1.000000
    9       -7.664607   1.000000
   10       -7.650671   1.000000
   11       -7.622879   1.000000
   12       -7.553584   1.000000
   13       -7.535341   1.000000
   14       -7.495429   1.000000
   15       -7.288234   1.000000
   16       -7.285169   1.000000
   17       -7.195736   1.000000
   18       -6.976127   1.000000
   19       -6.848600   1.000000
   20       -6.678853   1.000000
   21       -6.130813   1.000000
   22       -5.931192   1.000000
   23       -5.826795   1.000000
   24       -5.784586   1.000000
   25       -5.738010   1.000000
   26       -5.695178   1.000000
   27       -5.619936   1.000000
   28       -5.188960   1.000000
   29       -5.150028   1.000000
   30       -5.148650   1.000000
   31       -4.556288   1.000000
   32       -4.446573   1.000000
   33       -4.335532   1.000000
   34       -4.287460   1.000000
   35       -4.140140   1.000000
   36       -4.046145   1.000000
   37       -3.849399   1.000000
   38       -3.379982   1.000000
   39       -3.098398   1.000000
   40       -2.879885   1.000000
   41       -2.653808   1.000000
   42       -2.637068   1.000000
   43       -2.618511   1.000000
   44       -2.382940   1.000000
   45       -2.298785   1.000000
   46       -2.276458   1.000000
   47       -2.150121   1.000000
   48       -2.058107   1.000000
   49       -1.886595   1.000000
   50       -1.842795   1.000000
   51       -1.784036   1.000000
   52       -1.718659   1.000000
   53       -1.619947   1.000000
   54       -1.530466   1.000000
   55       -1.526369   1.000000
   56       -1.430268   1.000000
   57       -1.358423   1.000000
   58       -1.302573   1.000000
   59       -1.297672   1.000000
   60       -1.260780   1.000000
   61       -1.241552   1.000000
   62       -1.060379   1.000000
   63       -1.005618   1.000000
   64       -0.946424   1.000000
   65       -0.944696   1.000000
   66       -0.714933   1.000000
   67       -0.664270   1.000000
   68       -0.655416   1.000000
   69       -0.639444   1.000000
   70       -0.548564   1.000000
   71       -0.420411   1.000000
   72       -0.211643   1.000000
   73       -0.140229   1.000000
   74       -0.004012   1.000000
   75        0.020683   1.000000
   76        0.038061   1.000000
   77        0.130418   1.000000
   78        0.250528   1.000000
   79        0.264808   1.000000
   80        0.395194   1.000000
   81        0.728169   1.000000
   82        0.886827   1.000000
   83        1.182826   1.000000
   84        1.314864   1.000000
   85        1.363226   1.000000
   86        1.368769   1.000000
   87        1.506477   1.000000
   88        1.635687   1.000000
   89        1.669238   1.000000
   90        1.718585   1.000000
   91        1.749155   1.000000
   92        1.837354   1.000000
   93        1.879609   1.000000
   94        1.927800   1.000002
   95        2.082543   1.000190
   96        2.209471   1.003478
   97        2.243656   1.006457
   98        2.266294   1.009330
   99        2.769222   0.097062
  100        2.872664  -0.031600
  101        2.881115  -0.033630
  102        3.160738  -0.001054
  103        3.308695  -0.000020
  104        3.315388  -0.000016
  105        3.361691  -0.000004
  106        3.451623  -0.000000
  107        3.525278  -0.000000
  108        3.641332  -0.000000
  109        3.667778  -0.000000
  110        3.679672  -0.000000
  111        3.684128  -0.000000
  112        3.752018  -0.000000
  113        3.800748  -0.000000
  114        3.867316  -0.000000
  115        3.884758  -0.000000
  116        3.900515  -0.000000
  117        3.961159  -0.000000
  118        3.996716  -0.000000
  119        4.051165  -0.000000
  120        4.114611  -0.000000
  121        4.158127  -0.000000
  122        4.172189  -0.000000
  123        4.213440  -0.000000
  124        4.333724  -0.000000
  125        4.374184  -0.000000
  126        4.435328  -0.000000
  127        4.457371  -0.000000
  128        4.509447  -0.000000
  129        4.671685  -0.000000
  130        4.703692  -0.000000
  131        4.945011  -0.000000
  132        5.053522  -0.000000

  0.1111111E+00  0.3768735E-15  0.1262379E-14  0.2469136E-01
    1      -11.369612   1.000000
    2      -10.775899   1.000000
    3       -9.956174   1.000000
    4       -8.521814   1.000000
    5       -8.464351   1.000000
    6       -8.235128   1.000000
    7       -8.212837   1.000000
    8       -8.187155   1.000000
    9       -7.942997   1.000000
   10       -7.798252   1.000000
   11       -7.767520   1.000000
   12       -7.752259   1.000000
   13       -7.699404   1.000000
   14       -7.681650   1.000000
   15       -7.052682   1.000000
   16       -7.001251   1.000000
   17       -6.794842   1.000000
   18       -6.741754   1.000000
   19       -6.655086   1.000000
   20       -6.475405   1.000000
   21       -6.112144   1.000000
   22       -6.056452   1.000000
   23       -5.857427   1.000000
   24       -5.782361   1.000000
   25       -5.686072   1.000000
   26       -5.625413   1.000000
   27       -5.575645   1.000000
   28       -5.283942   1.000000
   29       -5.218417   1.000000
   30       -5.069994   1.000000
   31       -4.390684   1.000000
   32       -4.360849   1.000000
   33       -4.195475   1.000000
   34       -4.162067   1.000000
   35       -4.058818   1.000000
   36       -3.895445   1.000000
   37       -3.725697   1.000000
   38       -3.361061   1.000000
   39       -3.111280   1.000000
   40       -2.930650   1.000000
   41       -2.768933   1.000000
   42       -2.616310   1.000000
   43       -2.593838   1.000000
   44       -2.518698   1.000000
   45       -2.365893   1.000000
   46       -2.347272   1.000000
   47       -2.255271   1.000000
   48       -2.132204   1.000000
   49       -1.902129   1.000000
   50       -1.859162   1.000000
   51       -1.813644   1.000000
   52       -1.749390   1.000000
   53       -1.619365   1.000000
   54       -1.540071   1.000000
   55       -1.501031   1.000000
   56       -1.450694   1.000000
   57       -1.343393   1.000000
   58       -1.330301   1.000000
   59       -1.287107   1.000000
   60       -1.254920   1.000000
   61       -1.235410   1.000000
   62       -1.142574   1.000000
   63       -1.037652   1.000000
   64       -0.984029   1.000000
   65       -0.969973   1.000000
   66       -0.870837   1.000000
   67       -0.702195   1.000000
   68       -0.639815   1.000000
   69       -0.594654   1.000000
   70       -0.521284   1.000000
   71       -0.453748   1.000000
   72       -0.352704   1.000000
   73       -0.131096   1.000000
   74       -0.091001   1.000000
   75       -0.054898   1.000000
   76        0.023193   1.000000
   77        0.084521   1.000000
   78        0.251772   1.000000
   79        0.299121   1.000000
   80        0.402861   1.000000
   81        0.617596   1.000000
   82        0.683668   1.000000
   83        1.056289   1.000000
   84        1.171911   1.000000
   85        1.244566   1.000000
   86        1.325780   1.000000
   87        1.446977   1.000000
   88        1.537513   1.000000
   89        1.645590   1.000000
   90        1.701346   1.000000
   91        1.711363   1.000000
   92        1.806838   1.000000
   93        1.847895   1.000000
   94        2.008522   1.000023
   95        2.050140   1.000078
   96        2.212409   1.003678
   97        2.488676   0.999426
   98        2.567173   0.839493
   99        2.759485   0.121900
  100        2.897000  -0.035378
  101        2.906292  -0.035372
  102        3.044778  -0.009621
  103        3.191692  -0.000509
  104        3.277530  -0.000051
  105        3.341953  -0.000007
  106        3.521985  -0.000000
  107        3.596899  -0.000000
  108        3.634688  -0.000000
  109        3.661715  -0.000000
  110        3.698014  -0.000000
  111        3.706331  -0.000000
  112        3.774249  -0.000000
  113        3.811863  -0.000000
  114        3.863427  -0.000000
  115        3.878344  -0.000000
  116        3.890487  -0.000000
  117        3.948641  -0.000000
  118        3.979939  -0.000000
  119        4.061422  -0.000000
  120        4.083568  -0.000000
  121        4.109861  -0.000000
  122        4.142659  -0.000000
  123        4.184852  -0.000000
  124        4.267235  -0.000000
  125        4.327544  -0.000000
  126        4.373125  -0.000000
  127        4.455334  -0.000000
  128        4.488037  -0.000000
  129        4.634571  -0.000000
  130        4.746740  -0.000000
  131        4.904490  -0.000000
  132        4.972302  -0.000000

  0.2222222E+00  0.3666194E-15  0.1262379E-14  0.2469136E-01
    1      -11.199801   1.000000
    2      -10.621696   1.000000
    3       -9.839712   1.000000
    4       -8.872720   1.000000
    5       -8.633164   1.000000
    6       -8.561389   1.000000
    7       -8.393646   1.000000
    8       -8.152805   1.000000
    9       -8.035890   1.000000
   10       -8.023449   1.000000
   11       -7.958162   1.000000
   12       -7.927730   1.000000
   13       -7.875666   1.000000
   14       -7.843746   1.000000
   15       -6.846852   1.000000
   16       -6.695910   1.000000
   17       -6.583092   1.000000
   18       -6.511139   1.000000
   19       -6.454613   1.000000
   20       -6.249427   1.000000
   21       -6.009211   1.000000
   22       -5.874344   1.000000
   23       -5.748770   1.000000
   24       -5.685702   1.000000
   25       -5.642645   1.000000
   26       -5.482181   1.000000
   27       -5.438843   1.000000
   28       -5.300452   1.000000
   29       -5.008122   1.000000
   30       -4.866397   1.000000
   31       -4.194356   1.000000
   32       -4.148107   1.000000
   33       -3.995938   1.000000
   34       -3.881813   1.000000
   35       -3.712313   1.000000
   36       -3.657826   1.000000
   37       -3.378477   1.000000
   38       -3.274661   1.000000
   39       -3.168834   1.000000
   40       -3.148345   1.000000
   41       -3.026874   1.000000
   42       -2.971803   1.000000
   43       -2.808180   1.000000
   44       -2.555429   1.000000
   45       -2.484415   1.000000
   46       -2.354380   1.000000
   47       -2.341889   1.000000
   48       -2.125446   1.000000
   49       -1.980259   1.000000
   50       -1.903783   1.000000
   51       -1.843218   1.000000
   52       -1.815965   1.000000
   53       -1.772667   1.000000
   54       -1.664984   1.000000
   55       -1.649228   1.000000
   56       -1.500937   1.000000
   57       -1.383947   1.000000
   58       -1.364077   1.000000
   59       -1.323985   1.000000
   60       -1.278433   1.000000
   61       -1.265422   1.000000
   62       -1.175481   1.000000
   63       -1.159597   1.000000
   64       -1.066269   1.000000
   65       -1.040593   1.000000
   66       -0.897754   1.000000
   67       -0.861871   1.000000
   68       -0.739910   1.000000
   69       -0.686286   1.000000
   70       -0.655485   1.000000
   71       -0.532720   1.000000
   72       -0.443957   1.000000
   73       -0.375405   1.000000
   74       -0.302057   1.000000
   75       -0.197979   1.000000
   76        0.015253   1.000000
   77        0.145816   1.000000
   78        0.160709   1.000000
   79        0.295364   1.000000
   80        0.423715   1.000000
   81        0.540470   1.000000
   82        0.675132   1.000000
   83        0.805043   1.000000
   84        0.885837   1.000000
   85        1.063117   1.000000
   86        1.179896   1.000000
   87        1.301987   1.000000
   88        1.463133   1.000000
   89        1.520952   1.000000
   90        1.623457   1.000000
   91        1.650905   1.000000
   92        1.720711   1.000000
   93        1.855107   1.000000
   94        1.966477   1.000006
   95        2.114702   1.000433
   96        2.201452   1.002976
   97        2.515483   0.961692
   98        2.586768   0.776227
   99        2.818866   0.007027
  100        2.960172  -0.026833
  101        3.026623  -0.012569
  102        3.140120  -0.001658
  103        3.233780  -0.000174
  104        3.324811  -0.000012
  105        3.395956  -0.000001
  106        3.433348  -0.000000
  107        3.463647  -0.000000
  108        3.491851  -0.000000
  109        3.576656  -0.000000
  110        3.616122  -0.000000
  111        3.672685  -0.000000
  112        3.750569  -0.000000
  113        3.787867  -0.000000
  114        3.825552  -0.000000
  115        3.847927  -0.000000
  116        3.925326  -0.000000
  117        3.943628  -0.000000
  118        3.971455  -0.000000
  119        3.995716  -0.000000
  120        4.046632  -0.000000
  121        4.120618  -0.000000
  122        4.167389  -0.000000
  123        4.209398  -0.000000
  124        4.235333  -0.000000
  125        4.276911  -0.000000
  126        4.306231  -0.000000
  127        4.435766  -0.000000
  128        4.542248  -0.000000
  129        4.574787  -0.000000
  130        4.720634  -0.000000
  131        4.811409  -0.000000
  132        4.902121  -0.000000

  0.3333333E+00  0.3733065E-15  0.1262379E-14  0.2469136E-01
    1      -10.924065   1.000000
    2      -10.373187   1.000000
    3       -9.657033   1.000000
    4       -9.486663   1.000000
    5       -9.117753   1.000000
    6       -8.800299   1.000000
    7       -8.226608   1.000000
    8       -8.187781   1.000000
    9       -8.143616   1.000000
   10       -8.140713   1.000000
   11       -8.074580   1.000000
   12       -7.986131   1.000000
   13       -7.906699   1.000000
   14       -7.846268   1.000000
   15       -7.210511   1.000000
   16       -6.926799   1.000000
   17       -6.332380   1.000000
   18       -6.313753   1.000000
   19       -6.062738   1.000000
   20       -6.014200   1.000000
   21       -5.842670   1.000000
   22       -5.804118   1.000000
   23       -5.668722   1.000000
   24       -5.607300   1.000000
   25       -5.424370   1.000000
   26       -5.408891   1.000000
   27       -4.960493   1.000000
   28       -4.816741   1.000000
   29       -4.541489   1.000000
   30       -4.407725   1.000000
   31       -3.948810   1.000000
   32       -3.878585   1.000000
   33       -3.763915   1.000000
   34       -3.671959   1.000000
   35       -3.629167   1.000000
   36       -3.522369   1.000000
   37       -3.468781   1.000000
   38       -3.447513   1.000000
   39       -3.430379   1.000000
   40       -3.288795   1.000000
   41       -3.212276   1.000000
   42       -3.191454   1.000000
   43       -2.727877   1.000000
   44       -2.560606   1.000000
   45       -2.469022   1.000000
   46       -2.423376   1.000000
   47       -2.320980   1.000000
   48       -2.253250   1.000000
   49       -2.233743   1.000000
   50       -2.042311   1.000000
   51       -1.968805   1.000000
   52       -1.914058   1.000000
   53       -1.861301   1.000000
   54       -1.818106   1.000000
   55       -1.738124   1.000000
   56       -1.632585   1.000000
   57       -1.544136   1.000000
   58       -1.492252   1.000000
   59       -1.430990   1.000000
   60       -1.369146   1.000000
   61       -1.352138   1.000000
   62       -1.263687   1.000000
   63       -1.248563   1.000000
   64       -1.194436   1.000000
   65       -1.061373   1.000000
   66       -1.032898   1.000000
   67       -0.991801   1.000000
   68       -0.875285   1.000000
   69       -0.775476   1.000000
   70       -0.689784   1.000000
   71       -0.546850   1.000000
   72       -0.535960   1.000000
   73       -0.451871   1.000000
   74       -0.366273   1.000000
   75       -0.289610   1.000000
   76       -0.238766   1.000000
   77       -0.032831   1.000000
   78        0.121803   1.000000
   79        0.226787   1.000000
   80        0.492056   1.000000
   81        0.555742   1.000000
   82        0.619277   1.000000
   83        0.766090   1.000000
   84        0.845619   1.000000
   85        1.017554   1.000000
   86        1.078777   1.000000
   87        1.233697   1.000000
   88        1.347186   1.000000
   89        1.361407   1.000000
   90        1.546354   1.000000
   91        1.628831   1.000000
   92        1.664751   1.000000
   93        1.825779   1.000000
   94        1.883640   1.000000
   95        2.106906   1.000356
   96        2.273858   1.010470
   97        2.370686   1.030656
   98        2.422375   1.034975
   99        2.619212   0.654907
  100        2.907564  -0.035321
  101        2.960634  -0.026728
  102        3.069817  -0.006413
  103        3.137002  -0.001771
  104        3.190606  -0.000523
  105        3.295216  -0.000030
  106        3.336991  -0.000008
  107        3.407992  -0.000001
  108        3.489409  -0.000000
  109        3.504111  -0.000000
  110        3.555849  -0.000000
  111        3.620510  -0.000000
  112        3.670483  -0.000000
  113        3.692079  -0.000000
  114        3.814442  -0.000000
  115        3.854413  -0.000000
  116        3.870632  -0.000000
  117        3.993554  -0.000000
  118        4.015584  -0.000000
  119        4.031190  -0.000000
  120        4.070649  -0.000000
  121        4.112216  -0.000000
  122        4.161455  -0.000000
  123        4.215543  -0.000000
  124        4.277711  -0.000000
  125        4.338037  -0.000000
  126        4.394575  -0.000000
  127        4.445445  -0.000000
  128        4.492663  -0.000000
  129        4.594119  -0.000000
  130        4.678481  -0.000000
  131        4.690034  -0.000000
  132        4.795442  -0.000000

  0.4444444E+00  0.3745812E-15  0.1262379E-14  0.2469136E-01
    1      -10.565447   1.000000
    2      -10.057845   1.000000
    3      -10.012397   1.000000
    4       -9.583870   1.000000
    5       -9.416847   1.000000
    6       -9.076440   1.000000
    7       -8.281970   1.000000
    8       -8.234054   1.000000
    9       -8.187058   1.000000
   10       -8.104982   1.000000
   11       -8.048602   1.000000
   12       -7.940274   1.000000
   13       -7.883273   1.000000
   14       -7.649521   1.000000
   15       -7.593742   1.000000
   16       -7.261120   1.000000
   17       -6.258622   1.000000
   18       -6.245393   1.000000
   19       -5.933131   1.000000
   20       -5.814040   1.000000
   21       -5.660733   1.000000
   22       -5.508813   1.000000
   23       -5.507227   1.000000
   24       -5.494643   1.000000
   25       -5.472371   1.000000
   26       -5.393865   1.000000
   27       -4.307935   1.000000
   28       -4.165471   1.000000
   29       -4.091593   1.000000
   30       -4.070933   1.000000
   31       -3.999561   1.000000
   32       -3.857998   1.000000
   33       -3.800884   1.000000
   34       -3.757108   1.000000
   35       -3.650239   1.000000
   36       -3.551172   1.000000
   37       -3.510475   1.000000
   38       -3.497366   1.000000
   39       -3.388926   1.000000
   40       -3.358189   1.000000
   41       -3.272280   1.000000
   42       -3.204943   1.000000
   43       -3.101560   1.000000
   44       -3.041328   1.000000
   45       -2.562478   1.000000
   46       -2.532449   1.000000
   47       -2.378066   1.000000
   48       -2.205407   1.000000
   49       -2.173675   1.000000
   50       -2.055003   1.000000
   51       -2.009765   1.000000
   52       -1.895215   1.000000
   53       -1.841351   1.000000
   54       -1.815983   1.000000
   55       -1.756761   1.000000
   56       -1.732200   1.000000
   57       -1.632015   1.000000
   58       -1.629007   1.000000
   59       -1.607303   1.000000
   60       -1.449058   1.000000
   61       -1.423427   1.000000
   62       -1.360713   1.000000
   63       -1.297165   1.000000
   64       -1.233005   1.000000
   65       -1.119172   1.000000
   66       -1.082718   1.000000
   67       -1.009586   1.000000
   68       -0.960785   1.000000
   69       -0.935015   1.000000
   70       -0.723093   1.000000
   71       -0.648076   1.000000
   72       -0.576631   1.000000
   73       -0.452386   1.000000
   74       -0.424482   1.000000
   75       -0.361839   1.000000
   76       -0.246301   1.000000
   77       -0.168379   1.000000
   78        0.126894   1.000000
   79        0.294862   1.000000
   80        0.380152   1.000000
   81        0.453846   1.000000
   82        0.693211   1.000000
   83        0.741570   1.000000
   84        0.872569   1.000000
   85        0.890092   1.000000
   86        1.104279   1.000000
   87        1.146085   1.000000
   88        1.319358   1.000000
   89        1.412076   1.000000
   90        1.508427   1.000000
   91        1.635517   1.000000
   92        1.665055   1.000000
   93        1.846834   1.000000
   94        2.037325   1.000054
   95        2.051075   1.000080
   96        2.256870   1.008038
   97        2.386959   1.033493
   98        2.388878   1.033764
   99        2.478937   1.009259
  100        2.535240   0.922892
  101        2.622244   0.642748
  102        2.873929  -0.031959
  103        2.962509  -0.026301
  104        3.090451  -0.004450
  105        3.207929  -0.000341
  106        3.327107  -0.000011
  107        3.389944  -0.000001
  108        3.397823  -0.000001
  109        3.453865  -0.000000
  110        3.507509  -0.000000
  111        3.557185  -0.000000
  112        3.584974  -0.000000
  113        3.653195  -0.000000
  114        3.765539  -0.000000
  115        3.823316  -0.000000
  116        3.879930  -0.000000
  117        3.989869  -0.000000
  118        3.998944  -0.000000
  119        4.084683  -0.000000
  120        4.093664  -0.000000
  121        4.133724  -0.000000
  122        4.158293  -0.000000
  123        4.254268  -0.000000
  124        4.313866  -0.000000
  125        4.407737  -0.000000
  126        4.425622  -0.000000
  127        4.465268  -0.000000
  128        4.539239  -0.000000
  129        4.555038  -0.000000
  130        4.649018  -0.000000
  131        4.821793  -0.000000
  132        4.951124  -0.000000

  0.3742002E-15  0.1111111E+00  0.1262379E-14  0.2469136E-01
    1      -11.369612   1.000000
    2      -10.775899   1.000000
    3       -9.956174   1.000000
    4       -8.521811   1.000000
    5       -8.464353   1.000000
    6       -8.235125   1.000000
    7       -8.212870   1.000000
    8       -8.187157   1.000000
    9       -7.942974   1.000000
   10       -7.798237   1.000000
   11       -7.767488   1.000000
   12       -7.752265   1.000000
   13       -7.699414   1.000000
   14       -7.681677   1.000000
   15       -7.052667   1.000000
   16       -7.001280   1.000000
   17       -6.794789   1.000000
   18       -6.741783   1.000000
   19       -6.655082   1.000000
   20       -6.475409   1.000000
   21       -6.112185   1.000000
   22       -6.056402   1.000000
   23       -5.857436   1.000000
   24       -5.782376   1.000000
   25       -5.686032   1.000000
   26       -5.625409   1.000000
   27       -5.575658   1.000000
   28       -5.283942   1.000000
   29       -5.218407   1.000000
   30       -5.069991   1.000000
   31       -4.390661   1.000000
   32       -4.360855   1.000000
   33       -4.195458   1.000000
   34       -4.162079   1.000000
   35       -4.058952   1.000000
   36       -3.895442   1.000000
   37       -3.725629   1.000000
   38       -3.361068   1.000000
   39       -3.111278   1.000000
   40       -2.930667   1.000000
   41       -2.768936   1.000000
   42       -2.616293   1.000000
   43       -2.593854   1.000000
   44       -2.518704   1.000000
   45       -2.365910   1.000000
   46       -2.347264   1.000000
   47       -2.255278   1.000000
   48       -2.132207   1.000000
   49       -1.902077   1.000000
   50       -1.859170   1.000000
   51       -1.813720   1.000000
   52       -1.749321   1.000000
   53       -1.619411   1.000000
   54       -1.540113   1.000000
   55       -1.501012   1.000000
   56       -1.450649   1.000000
   57       -1.343394   1.000000
   58       -1.330347   1.000000
   59       -1.287078   1.000000
   60       -1.254902   1.000000
   61       -1.235373   1.000000
   62       -1.142581   1.000000
   63       -1.037698   1.000000
   64       -0.983965   1.000000
   65       -0.970087   1.000000
   66       -0.870785   1.000000
   67       -0.702150   1.000000
   68       -0.639800   1.000000
   69       -0.594693   1.000000
   70       -0.521262   1.000000
   71       -0.453676   1.000000
   72       -0.352677   1.000000
   73       -0.131077   1.000000
   74       -0.090992   1.000000
   75       -0.054930   1.000000
   76        0.023213   1.000000
   77        0.084421   1.000000
   78        0.251729   1.000000
   79        0.299132   1.000000
   80        0.402901   1.000000
   81        0.617653   1.000000
   82        0.683637   1.000000
   83        1.056334   1.000000
   84        1.171889   1.000000
   85        1.244536   1.000000
   86        1.325853   1.000000
   87        1.446868   1.000000
   88        1.537572   1.000000
   89        1.645602   1.000000
   90        1.701331   1.000000
   91        1.711362   1.000000
   92        1.806774   1.000000
   93        1.847859   1.000000
   94        2.008531   1.000023
   95        2.050116   1.000078
   96        2.212511   1.003685
   97        2.488722   0.999374
   98        2.567159   0.839534
   99        2.759457   0.121976
  100        2.896996  -0.035378
  101        2.906310  -0.035371
  102        3.044796  -0.009619
  103        3.191745  -0.000509
  104        3.277464  -0.000051
  105        3.341947  -0.000007
  106        3.521964  -0.000000
  107        3.596860  -0.000000
  108        3.634705  -0.000000
  109        3.661789  -0.000000
  110        3.697972  -0.000000
  111        3.706387  -0.000000
  112        3.774231  -0.000000
  113        3.811809  -0.000000
  114        3.863449  -0.000000
  115        3.878338  -0.000000
  116        3.890474  -0.000000
  117        3.948619  -0.000000
  118        3.979927  -0.000000
  119        4.061414  -0.000000
  120        4.083547  -0.000000
  121        4.109913  -0.000000
  122        4.142658  -0.000000
  123        4.184895  -0.000000
  124        4.267226  -0.000000
  125        4.327647  -0.000000
  126        4.372952  -0.000000
  127        4.455354  -0.000000
  128        4.488036  -0.000000
  129        4.634569  -0.000000
  130        4.746767  -0.000000
  131        4.904494  -0.000000
  132        4.972289  -0.000000

  0.1111111E+00  0.1111111E+00  0.1262379E-14  0.2469136E-01
    1      -11.255383   1.000000
    2      -10.672579   1.000000
    3       -9.877549   1.000000
    4       -8.593814   1.000000
    5       -8.507276   1.000000
    6       -8.462776   1.000000
    7       -8.408587   1.000000
    8       -8.338025   1.000000
    9       -8.183661   1.000000
   10       -8.128435   1.000000
   11       -8.038319   1.000000
   12       -7.836940   1.000000
   13       -7.609366   1.000000
   14       -7.320298   1.000000
   15       -7.212069   1.000000
   16       -6.736941   1.000000
   17       -6.704228   1.000000
   18       -6.577818   1.000000
   19       -6.505290   1.000000
   20       -6.136827   1.000000
   21       -6.055423   1.000000
   22       -6.032421   1.000000
   23       -5.852421   1.000000
   24       -5.703002   1.000000
   25       -5.607014   1.000000
   26       -5.592934   1.000000
   27       -5.396497   1.000000
   28       -5.191877   1.000000
   29       -5.125831   1.000000
   30       -4.932044   1.000000
   31       -4.491660   1.000000
   32       -4.286958   1.000000
   33       -3.909825   1.000000
   34       -3.892183   1.000000
   35       -3.740314   1.000000
   36       -3.732138   1.000000
   37       -3.416331   1.000000
   38       -3.390415   1.000000
   39       -3.191340   1.000000
   40       -3.170461   1.000000
   41       -3.043509   1.000000
   42       -2.875093   1.000000
   43       -2.512871   1.000000
   44       -2.512393   1.000000
   45       -2.351113   1.000000
   46       -2.335287   1.000000
   47       -2.232765   1.000000
   48       -2.201305   1.000000
   49       -2.049719   1.000000
   50       -2.017354   1.000000
   51       -1.846765   1.000000
   52       -1.714890   1.000000
   53       -1.698569   1.000000
   54       -1.660490   1.000000
   55       -1.577881   1.000000
   56       -1.559311   1.000000
   57       -1.459026   1.000000
   58       -1.313395   1.000000
   59       -1.251277   1.000000
   60       -1.182113   1.000000
   61       -1.169168   1.000000
   62       -1.131292   1.000000
   63       -1.127270   1.000000
   64       -1.024126   1.000000
   65       -1.018203   1.000000
   66       -0.982645   1.000000
   67       -0.776038   1.000000
   68       -0.678634   1.000000
   69       -0.663974   1.000000
   70       -0.579082   1.000000
   71       -0.520583   1.000000
   72       -0.488654   1.000000
   73       -0.338396   1.000000
   74       -0.271499   1.000000
   75       -0.195899   1.000000
   76        0.043354   1.000000
   77        0.144117   1.000000
   78        0.254921   1.000000
   79        0.295855   1.000000
   80        0.421766   1.000000
   81        0.521311   1.000000
   82        0.619632   1.000000
   83        0.731848   1.000000
   84        1.001823   1.000000
   85        1.156957   1.000000
   86        1.262428   1.000000
   87        1.448197   1.000000
   88        1.466113   1.000000
   89        1.551938   1.000000
   90        1.553111   1.000000
   91        1.670058   1.000000
   92        1.719784   1.000000
   93        1.762059   1.000000
   94        1.945268   1.000003
   95        2.144233   1.000876
   96        2.220355   1.004269
   97        2.631572   0.604709
   98        2.673655   0.427841