   54   54    1    1
  0.1371068E+02  0.6042588E-09  0.6042559E-09  0.2341357E-08  0.5000000E-15
   1.0000000000000000E-004
  CAR 
 Name                                    
    196     41    126

  0.3742002E-15  0.3742002E-15  0.1262379E-14  0.1234568E-01
    1      -11.837814   1.000000
    2      -11.254470   1.000000
    3      -10.444861   1.000000
    4       -9.040273   1.000000
    5       -8.728109   1.000000
    6       -8.530893   1.000000
    7       -8.363904   1.000000
    8       -8.256319   1.000000
    9       -8.064337   1.000000
   10       -7.993317   1.000000
   11       -7.986570   1.000000
   12       -7.890698   1.000000
   13       -7.859805   1.000000
   14       -7.820439   1.000000
   15       -7.617311   1.000000
   16       -7.582996   1.000000
   17       -7.466836   1.000000
   18       -7.349356   1.000000
   19       -7.219485   1.000000
   20       -6.915796   1.000000
   21       -6.540967   1.000000
   22       -6.345461   1.000000
   23       -6.180974   1.000000
   24       -6.126675   1.000000
   25       -6.092779   1.000000
   26       -6.062071   1.000000
   27       -6.050750   1.000000
   28       -5.575686   1.000000
   29       -5.479690   1.000000
   30       -5.468642   1.000000
   31       -4.983702   1.000000
   32       -4.851766   1.000000
   33       -4.725151   1.000000
   34       -4.716330   1.000000
   35       -4.561517   1.000000
   36       -4.326244   1.000000
   37       -4.164834   1.000000
   38       -3.471826   1.000000
   39       -3.437279   1.000000
   40       -3.080541   1.000000
   41       -3.009495   1.000000
   42       -2.943636   1.000000
   43       -2.848385   1.000000
   44       -2.640228   1.000000
   45       -2.615584   1.000000
   46       -2.596572   1.000000
   47       -2.216272   1.000000
   48       -2.202205   1.000000
   49       -2.175443   1.000000
   50       -2.017901   1.000000
   51       -1.957097   1.000000
   52       -1.912410   1.000000
   53       -1.908671   1.000000
   54       -1.807066   1.000000
   55       -1.705978   1.000000
   56       -1.665924   1.000000
   57       -1.660037   1.000000
   58       -1.616593   1.000000
   59       -1.520806   1.000000
   60       -1.456649   1.000000
   61       -1.379664   1.000000
   62       -1.250414   1.000000
   63       -1.178921   1.000000
   64       -1.175611   1.000000
   65       -1.043257   1.000000
   66       -0.977743   1.000000
   67       -0.937073   1.000000
   68       -0.817849   1.000000
   69       -0.716065   1.000000
   70       -0.628152   1.000000
   71       -0.593148   1.000000
   72       -0.481680   1.000000
   73       -0.415208   1.000000
   74       -0.407074   1.000000
   75       -0.382083   1.000000
   76       -0.315009   1.000000
   77       -0.273032   1.000000
   78       -0.080272   1.000000
   79       -0.053024   1.000000
   80        0.317988   1.000000
   81        0.352380   1.000000
   82        0.679702   1.000000
   83        0.949257   1.000000
   84        0.955566   1.000000
   85        1.063885   1.000000
   86        1.215324   1.000000
   87        1.237811   1.000000
   88        1.321870   1.000000
   89        1.340961   1.000000
   90        1.369859   1.000000
   91        1.384173   1.000000
   92        1.524095   1.000001
   93        1.582917   1.000009
   94        1.626120   1.000033
   95        1.791603   1.002168
   96        1.928800   1.019960
   97        1.958618   1.026799
   98        2.036567   1.033862
   99        2.513094  -0.035336
  100        2.576953  -0.024329
  101        2.652784  -0.009311
  102        2.817011  -0.000314
  103        3.010991  -0.000001
  104        3.052344  -0.000000
  105        3.112184  -0.000000
  106        3.165939  -0.000000
  107        3.181950  -0.000000
  108        3.205360  -0.000000
  109        3.280457  -0.000000
  110        3.333461  -0.000000
  111        3.425631  -0.000000
  112        3.499780  -0.000000
  113        3.528783  -0.000000
  114        3.556721  -0.000000
  115        3.654311  -0.000000
  116        3.740990  -0.000000
  117        3.885181  -0.000000
  118        3.994194  -0.000000
  119        4.100004  -0.000000
  120        4.140563  -0.000000
  121        4.571821  -0.000000
  122        5.688665  -0.000000
  123        5.904817  -0.000000
  124        6.015495  -0.000000
  125        6.272198  -0.000000
  126        6.638264  -0.000000

  0.1111111E+00  0.3867788E-15  0.1262378E-14  0.2469136E-01
    1      -11.780486   1.000000
    2      -11.201741   1.000000
    3      -10.403515   1.000000
    4       -9.001531   1.000000
    5       -8.702628   1.000000
    6       -8.585771   1.000000
    7       -8.567826   1.000000
    8       -8.472936   1.000000
    9       -8.391772   1.000000
   10       -8.187819   1.000000
   11       -8.165265   1.000000
   12       -8.051528   1.000000
   13       -8.022423   1.000000
   14       -7.891445   1.000000
   15       -7.388909   1.000000
   16       -7.326189   1.000000
   17       -7.107866   1.000000
   18       -7.072263   1.000000
   19       -6.997542   1.000000
   20       -6.761027   1.000000
   21       -6.493159   1.000000
   22       -6.392878   1.000000
   23       -6.220743   1.000000
   24       -6.175021   1.000000
   25       -6.100813   1.000000
   26       -6.055777   1.000000
   27       -5.900034   1.000000
   28       -5.661711   1.000000
   29       -5.542913   1.000000
   30       -5.409687   1.000000
   31       -4.789805   1.000000
   32       -4.775763   1.000000
   33       -4.561184   1.000000
   34       -4.535961   1.000000
   35       -4.465305   1.000000
   36       -4.173668   1.000000
   37       -4.041241   1.000000
   38       -3.464178   1.000000
   39       -3.439032   1.000000
   40       -3.088813   1.000000
   41       -3.074437   1.000000
   42       -3.007585   1.000000
   43       -2.805951   1.000000
   44       -2.750553   1.000000
   45       -2.649634   1.000000
   46       -2.630600   1.000000
   47       -2.512828   1.000000
   48       -2.277163   1.000000
   49       -2.156721   1.000000
   50       -2.071193   1.000000
   51       -1.987698   1.000000
   52       -1.946796   1.000000
   53       -1.888858   1.000000
   54       -1.850509   1.000000
   55       -1.738185   1.000000
   56       -1.687365   1.000000
   57       -1.628504   1.000000
   58       -1.589727   1.000000
   59       -1.574871   1.000000
   60       -1.491659   1.000000
   61       -1.415013   1.000000
   62       -1.329138   1.000000
   63       -1.269725   1.000000
   64       -1.173421   1.000000
   65       -1.118251   1.000000
   66       -1.061787   1.000000
   67       -0.898271   1.000000
   68       -0.866789   1.000000
   69       -0.787167   1.000000
   70       -0.637782   1.000000
   71       -0.632752   1.000000
   72       -0.542876   1.000000
   73       -0.475172   1.000000
   74       -0.413872   1.000000
   75       -0.332774   1.000000
   76       -0.243690   1.000000
   77       -0.194096   1.000000
   78       -0.109906   1.000000
   79        0.000249   1.000000
   80        0.168576   1.000000
   81        0.259847   1.000000
   82        0.413837   1.000000
   83        0.770192   1.000000
   84        0.871481   1.000000
   85        0.971553   1.000000
   86        1.205075   1.000000
   87        1.228759   1.000000
   88        1.258622   1.000000
   89        1.294987   1.000000
   90        1.318222   1.000000
   91        1.377827   1.000000
   92        1.521659   1.000001
   93        1.569321   1.000005
   94        1.692923   1.000214
   95        1.798940   1.002518
   96        1.920303   1.018091
   97        2.224402   0.657648
   98        2.330709   0.228835
   99        2.464127  -0.025996
  100        2.623934  -0.014140
  101        2.681112  -0.005842
  102        2.709249  -0.003492
  103        2.917743  -0.000018
  104        2.961042  -0.000005
  105        3.037966  -0.000000
  106        3.190488  -0.000000
  107        3.249593  -0.000000
  108        3.276886  -0.000000
  109        3.314482  -0.000000
  110        3.344706  -0.000000
  111        3.427495  -0.000000
  112        3.478464  -0.000000
  113        3.495226  -0.000000
  114        3.511716  -0.000000
  115        3.569383  -0.000000
  116        3.590196  -0.000000
  117        3.655791  -0.000000
  118        3.736637  -0.000000
  119        3.806159  -0.000000
  120        3.916482  -0.000000
  121        4.105790  -0.000000
  122        4.185764  -0.000000
  123        4.515370  -0.000000
  124        5.887687  -0.000000
  125        6.050931  -0.000000
  126        6.299367  -0.000000

  0.2222222E+00  0.3825705E-15  0.1262378E-14  0.2469136E-01
    1      -11.610475   1.000000
    2      -11.045686   1.000000
    3      -10.281868   1.000000
    4       -9.252775   1.000000
    5       -8.984939   1.000000
    6       -8.884294   1.000000
    7       -8.810631   1.000000
    8       -8.552948   1.000000
    9       -8.467638   1.000000
   10       -8.425397   1.000000
   11       -8.328587   1.000000
   12       -8.296200   1.000000
   13       -8.187402   1.000000
   14       -7.999962   1.000000
   15       -7.238513   1.000000
   16       -6.972509   1.000000
   17       -6.907954   1.000000
   18       -6.895387   1.000000
   19       -6.738235   1.000000
   20       -6.638488   1.000000
   21       -6.339772   1.000000
   22       -6.271766   1.000000
   23       -6.094102   1.000000
   24       -6.072609   1.000000
   25       -5.980937   1.000000
   26       -5.880848   1.000000
   27       -5.708262   1.000000
   28       -5.617622   1.000000
   29       -5.316675   1.000000
   30       -5.215450   1.000000
   31       -4.577800   1.000000
   32       -4.560483   1.000000
   33       -4.335851   1.000000
   34       -4.178838   1.000000
   35       -4.045805   1.000000
   36       -3.980234   1.000000
   37       -3.566268   1.000000
   38       -3.498933   1.000000
   39       -3.458463   1.000000
   40       -3.333539   1.000000
   41       -3.229553   1.000000
   42       -3.152109   1.000000
   43       -3.030683   1.000000
   44       -3.006502   1.000000
   45       -2.784089   1.000000
   46       -2.697212   1.000000
   47       -2.620127   1.000000
   48       -2.433791   1.000000
   49       -2.259439   1.000000
   50       -2.200298   1.000000
   51       -2.008293   1.000000
   52       -1.992796   1.000000
   53       -1.945256   1.000000
   54       -1.926643   1.000000
   55       -1.792849   1.000000
   56       -1.773764   1.000000
   57       -1.724436   1.000000
   58       -1.697176   1.000000
   59       -1.627442   1.000000
   60       -1.597357   1.000000
   61       -1.510945   1.000000
   62       -1.465381   1.000000
   63       -1.363957   1.000000
   64       -1.289694   1.000000
   65       -1.254240   1.000000
   66       -1.128421   1.000000
   67       -1.051441   1.000000
   68       -1.036786   1.000000
   69       -0.932935   1.000000
   70       -0.817345   1.000000
   71       -0.690150   1.000000
   72       -0.653345   1.000000
   73       -0.558826   1.000000
   74       -0.524072   1.000000
   75       -0.410790   1.000000
   76       -0.244176   1.000000
   77       -0.146392   1.000000
   78       -0.113720   1.000000
   79        0.106788   1.000000
   80        0.165620   1.000000
   81        0.224884   1.000000
   82        0.361255   1.000000
   83        0.524055   1.000000
   84        0.583902   1.000000
   85        0.830472   1.000000
   86        1.018260   1.000000
   87        1.074255   1.000000
   88        1.227521   1.000000
   89        1.237520   1.000000
   90        1.248003   1.000000
   91        1.319983   1.000000
   92        1.458037   1.000000
   93        1.637228   1.000045
   94        1.750715   1.000888
   95        1.799500   1.002547
   96        1.895259   1.013095
   97        2.269639   0.469431
   98        2.423002   0.009199
   99        2.468890  -0.028171
  100        2.686289  -0.005334
  101        2.743276  -0.001757
  102        2.850271  -0.000131
  103        2.939361  -0.000009
  104        3.026536  -0.000000
  105        3.079207  -0.000000
  106        3.097927  -0.000000
  107        3.133073  -0.000000
  108        3.192920  -0.000000
  109        3.220977  -0.000000
  110        3.244468  -0.000000
  111        3.341727  -0.000000
  112        3.395909  -0.000000
  113        3.431743  -0.000000
  114        3.463500  -0.000000
  115        3.483207  -0.000000
  116        3.527641  -0.000000
  117        3.620624  -0.000000
  118        3.703702  -0.000000
  119        3.735734  -0.000000
  120        3.752476  -0.000000
  121        3.800286  -0.000000
  122        3.842780  -0.000000
  123        3.934999  -0.000000
  124        4.181707  -0.000000
  125        4.295854  -0.000000
  126        4.308503  -0.000000

  0.3333333E+00  0.3885513E-15  0.1262379E-14  0.2469136E-01
    1      -11.334688   1.000000
    2      -10.793160   1.000000
    3      -10.088162   1.000000
    4       -9.872908   1.000000
    5       -9.507926   1.000000
    6       -9.152516   1.000000
    7       -8.700032   1.000000
    8       -8.602246   1.000000
    9       -8.538485   1.000000
   10       -8.481043   1.000000
   11       -8.410305   1.000000
   12       -8.359180   1.000000
   13       -8.276007   1.000000
   14       -8.036996   1.000000
   15       -7.648461   1.000000
   16       -7.270154   1.000000
   17       -6.728426   1.000000
   18       -6.719685   1.000000
   19       -6.377512   1.000000
   20       -6.308173   1.000000
   21       -6.191976   1.000000
   22       -6.161153   1.000000
   23       -6.020866   1.000000
   24       -5.956249   1.000000
   25       -5.742945   1.000000
   26       -5.660513   1.000000
   27       -5.220585   1.000000
   28       -5.043314   1.000000
   29       -4.903147   1.000000
   30       -4.698882   1.000000
   31       -4.317486   1.000000
   32       -4.280802   1.000000
   33       -4.123117   1.000000
   34       -3.908753   1.000000
   35       -3.859675   1.000000
   36       -3.788149   1.000000
   37       -3.680511   1.000000
   38       -3.639780   1.000000
   39       -3.606772   1.000000
   40       -3.588929   1.000000
   41       -3.513718   1.000000
   42       -3.423371   1.000000
   43       -3.097195   1.000000
   44       -2.833379   1.000000
   45       -2.822477   1.000000
   46       -2.752464   1.000000
   47       -2.573929   1.000000
   48       -2.518080   1.000000
   49       -2.441366   1.000000
   50       -2.367893   1.000000
   51       -2.284179   1.000000
   52       -2.159209   1.000000
   53       -2.066355   1.000000
   54       -2.023076   1.000000
   55       -1.986600   1.000000
   56       -1.924732   1.000000
   57       -1.844817   1.000000
   58       -1.792664   1.000000
   59       -1.713699   1.000000
   60       -1.693639   1.000000
   61       -1.655715   1.000000
   62       -1.621239   1.000000
   63       -1.577046   1.000000
   64       -1.532530   1.000000
   65       -1.350114   1.000000
   66       -1.231715   1.000000
   67       -1.170890   1.000000
   68       -1.076166   1.000000
   69       -1.065804   1.000000
   70       -0.942968   1.000000
   71       -0.833764   1.000000
   72       -0.758008   1.000000
   73       -0.651932   1.000000
   74       -0.527698   1.000000
   75       -0.473214   1.000000
   76       -0.385238   1.000000
   77       -0.131635   1.000000
   78       -0.092693   1.000000
   79       -0.000569   1.000000
   80        0.247315   1.000000
   81        0.276288   1.000000
   82        0.351230   1.000000
   83        0.527389   1.000000
   84        0.572451   1.000000
   85        0.724839   1.000000
   86        0.957674   1.000000
   87        0.971081   1.000000
   88        1.095278   1.000000
   89        1.139456   1.000000
   90        1.236645   1.000000
   91        1.271147   1.000000
   92        1.405485   1.000000
   93        1.614642   1.000023
   94        1.697414   1.000240
   95        1.740296   1.000697
   96        1.978855   1.031104
   97        2.063548   1.024526
   98        2.301777   0.336949
   99        2.376798   0.092975
  100        2.625949  -0.013760
  101        2.651773  -0.009457
  102        2.785278  -0.000684
  103        2.839269  -0.000176
  104        2.878893  -0.000058
  105        2.976720  -0.000003
  106        3.056927  -0.000000
  107        3.095709  -0.000000
  108        3.137943  -0.000000
  109        3.193759  -0.000000
  110        3.221422  -0.000000
  111        3.290341  -0.000000
  112        3.308824  -0.000000
  113        3.369646  -0.000000
  114        3.387794  -0.000000
  115        3.508735  -0.000000
  116        3.578438  -0.000000
  117        3.596955  -0.000000
  118        3.675389  -0.000000
  119        3.730991  -0.000000
  120        3.797145  -0.000000
  121        3.887023  -0.000000
  122        3.919726  -0.000000
  123        4.032234  -0.000000
  124        4.092354  -0.000000
  125        4.230880  -0.000000
  126        4.378498  -0.000000

  0.4444444E+00  0.3777319E-15  0.1262377E-14  0.2469136E-01
    1      -10.979933   1.000000
    2      -10.473930   1.000000
    3      -10.391141   1.000000
    4      -10.009072   1.000000
    5       -9.801355   1.000000
    6       -9.498977   1.000000
    7       -8.697328   1.000000
    8       -8.608748   1.000000
    9       -8.574489   1.000000
   10       -8.468354   1.000000
   11       -8.385214   1.000000
   12       -8.356637   1.000000
   13       -8.069780   1.000000
   14       -8.051498   1.000000
   15       -8.022135   1.000000
   16       -7.675451   1.000000
   17       -6.689487   1.000000
   18       -6.668402   1.000000
   19       -6.334674   1.000000
   20       -6.074379   1.000000
   21       -6.032492   1.000000
   22       -5.908741   1.000000
   23       -5.840849   1.000000
   24       -5.735815   1.000000
   25       -5.714309   1.000000
   26       -5.470568   1.000000
   27       -4.636879   1.000000
   28       -4.431786   1.000000
   29       -4.385288   1.000000
   30       -4.337023   1.000000
   31       -4.237272   1.000000
   32       -4.127630   1.000000
   33       -4.076489   1.000000
   34       -4.047661   1.000000
   35       -3.989601   1.000000
   36       -3.915417   1.000000
   37       -3.823097   1.000000
   38       -3.772252   1.000000
   39       -3.666628   1.000000
   40       -3.555943   1.000000
   41       -3.475589   1.000000
   42       -3.457937   1.000000
   43       -3.387451   1.000000
   44       -3.252834   1.000000
   45       -2.905622   1.000000
   46       -2.827089   1.000000
   47       -2.600304   1.000000
   48       -2.533934   1.000000
   49       -2.448435   1.000000
   50       -2.297667   1.000000
   51       -2.270281   1.000000
   52       -2.237030   1.000000
   53       -2.196045   1.000000
   54       -2.116692   1.000000
   55       -2.078289   1.000000
   56       -2.005993   1.000000
   57       -1.908162   1.000000
   58       -1.841779   1.000000
   59       -1.800392   1.000000
   60       -1.750963   1.000000
   61       -1.744509   1.000000
   62       -1.706380   1.000000
   63       -1.674568   1.000000
   64       -1.641898   1.000000
   65       -1.516857   1.000000
   66       -1.436866   1.000000
   67       -1.373605   1.000000
   68       -1.234182   1.000000
   69       -1.056030   1.000000
   70       -0.953800   1.000000
   71       -0.879127   1.000000
   72       -0.757584   1.000000
   73       -0.628212   1.000000
   74       -0.563915   1.000000
   75       -0.436883   1.000000
   76       -0.398857   1.000000
   77       -0.291773   1.000000
   78       -0.034198   1.000000
   79        0.008606   1.000000
   80        0.153530   1.000000
   81        0.220798   1.000000
   82        0.461751   1.000000
   83        0.501355   1.000000
   84        0.644031   1.000000
   85        0.758932   1.000000
   86        0.850941   1.000000
   87        0.929605   1.000000
   88        1.035380   1.000000
   89        1.040388   1.000000
   90        1.277762   1.000000
   91        1.286986   1.000000
   92        1.348020   1.000000
   93        1.568778   1.000005
   94        1.792857   1.002225
   95        1.810684   1.003178
   96        2.003375   1.034764
   97        2.097969   0.995512
   98        2.163844   0.866134
   99        2.264940   0.489293
  100        2.297542   0.353854
  101        2.402045   0.040764
  102        2.518079  -0.035047
  103        2.744413  -0.001715
  104        2.854066  -0.000118
  105        2.914740  -0.000020
  106        3.024391  -0.000000
  107        3.062640  -0.000000
  108        3.094480  -0.000000
  109        3.123368  -0.000000
  110        3.147622  -0.000000
  111        3.216549  -0.000000
  112        3.254390  -0.000000
  113        3.309012  -0.000000
  114        3.328162  -0.000000
  115        3.504755  -0.000000
  116        3.534345  -0.000000
  117        3.595763  -0.000000
  118        3.726031  -0.000000
  119        3.772387  -0.000000
  120        3.833440  -0.000000
  121        3.946413  -0.000000
  122        3.991106  -0.000000
  123        4.083660  -0.000000
  124        4.209246  -0.000000
  125        4.335387  -0.000000
  126        4.364735  -0.000000

  0.3742002E-15  0.1111111E+00  0.1262378E-14  0.2469136E-01
    1      -11.780485   1.000000
    2      -11.201741   1.000000
    3      -10.403515   1.000000
    4       -9.001530   1.000000
    5       -8.702625   1.000000
    6       -8.585759   1.000000
    7       -8.567810   1.000000
    8       -8.472902   1.000000
    9       -8.391788   1.000000
   10       -8.187852   1.000000
   11       -8.165272   1.000000
   12       -8.051534   1.000000
   13       -8.022449   1.000000
   14       -7.891466   1.000000
   15       -7.388903   1.000000
   16       -7.326197   1.000000
   17       -7.107860   1.000000
   18       -7.072258   1.000000
   19       -6.997518   1.000000
   20       -6.761009   1.000000
   21       -6.493136   1.000000
   22       -6.392888   1.000000
   23       -6.220727   1.000000
   24       -6.175012   1.000000
   25       -6.100854   1.000000
   26       -6.055775   1.000000
   27       -5.900072   1.000000
   28       -5.661747   1.000000
   29       -5.542879   1.000000
   30       -5.409687   1.000000
   31       -4.789798   1.000000
   32       -4.775764   1.000000
   33       -4.561176   1.000000
   34       -4.535922   1.000000
   35       -4.465270   1.000000
   36       -4.173674   1.000000
   37       -4.041273   1.000000
   38       -3.464162   1.000000
   39       -3.439035   1.000000
   40       -3.088820   1.000000
   41       -3.074406   1.000000
   42       -3.007607   1.000000
   43       -2.805949   1.000000
   44       -2.750558   1.000000
   45       -2.649616   1.000000
   46       -2.630625   1.000000
   47       -2.512794   1.000000
   48       -2.277171   1.000000
   49       -2.156726   1.000000
   50       -2.071220   1.000000
   51       -1.987693   1.000000
   52       -1.946796   1.000000
   53       -1.888871   1.000000
   54       -1.850521   1.000000
   55       -1.738167   1.000000
   56       -1.687356   1.000000
   57       -1.628515   1.000000
   58       -1.589719   1.000000
   59       -1.574862   1.000000
   60       -1.491667   1.000000
   61       -1.415019   1.000000
   62       -1.329126   1.000000
   63       -1.269733   1.000000
   64       -1.173432   1.000000
   65       -1.118248   1.000000
   66       -1.061789   1.000000
   67       -0.898265   1.000000
   68       -0.866798   1.000000
   69       -0.787145   1.000000
   70       -0.637774   1.000000
   71       -0.632748   1.000000
   72       -0.542865   1.000000
   73       -0.475179   1.000000
   74       -0.413861   1.000000
   75       -0.332815   1.000000
   76       -0.243685   1.000000
   77       -0.194122   1.000000
   78       -0.109934   1.000000
   79        0.000278   1.000000
   80        0.168575   1.000000
   81        0.259848   1.000000
   82        0.413847   1.000000
   83        0.770213   1.000000
   84        0.871463   1.000000
   85        0.971556   1.000000
   86        1.205069   1.000000
   87        1.228760   1.000000
   88        1.258653   1.000000
   89        1.294991   1.000000
   90        1.318185   1.000000
   91        1.377829   1.000000
   92        1.521650   1.000001
   93        1.569325   1.000005
   94        1.692935   1.000214
   95        1.798909   1.002516
   96        1.920300   1.018090
   97        2.224400   0.657657
   98        2.330710   0.228832
   99        2.464118  -0.025991
  100        2.623943  -0.014138
  101        2.681106  -0.005842
  102        2.709254  -0.003492
  103        2.917724  -0.000018
  104        2.961058  -0.000005
  105        3.037969  -0.000000
  106        3.190682  -0.000000
  107        3.249659  -0.000000
  108        3.277157  -0.000000
  109        3.316224  -0.000000
  110        3.349635  -0.000000
  111        3.445053  -0.000000
  112        3.477483  -0.000000
  113        3.489214  -0.000000
  114        3.517426  -0.000000
  115        3.570133  -0.000000
  116        3.594508  -0.000000
  117        3.627945  -0.000000
  118        3.697284  -0.000000
  119        3.784410  -0.000000
  120        3.847247  -0.000000
  121        3.979084  -0.000000
  122        4.127623  -0.000000
  123        4.731452  -0.000000
  124        5.854393  -0.000000
  125        5.998247  -0.000000
  126        6.166967  -0.000000

  0.1111111E+00  0.1111111E+00  0.1262378E-14  0.2469136E-01
    1      -11.667345   1.000000
    2      -11.097197   1.000000
    3      -10.320224   1.000000
    4       -8.975969   1.000000
    5       -8.924529   1.000000
    6       -8.770050   1.000000
    7       -8.726430   1.000000
    8       -8.701804   1.000000
    9       -8.646734   1.000000
   10       -8.486741   1.000000
   11       -8.471463   1.000000
   12       -8.052279   1.000000
   13       -7.879204   1.000000
   14       -7.656791   1.000000
   15       -7.564236   1.000000
   16       -7.116357   1.000000
   17       -7.019779   1.000000
   18       -6.957324   1.000000
   19       -6.701662   1.000000
   20       -6.495673   1.000000
   21       -6.484044   1.000000
   22       -6.347033   1.000000
   23       -6.168628   1.000000
   24       -6.151621   1.000000
   25       -6.016555   1.000000
   26       -5.832519   1.000000
   27       -5.809184   1.000000
   28       -5.535620   1.000000
   29       -5.489755   1.000000
   30       -5.283472   1.000000
   31       -4.868354   1.000000
   32       -4.545735   1.000000
   33       -4.299102   1.000000
   34       -4.295561   1.000000
   35       -4.051326   1.000000
   36       -4.046506   1.000000
   37       -3.782745   1.000000
   38       -3.492771   1.000000
   39       -3.458876   1.000000
   40       -3.313448   1.000000
   41       -3.126863   1.000000
   42       -3.106504   1.000000
   43       -3.018171   1.000000
   44       -2.761202   1.000000
   45       -2.733648   1.000000
   46       -2.635506   1.000000
   47       -2.529563   1.000000
   48       -2.421950   1.000000
   49       -2.317421   1.000000
   50       -2.186982   1.000000
   51       -2.115921   1.000000
   52       -1.923366   1.000000
   53       -1.907166   1.000000
   54       -1.833393   1.000000
   55       -1.800936   1.000000
   56       -1.766788   1.000000
   57       -1.709251   1.000000
   58       -1.677456   1.000000
   59       -1.583728   1.000000
   60       -1.481978   1.000000
   61       -1.472021   1.000000
   62       -1.438831   1.000000
   63       -1.395204   1.000000
   64       -1.339969   1.000000
   65       -1.324554   1.000000
   66       -1.068938   1.000000
   67       -1.022404   1.000000
   68       -0.933126   1.000000
   69       -0.807507   1.000000
   70       -0.793031   1.000000
   71       -0.681990   1.000000
   72       -0.637872   1.000000
   73       -0.511684   1.000000
   74       -0.465181   1.000000
   75       -0.388690   1.000000
   76       -0.224464   1.000000
   77       -0.162211   1.000000
   78       -0.107211   1.000000
   79        0.039248   1.000000
   80        0.174960   1.000000
   81        0.252291   1.000000
   82        0.384609   1.000000
   83        0.444429   1.000000
   84        0.638460   1.000000
   85        0.978955   1.000000
   86        1.038897   1.000000
   87        1.167842   1.000000
   88        1.171410   1.000000
   89        1.266283   1.000000
   90        1.318342   1.000000
   91        1.416049   1.000000
   92        1.430268   1.000000
   93        1.587445   1.000010
   94        1.751756   1.000910
   95        1.846491   1.006130
   96        1.865343   1.008380
   97        2.294818   0.364844
   98        2.476476  -0.030971
   99        2.496876  -0.035004
  100        2.563035  -0.027512
  101        2.740764  -0.001852
  102        2.873916  -0.000067
  103        2.897280  -0.000034
  104        2.955018  -0.000006
  105        3.091844  -0.000000
  106        3.106527  -0.000000
  107        3.172921  -0.000000
  108        3.184688  -0.000000
  109        3.279336  -0.000000
  110        3.355498  -0.000000
  111        3.366489  -0.000000
  112        3.411443  -0.000000
  113        3.459410  -0.000000
  114        3.467452  -0.000000
  115        3.502228  -0.000000
  116        3.593840  -0.000000
  117        3.640237  -0.000000
  118        3.684823  -0.000000
  119        3.731163  -0.000000
  120        3.749238  -0.000000
  121        3.796174  -0.000000
  122        4.048761  -0.000000
  123        4.092175  -0.000000
  124        4.323289  -0.000000
  125        4.374547  -0.000000
  126        6.211731  -0.000000

  0.2222222E+00  0.1111111E+00  0.1262378E-14  0.2469136E-01
    1      -11.444449   1.000000
    2      -10.892356   1.000000
    3      -10.160055   1.000000
    4       -9.547782   1.000000
    5       -9.241885   1.000000
    6       -9.041629   1.000000