   52   52   85    1
  0.2272233E+02  0.8645320E-09  0.6085000E-09  0.2593596E-08  0.5000000E-15
   1.0000000000000000E-004
  CAR 
 Name                                    
    192    149    128

  0.3742002E-15  0.3742002E-15  0.3742002E-15  0.3367003E-02
    1      -13.909416   1.000000
    2      -12.584952   1.000000
    3      -12.404575   1.000000
    4      -11.875750   1.000000
    5      -11.632733   1.000000
    6      -11.155595   1.000000
    7      -11.136118   1.000000
    8      -11.054373   1.000000
    9      -11.041208   1.000000
   10      -10.617122   1.000000
   11      -10.615907   1.000000
   12      -10.457796   1.000000
   13      -10.111444   1.000000
   14      -10.106612   1.000000
   15       -9.782516   1.000000
   16       -9.778816   1.000000
   17       -9.289114   1.000000
   18       -9.077670   1.000000
   19       -9.071775   1.000000
   20       -8.731224   1.000000
   21       -8.725020   1.000000
   22       -8.333246   1.000000
   23       -8.317692   1.000000
   24       -8.061283   1.000000
   25       -7.976876   1.000000
   26       -7.965972   1.000000
   27       -7.477454   1.000000
   28       -7.429806   1.000000
   29       -7.175748   1.000000
   30       -6.701854   1.000000
   31       -6.562913   1.000000
   32       -6.516170   1.000000
   33       -6.117504   1.000000
   34       -6.069330   1.000000
   35       -5.921433   1.000000
   36       -5.718477   1.000000
   37       -5.572269   1.000000
   38       -5.538116   1.000000
   39       -5.457659   1.000000
   40       -5.430126   1.000000
   41       -5.273616   1.000000
   42       -5.265082   1.000000
   43       -5.145221   1.000000
   44       -5.022926   1.000000
   45       -4.959830   1.000000
   46       -4.920487   1.000000
   47       -4.801306   1.000000
   48       -4.725392   1.000000
   49       -4.654056   1.000000
   50       -4.558954   1.000000
   51       -4.546928   1.000000
   52       -4.506699   1.000000
   53       -4.402052   1.000000
   54       -4.366405   1.000000
   55       -4.281278   1.000000
   56       -4.216570   1.000000
   57       -4.168234   1.000000
   58       -4.037573   1.000000
   59       -4.027713   1.000000
   60       -3.970208   1.000000
   61       -3.954622   1.000000
   62       -3.828908   1.000000
   63       -3.590018   1.000000
   64       -3.562247   1.000000
   65       -3.419621   1.000000
   66       -3.404355   1.000000
   67       -3.342617   1.000000
   68       -3.327111   1.000000
   69       -3.285355   1.000000
   70       -3.239395   1.000000
   71       -3.228911   1.000000
   72       -3.208911   1.000000
   73       -3.104489   1.000000
   74       -3.087906   1.000000
   75       -2.721425   1.000000
   76       -2.546155   1.000000
   77       -2.290254   1.000000
   78       -2.246249   1.000000
   79       -2.192457   1.000000
   80       -2.186838   1.000000
   81       -2.015913   1.000000
   82       -1.740138   1.000000
   83       -1.465957   1.000000
   84       -1.458558   1.000000
   85       -1.390842   1.000000
   86       -1.094244   1.000000
   87       -1.013767   1.000000
   88       -0.986222   1.000000
   89       -0.854151   1.000000
   90       -0.364707   1.000000
   91       -0.287652   1.000000
   92       -0.042589   1.023474
   93        0.075544   0.816644
   94        0.094635   0.680447
   95        0.095871   0.670750
   96        0.187988   0.035133
   97        0.194232   0.016064
   98        0.526615  -0.000000
   99        0.542706  -0.000000
  100        0.598912  -0.000000
  101        0.623901  -0.000000
  102        0.670425  -0.000000
  103        0.726126  -0.000000
  104        0.782767  -0.000000
  105        0.903601  -0.000000
  106        0.956197  -0.000000
  107        0.963550  -0.000000
  108        1.253347  -0.000000
  109        1.354927  -0.000000
  110        1.383866  -0.000000
  111        1.478236  -0.000000
  112        1.511809  -0.000000
  113        1.521426  -0.000000
  114        1.613272  -0.000000
  115        1.619073  -0.000000
  116        1.745925  -0.000000
  117        1.758445  -0.000000
  118        1.809322  -0.000000
  119        1.813371  -0.000000
  120        1.939940  -0.000000
  121        1.985967  -0.000000
  122        2.136532  -0.000000
  123        2.137879  -0.000000
  124        2.141866  -0.000000
  125        2.245769  -0.000000
  126        2.262858  -0.000000
  127        2.306180  -0.000000
  128        2.346330  -0.000000

  0.1111111E+00  0.3729374E-15  0.3860503E-15  0.6734007E-02
    1      -13.882346   1.000000
    2      -12.560479   1.000000
    3      -12.523130   1.000000
    4      -11.816002   1.000000
    5      -11.615289   1.000000
    6      -11.173563   1.000000
    7      -11.139189   1.000000
    8      -11.052520   1.000000
    9      -11.047267   1.000000
   10      -10.614445   1.000000
   11      -10.613845   1.000000
   12      -10.461455   1.000000
   13      -10.104775   1.000000
   14      -10.100000   1.000000
   15       -9.768199   1.000000
   16       -9.764925   1.000000
   17       -9.257621   1.000000
   18       -9.094873   1.000000
   19       -9.089908   1.000000
   20       -8.715911   1.000000
   21       -8.710172   1.000000
   22       -8.381970   1.000000
   23       -8.371923   1.000000
   24       -8.029033   1.000000
   25       -8.009597   1.000000
   26       -7.985367   1.000000
   27       -7.585876   1.000000
   28       -7.486889   1.000000
   29       -7.076182   1.000000
   30       -6.611100   1.000000
   31       -6.539533   1.000000
   32       -6.496706   1.000000
   33       -6.094002   1.000000
   34       -6.051592   1.000000
   35       -5.925029   1.000000
   36       -5.819972   1.000000
   37       -5.583163   1.000000
   38       -5.541710   1.000000
   39       -5.402287   1.000000
   40       -5.375284   1.000000
   41       -5.283613   1.000000
   42       -5.277998   1.000000
   43       -5.093580   1.000000
   44       -4.994451   1.000000
   45       -4.965247   1.000000
   46       -4.919307   1.000000
   47       -4.764449   1.000000
   48       -4.745573   1.000000
   49       -4.639811   1.000000
   50       -4.594962   1.000000
   51       -4.537075   1.000000
   52       -4.484099   1.000000
   53       -4.412231   1.000000
   54       -4.328957   1.000000
   55       -4.294840   1.000000
   56       -4.191609   1.000000
   57       -4.159329   1.000000
   58       -4.070737   1.000000
   59       -4.037862   1.000000
   60       -3.969824   1.000000
   61       -3.960155   1.000000
   62       -3.813836   1.000000
   63       -3.592554   1.000000
   64       -3.575241   1.000000
   65       -3.445441   1.000000
   66       -3.380864   1.000000
   67       -3.364963   1.000000
   68       -3.330289   1.000000
   69       -3.270144   1.000000
   70       -3.233909   1.000000
   71       -3.217704   1.000000
   72       -3.178743   1.000000
   73       -3.123059   1.000000
   74       -3.082275   1.000000
   75       -2.803232   1.000000
   76       -2.523459   1.000000
   77       -2.290246   1.000000
   78       -2.266987   1.000000
   79       -2.236863   1.000000
   80       -2.225920   1.000000
   81       -2.028358   1.000000
   82       -1.634609   1.000000
   83       -1.469558   1.000000
   84       -1.462433   1.000000
   85       -1.410408   1.000000
   86       -1.076519   1.000000
   87       -0.999449   1.000000
   88       -0.972209   1.000000
   89       -0.758412   1.000000
   90       -0.426724   1.000000
   91       -0.357801   1.000000
   92       -0.022939   1.031965
   93        0.022930   1.017145
   94        0.086393   0.742638
   95        0.104111   0.604195
   96        0.167412   0.125087
   97        0.250730  -0.033660
   98        0.496825  -0.000001
   99        0.499672  -0.000000
  100        0.585934  -0.000000
  101        0.642726  -0.000000
  102        0.662181  -0.000000
  103        0.774664  -0.000000
  104        0.797687  -0.000000
  105        0.901820  -0.000000
  106        0.992563  -0.000000
  107        0.994145  -0.000000
  108        1.302229  -0.000000
  109        1.331894  -0.000000
  110        1.433763  -0.000000
  111        1.468663  -0.000000
  112        1.524309  -0.000000
  113        1.529699  -0.000000
  114        1.616591  -0.000000
  115        1.641933  -0.000000
  116        1.719783  -0.000000
  117        1.721926  -0.000000
  118        1.813390  -0.000000
  119        1.816053  -0.000000
  120        1.942026  -0.000000
  121        1.993123  -0.000000
  122        2.092814  -0.000000
  123        2.118350  -0.000000
  124        2.128601  -0.000000
  125        2.248478  -0.000000
  126        2.275032  -0.000000
  127        2.289641  -0.000000
  128        2.316296  -0.000000

  0.2222222E+00  0.3922785E-15  0.3630220E-15  0.6734007E-02
    1      -13.801896   1.000000
    2      -12.762885   1.000000
    3      -12.488139   1.000000
    4      -11.776711   1.000000
    5      -11.565539   1.000000
    6      -11.254537   1.000000
    7      -11.096011   1.000000
    8      -11.050280   1.000000
    9      -11.023786   1.000000
   10      -10.606328   1.000000
   11      -10.605858   1.000000
   12      -10.507394   1.000000
   13      -10.092721   1.000000
   14      -10.088523   1.000000
   15       -9.725249   1.000000
   16       -9.722955   1.000000
   17       -9.160220   1.000000
   18       -9.125148   1.000000
   19       -9.117253   1.000000
   20       -8.683512   1.000000
   21       -8.678410   1.000000
   22       -8.507996   1.000000
   23       -8.505691   1.000000
   24       -8.125097   1.000000
   25       -8.120905   1.000000
   26       -7.849468   1.000000
   27       -7.822860   1.000000
   28       -7.460218   1.000000
   29       -6.988528   1.000000
   30       -6.497739   1.000000
   31       -6.479802   1.000000
   32       -6.371633   1.000000
   33       -6.154515   1.000000
   34       -6.010700   1.000000
   35       -6.005510   1.000000
   36       -5.845008   1.000000
   37       -5.532200   1.000000
   38       -5.515357   1.000000
   39       -5.438558   1.000000
   40       -5.313038   1.000000
   41       -5.224704   1.000000
   42       -5.217008   1.000000
   43       -5.030214   1.000000
   44       -4.969579   1.000000
   45       -4.927690   1.000000
   46       -4.894803   1.000000
   47       -4.889029   1.000000
   48       -4.730421   1.000000
   49       -4.607456   1.000000
   50       -4.560587   1.000000
   51       -4.496233   1.000000
   52       -4.432454   1.000000
   53       -4.403638   1.000000
   54       -4.335245   1.000000
   55       -4.277290   1.000000
   56       -4.154001   1.000000
   57       -4.143321   1.000000
   58       -4.078707   1.000000
   59       -4.074984   1.000000
   60       -3.973061   1.000000
   61       -3.921770   1.000000
   62       -3.796502   1.000000
   63       -3.628476   1.000000
   64       -3.616062   1.000000
   65       -3.517035   1.000000
   66       -3.399267   1.000000
   67       -3.382532   1.000000
   68       -3.333580   1.000000
   69       -3.271416   1.000000
   70       -3.241744   1.000000
   71       -3.205718   1.000000
   72       -3.165384   1.000000
   73       -3.055719   1.000000
   74       -3.018970   1.000000
   75       -2.931138   1.000000
   76       -2.479269   1.000000
   77       -2.432081   1.000000
   78       -2.413842   1.000000
   79       -2.345771   1.000000
   80       -2.088898   1.000000
   81       -2.069916   1.000000
   82       -1.516991   1.000000
   83       -1.506526   1.000000
   84       -1.437333   1.000000
   85       -1.369781   1.000000
   86       -1.012314   1.000000
   87       -0.963737   1.000000
   88       -0.930470   1.000000
   89       -0.552572   1.000000
   90       -0.525891   1.000000
   91       -0.514299   1.000000
   92       -0.158583   1.000351
   93        0.004043   1.033703
   94        0.015131   1.026518
   95        0.129032   0.395095
   96        0.262197  -0.029532
   97        0.364075  -0.001291
   98        0.374468  -0.000806
   99        0.445860  -0.000016
  100        0.554038  -0.000000
  101        0.656933  -0.000000
  102        0.672032  -0.000000
  103        0.776630  -0.000000
  104        0.777894  -0.000000
  105        0.947001  -0.000000
  106        1.160507  -0.000000
  107        1.161841  -0.000000
  108        1.243137  -0.000000
  109        1.401753  -0.000000
  110        1.456164  -0.000000
  111        1.495390  -0.000000
  112        1.551011  -0.000000
  113        1.552734  -0.000000
  114        1.608986  -0.000000
  115        1.648118  -0.000000
  116        1.655167  -0.000000
  117        1.726842  -0.000000
  118        1.799312  -0.000000
  119        1.811809  -0.000000
  120        1.949802  -0.000000
  121        1.998994  -0.000000
  122        2.025283  -0.000000
  123        2.057839  -0.000000
  124        2.098840  -0.000000
  125        2.199750  -0.000000
  126        2.238100  -0.000000
  127        2.258428  -0.000000
  128        2.358163  -0.000000

  0.3333333E+00  0.3713828E-15  0.3468587E-15  0.6734007E-02
    1      -13.670409   1.000000
    2      -13.024738   1.000000
    3      -12.371450   1.000000
    4      -11.869848   1.000000
    5      -11.491876   1.000000
    6      -11.300137   1.000000
    7      -11.054037   1.000000
    8      -11.039118   1.000000
    9      -10.966227   1.000000
   10      -10.618362   1.000000
   11      -10.592419   1.000000
   12      -10.585483   1.000000
   13      -10.088376   1.000000
   14      -10.085649   1.000000
   15       -9.661528   1.000000
   16       -9.660115   1.000000
   17       -9.153540   1.000000
   18       -9.146807   1.000000
   19       -8.959887   1.000000
   20       -8.707010   1.000000
   21       -8.701418   1.000000
   22       -8.602249   1.000000
   23       -8.600125   1.000000
   24       -8.262955   1.000000
   25       -8.244872   1.000000
   26       -8.125886   1.000000
   27       -7.609280   1.000000
   28       -7.325807   1.000000
   29       -7.013492   1.000000
   30       -6.510802   1.000000
   31       -6.457693   1.000000
   32       -6.422921   1.000000
   33       -6.097523   1.000000
   34       -5.975177   1.000000
   35       -5.963493   1.000000
   36       -5.733201   1.000000
   37       -5.551611   1.000000
   38       -5.434395   1.000000
   39       -5.394001   1.000000
   40       -5.333912   1.000000
   41       -5.172600   1.000000
   42       -5.146006   1.000000
   43       -5.088883   1.000000
   44       -5.085928   1.000000
   45       -4.912754   1.000000
   46       -4.884883   1.000000
   47       -4.780355   1.000000
   48       -4.692918   1.000000
   49       -4.562480   1.000000
   50       -4.504238   1.000000
   51       -4.460253   1.000000
   52       -4.417511   1.000000
   53       -4.364364   1.000000
   54       -4.339515   1.000000
   55       -4.206769   1.000000
   56       -4.176099   1.000000
   57       -4.134978   1.000000
   58       -4.102665   1.000000
   59       -3.990776   1.000000
   60       -3.970011   1.000000
   61       -3.846690   1.000000
   62       -3.814279   1.000000
   63       -3.692287   1.000000
   64       -3.640719   1.000000
   65       -3.620875   1.000000
   66       -3.425964   1.000000
   67       -3.424630   1.000000
   68       -3.361756   1.000000
   69       -3.322184   1.000000
   70       -3.254325   1.000000
   71       -3.224049   1.000000
   72       -3.183196   1.000000
   73       -2.937451   1.000000
   74       -2.914343   1.000000
   75       -2.900353   1.000000
   76       -2.622373   1.000000
   77       -2.615500   1.000000
   78       -2.485632   1.000000
   79       -2.405372   1.000000
   80       -2.139502   1.000000
   81       -1.889258   1.000000
   82       -1.601975   1.000000
   83       -1.599471   1.000000
   84       -1.417692   1.000000
   85       -1.149202   1.000000
   86       -0.918075   1.000000
   87       -0.909028   1.000000
   88       -0.802121   1.000000
   89       -0.683798   1.000000
   90       -0.664764   1.000000
   91       -0.383443   1.000000
   92       -0.218789   1.000011
   93       -0.070697   1.011813
   94       -0.047879   1.021042
   95        0.164993   0.138452
   96        0.253886  -0.032693
   97        0.275618  -0.023487
   98        0.375831  -0.000757
   99        0.414389  -0.000105
  100        0.628135  -0.000000
  101        0.636806  -0.000000
  102        0.721844  -0.000000
  103        0.722966  -0.000000
  104        0.920465  -0.000000
  105        1.063745  -0.000000
  106        1.071605  -0.000000
  107        1.350755  -0.000000
  108        1.358458  -0.000000
  109        1.447195  -0.000000
  110        1.467939  -0.000000
  111        1.507553  -0.000000
  112        1.562703  -0.000000
  113        1.592695  -0.000000
  114        1.604756  -0.000000
  115        1.612388  -0.000000
  116        1.613696  -0.000000
  117        1.737630  -0.000000
  118        1.760502  -0.000000
  119        1.844548  -0.000000
  120        1.873705  -0.000000
  121        1.962447  -0.000000
  122        1.981469  -0.000000
  123        2.062743  -0.000000
  124        2.122253  -0.000000
  125        2.161447  -0.000000
  126        2.186971  -0.000000
  127        2.204812  -0.000000
  128        2.214690  -0.000000

  0.4444444E+00  0.3870091E-15  0.3932070E-15  0.6734007E-02
    1      -13.492067   1.000000
    2      -13.273449   1.000000
    3      -12.217453   1.000000
    4      -12.039961   1.000000
    5      -11.409985   1.000000
    6      -11.341698   1.000000
    7      -11.035301   1.000000
    8      -11.032040   1.000000
    9      -10.865537   1.000000
   10      -10.741852   1.000000
   11      -10.580698   1.000000
   12      -10.579557   1.000000
   13      -10.091234   1.000000
   14      -10.090280   1.000000
   15       -9.608344   1.000000
   16       -9.607290   1.000000
   17       -9.147912   1.000000
   18       -9.145124   1.000000
   19       -8.816540   1.000000
   20       -8.815740   1.000000
   21       -8.726297   1.000000
   22       -8.579736   1.000000
   23       -8.562171   1.000000
   24       -8.451099   1.000000
   25       -8.336588   1.000000
   26       -8.320069   1.000000
   27       -7.380023   1.000000
   28       -7.160397   1.000000
   29       -7.089225   1.000000
   30       -6.798590   1.000000
   31       -6.451106   1.000000
   32       -6.448232   1.000000
   33       -5.951006   1.000000
   34       -5.946411   1.000000
   35       -5.808234   1.000000
   36       -5.629007   1.000000
   37       -5.572369   1.000000
   38       -5.416863   1.000000
   39       -5.351433   1.000000
   40       -5.350768   1.000000
   41       -5.282651   1.000000
   42       -5.241223   1.000000
   43       -5.109297   1.000000
   44       -5.102981   1.000000
   45       -4.808815   1.000000
   46       -4.795564   1.000000
   47       -4.720171   1.000000
   48       -4.650023   1.000000
   49       -4.608227   1.000000
   50       -4.497559   1.000000
   51       -4.419789   1.000000
   52       -4.410757   1.000000
   53       -4.310780   1.000000
   54       -4.273747   1.000000
   55       -4.254320   1.000000
   56       -4.200587   1.000000
   57       -4.104459   1.000000
   58       -4.069715   1.000000
   59       -3.972911   1.000000
   60       -3.876210   1.000000
   61       -3.863360   1.000000
   62       -3.773237   1.000000
   63       -3.770245   1.000000
   64       -3.669863   1.000000
   65       -3.637107   1.000000
   66       -3.582543   1.000000
   67       -3.419839   1.000000
   68       -3.412150   1.000000
   69       -3.283840   1.000000
   70       -3.260242   1.000000
   71       -3.201460   1.000000
   72       -3.179867   1.000000
   73       -2.907550   1.000000
   74       -2.898825   1.000000
   75       -2.792111   1.000000
   76       -2.727591   1.000000
   77       -2.720987   1.000000
   78       -2.638584   1.000000
   79       -2.318861   1.000000
   80       -2.225890   1.000000
   81       -1.725347   1.000000
   82       -1.686853   1.000000
   83       -1.620685   1.000000
   84       -1.477968   1.000000
   85       -1.006050   1.000000
   86       -0.918013   1.000000
   87       -0.858386   1.000000
   88       -0.788621   1.000000
   89       -0.677916   1.000000
   90       -0.575000   1.000000
   91       -0.499673   1.000000
   92       -0.195275   1.000048
   93       -0.116436   1.002396
   94       -0.074209   1.010659
   95        0.099170   0.644469
   96        0.230424  -0.034187
   97        0.242681  -0.035260
   98        0.340637  -0.003401
   99        0.586533  -0.000000
  100        0.588444  -0.000000
  101        0.667492  -0.000000
  102        0.698874  -0.000000
  103        0.701035  -0.000000
  104        0.855001  -0.000000
  105        1.217000  -0.000000
  106        1.260881  -0.000000
  107        1.341477  -0.000000
  108        1.439110  -0.000000
  109        1.459201  -0.000000
  110        1.528635  -0.000000
  111        1.539027  -0.000000
  112        1.560713  -0.000000
  113        1.566500  -0.000000
  114        1.596187  -0.000000
  115        1.630040  -0.000000
  116        1.639602  -0.000000
  117        1.675541  -0.000000
  118        1.749721  -0.000000
  119        1.768076  -0.000000
  120        1.888534  -0.000000
  121        1.918962  -0.000000
  122        1.957276  -0.000000
  123        2.008176  -0.000000
  124        2.100778  -0.000000
  125        2.106656  -0.000000
  126        2.196096  -0.000000
  127        2.210648  -0.000000
  128        2.244683  -0.000000

  0.3742002E-15  0.9090909E-01  0.3596334E-15  0.6734007E-02
    1      -13.876114   1.000000
    2      -12.555176   1.000000
    3      -12.410186   1.000000
    4      -11.843463   1.000000
    5      -11.609082   1.000000
    6      -11.274247   1.000000
    7      -11.233867   1.000000
    8      -11.098509   1.000000
    9      -11.086546   1.000000
   10      -10.634804   1.000000
   11      -10.602199   1.000000
   12      -10.433161   1.000000
   13      -10.053859   1.000000
   14      -10.043311   1.000000
   15       -9.810762   1.000000
   16       -9.805779   1.000000
   17       -9.257982   1.000000
   18       -9.138550   1.000000
   19       -9.089974   1.000000
   20       -8.753387   1.000000
   21       -8.721632   1.000000
   22       -8.211538   1.000000
   23       -8.185322   1.000000
   24       -8.011521   1.000000
   25       -7.871810   1.000000
   26       -7.821974   1.000000
   27       -7.499728   1.000000
   28       -7.453556   1.000000
   29       -7.153511   1.000000
   30       -6.650429   1.000000
   31       -6.606590   1.000000
   32       -6.513230   1.000000
   33       -6.112734   1.000000
   34       -6.048338   1.000000
   35       -5.975475   1.000000
   36       -5.728026   1.000000
   37       -5.569853   1.000000
   38       -5.550467   1.000000
   39       -5.415316   1.000000
   40       -5.375150   1.000000
   41       -5.330718   1.000000
   42       -5.289322   1.000000
   43       -5.156985   1.000000
   44       -5.044691   1.000000
   45       -4.951582   1.000000
   46       -4.947380   1.000000
   47       -4.826823   1.000000
   48       -4.802317   1.000000
   49       -4.727360   1.000000
   50       -4.629470   1.000000
   51       -4.568275   1.000000
   52       -4.488446   1.000000
   53       -4.462568   1.000000
   54       -4.378250   1.000000
   55       -4.358988   1.000000
   56       -4.226799   1.000000
   57       -4.223537   1.000000
   58       -4.053288   1.000000
   59       -3.966731   1.000000
   60       -3.923697   1.000000
   61       -3.881164   1.000000
   62       -3.827914   1.000000
   63       -3.584577   1.000000
   64       -3.583306   1.000000
   65       -3.433945   1.000000
   66       -3.419889   1.000000
   67       -3.408729   1.000000
   68       -3.339573   1.000000
   69       -3.298870   1.000000
   70       -3.256081   1.000000
   71       -3.211682   1.000000
   72       -3.165813   1.000000
   73       -3.095404   1.000000
   74       -3.089074   1.000000
   75       -2.795879   1.000000
   76       -2.533973   1.000000
   77       -2.262649   1.000000
   78       -2.231738   1.000000
   79       -2.230273   1.000000
   80       -2.147092   1.000000
   81       -1.969849   1.000000
   82       -1.675829   1.000000
   83       -1.494617   1.000000
   84       -1.461739   1.000000
   85       -1.377119   1.000000
   86       -1.130933   1.000000
   87       -1.020272   1.000000
   88       -1.000723   1.000000
   89       -0.905584   1.000000
   90       -0.516497   1.000000
   91       -0.282000   1.000000
   92       -0.142668   1.000760
   93       -0.056326   1.017321
   94       -0.009727   1.035249
   95        0.127265   0.409713
   96        0.162386   0.153496
   97        0.164975   0.138550
   98        0.390743  -0.000367
   99        0.449058  -0.000014
  100        0.557941  -0.000000
  101        0.705969  -0.000000
  102        0.738468  -0.000000
  103        0.787099  -0.000000
  104        0.951148  -0.000000
  105        0.972508  -0.000000
  106        0.997374  -0.000000
  107        1.036781  -0.000000
  108        1.269658  -0.000000
  109        1.374426  -0.000000
  110        1.426178  -0.000000
  111        1.454518  -0.000000
  112        1.482322  -0.000000
  113        1.540006  -0.000000
  114        1.627575  -0.000000
  115        1.645678  -0.000000
  116        1.706824  -0.000000
  117        1.730814  -0.000000
  118        1.777408  -0.000000
  119        1.806713  -0.000000
  120        1.965143  -0.000000
  121        2.016222  -0.000000
  122        2.028296  -0.000000
  123        2.043420  -0.000000
  124        2.073647  -0.000000
  125        2.248521  -0.000000
  126        2.278544  -0.000000
  127        2.299374  -0.000000
  128        2.423369  -0.000000

  0.1111111E+00  0.9090909E-01  0.4822234E-15  0.6734007E-02
    1      -13.827194   1.000000
    2      -12.594613   1.000000
    3      -12.510980   1.000000
    4      -11.770078   1.000000
    5      -11.577872   1.000000
    6      -11.318761   1.000000
    7      -11.181033   1.000000
    8      -11.170204   1.000000
    9      -11.063149   1.000000
   10      -10.642314   1.000000
   11      -10.534521   1.000000
   12      -10.449891   1.000000
   13      -10.105549   1.000000
   14      -10.065454   1.000000
   15       -9.758014   1.000000
   16       -9.757536   1.000000
   17       -9.213239   1.000000
   18       -9.173049   1.000000
   19       -9.062392   1.000000
   20       -8.798345   1.000000
   21       -8.716939   1.000000
   22       -8.300488   1.000000
   23       -8.245442   1.000000
   24       -7.962949   1.000000
   25       -7.887008   1.000000
   26       -7.853978   1.000000
   27       -7.697646   1.000000
   28       -7.460984   1.000000
   29       -7.053579   1.000000
   30       -6.642675   1.000000
   31       -6.500106   1.000000
   32       -6.409960   1.000000
   33       -6.114823   1.000000
   34       -6.006955   1.000000
   35       -5.986385   1.000000
   36       -5.854854   1.000000
   37       -5.620356   1.000000
   38       -5.445409   1.000000
   39       -5.417123   1.000000
   40       -5.365275   1.000000
   41       -5.295814   1.000000
   42       -5.283330   1.000000
   43       -5.079775   1.000000
   44       -5.017001   1.000000
   45       -4.955249   1.000000
   46       -4.944509   1.000000
   47       -4.859994   1.000000
   48       -4.741481   1.000000
   49       -4.695207   1.000000
   50       -4.594369   1.000000
   51       -4.549249   1.000000
   52       -4.464003   1.000000
   53       -4.458618   1.000000
   54       -4.402857   1.000000
   55       -4.338188   1.000000
   56       -4.250049   1.000000
   57       -4.184178   1.000000
   58       -4.094532   1.000000
   59       -3.965581   1.000000
   60       -3.926288   1.000000
   61       -3.880603   1.000000
   62       -3.794832   1.000000
   63       -3.622281   1.000000
   64       -3.603925   1.000000
   65       -3.473597   1.000000
   66       -3.450245   1.000000
   67       -3.390894   1.000000
   68       -3.331640   1.000000
   69       -3.325980   1.000000
   70       -3.223441   1.000000
   71       -3.208876   1.000000
   72       -3.121097   1.000000
   73       -3.116358   1.000000
   74       -3.057551   1.000000
   75       -2.876753   1.000000
   76       -2.504091   1.000000
   77       -2.385617   1.000000
   78       -2.299514   1.000000
   79       -2.213332   1.000000
   80       -2.148038   1.000000
   81       -2.033954   1.000000
   82       -1.575552   1.000000
   83       -1.558369   1.000000
   84       -1.445297   1.000000
   85       -1.376776   1.000000
   86       -1.106075   1.000000
   87       -1.019566   1.000000
   88       -0.911345   1.000000
   89       -0.747771   1.000000
   90       -0.580868   1.000000
   91       -0.348706   1.000000
   92       -0.117400   1.002303
   93       -0.076514   1.009945
   94        0.060524   0.901278
   95        0.061941   0.894247
   96        0.182927   0.053332
   97        0.200569   0.000324
   98        0.287469  -0.018139
   99        0.404199  -0.000183
  100        0.612378  -0.000000
  101        0.669853  -0.000000
  102        0.794919  -0.000000
  103        0.806380  -0.000000
  104        0.895120  -0.000000
  105        0.950247  -0.000000
  106        0.999036  -0.000000
  107        1.189883  -0.000000
  108        1.323988  -0.000000
  109        1.331662  -0.000000
  110        1.393555  -0.000000
  111        1.472269  -0.000000
  112        1.537165  -0.000000
  113        1.590713  -0.000000
  114        1.592050  -0.000000
  115        1.645755  -0.000000
  116        1.657584  -0.000000
  117        1.751246  -0.000000
  118        1.789080  -0.000000
  119        1.804402  -0.000000
  120        1.968284  -0.000000
  121        1.971879  -0.000000
  122        2.020429  -0.000000