ESCALE ; pCOHP file generated by LOBSTER. Energy is shifted such that the Fermi level lies at 0 eV.
        43          1        481  -6.77172e+00   1.72784e+01   9.26168e+00 
Average
No.1:Mo1->Mo1(3.3062236741057678)
No.2:Mo1->Mo1(3.0026041706710656)
No.3:Mo1->Mo1(3.0026041707191213)
No.4:Mo1->Mo1(3.0026041706997382)
No.5:Mo1->Mo1(3.0026041706997382)
No.6:Mo1->Mo1(3.0026041707191213)
No.7:Mo1->Mo1(3.0026041706710656)
No.8:Mo1->Mo1(3.3062236741057678)
No.9:B2->Mo1(2.3954100696111911)
No.10:B2->Mo1(2.3954100523400492)
No.11:B2->Mo1(2.3954100522786934)
No.12:B2->Mo1(2.3954100702086794)
No.13:B2->Mo1(2.3954100529375379)
No.14:B2->Mo1(2.3954100528761817)
No.15:B3->Mo1(2.3954098920397509)
No.16:B3->Mo1(2.395410186980901)
No.17:B3->Mo1(2.3954100952093085)
No.18:B3->Mo1(2.3954098926372391)
No.19:B3->Mo1(2.3954101875783893)
No.20:B3->Mo1(2.3954100958067968)
No.21:B2->B2(3.3062236741057678)
No.22:B2->B2(3.0026041706710656)
No.23:B2->B2(3.0026041707191213)
No.24:B2->B2(3.0026041706997382)
No.25:B2->B2(3.0026041706997382)
No.26:B2->B2(3.0026041707191213)
No.27:B2->B2(3.0026041706710656)
No.28:B2->B2(3.3062236741057678)
No.29:B3->B2(3.4671084150033189)
No.30:B3->B2(1.733554258968347)
No.31:B3->B2(3.4671088226351778)
No.32:B3->B2(1.7335541560739318)
No.33:B3->B2(1.7335545636225447)
No.34:B3->B2(3.4671087196911112)
No.35:B3->B3(3.3062236741057678)
No.36:B3->B3(3.0026041706710656)
No.37:B3->B3(3.0026041707191213)
No.38:B3->B3(3.0026041706997382)
No.39:B3->B3(3.0026041706997382)
No.40:B3->B3(3.0026041707191213)
No.41:B3->B3(3.0026041706710656)
No.42:B3->B3(3.3062236741057678)
-16.03340   0.00000   0.00000   0.00000   0.00000   0.00000   0.00000   0.00000   0.00000   0.00000   0.00000   0.00000   0.00000   0.00000   0.00000   0.00000   0.00000   0.00000   0.00000   0.00000   0.00000   0.00000   0.00000   0.00000   0.00000   0.00000   0.00000   0.00000   0.00000   0.00000   0.00000   0.00000   0.00000   0.00000   0.00000   0.00000   0.00000   0.00000   0.00000   0.00000   0.00000   0.00000   0.00000   0.00000   0.00000   0.00000   0.00000   0.00000   0.00000   0.00000   0.00000   0.00000   0.00000   0.00000   0.00000   0.00000   0.00000   0.00000   0.00000   0.00000   0.00000   0.00000   0.00000   0.00000   0.00000   0.00000   0.00000   0.00000   0.00000   0.00000   0.00000   0.00000   0.00000   0.00000   0.00000   0.00000   0.00000   0.00000   0.00000   0.00000   0.00000   0.00000   0.00000   0.00000   0.00000   0.00000   0.00000
-15.98330   0.00000   0.00000   0.00000   0.00000   0.00000   0.00000   0.00000   0.00000   0.00000   0.00000   0.00000   0.00000   0.00000   0.00000   0.00000   0.00000   0.00000   0.00000   0.00000   0.00000   0.00000   0.00000   0.00000   0.00000   0.00000   0.00000   0.00000   0.00000   0.00000   0.00000   0.00000   0.00000   0.00000   0.00000   0.00000   0.00000   0.00000   0.00000   0.00000   0.00000   0.00000   0.00000   0.00000   0.00000   0.00000   0.00000   0.00000   0.00000   0.00000   0.00000   0.00000   0.00000   0.00000   0.00000   0.00000   0.00000   0.00000   0.00000   0.00000   0.00000   0.00000   0.00000   0.00000   0.00000   0.00000   0.00000   0.00000   0.00000   0.00000   0.00000   0.00000   0.00000   0.00000   0.00000   0.00000   0.00000   0.00000   0.00000   0.00000   0.00000   0.00000   0.00000   0.00000   0.00000   0.00000   0.00000
-15.93319   0.00000   0.00000   0.00000   0.00000   0.00000   0.00000   0.00000   0.00000   0.00000   0.00000   0.00000   0.00000   0.00000   0.00000   0.00000   0.00000   0.00000   0.00000   0.00000   0.00000   0.00000   0.00000   0.00000   0.00000   0.00000   0.00000   0.00000   0.00000   0.00000   0.00000   0.00000   0.00000   0.00000   0.00000   0.00000   0.00000   0.00000   0.00000   0.00000   0.00000   0.00000   0.00000   0.00000   0.00000   0.00000   0.00000   0.00000   0.00000   0.00000   0.00000   0.00000   0.00000   0.00000   0.00000   0.00000   0.00000   0.00000   0.00000   0.00000   0.00000   0.00000   0.00000   0.00000   0.00000   0.00000   0.00000   0.00000   0.00000   0.00000   0.00000   0.00000   0.00000   0.00000   0.00000   0.00000   0.00000   0.00000   0.00000   0.00000   0.00000   0.00000   0.00000   0.00000   0.00000   0.00000   0.00000
-15.88309   0.00000   0.00000   0.00000   0.00000   0.00000   0.00000   0.00000   0.00000   0.00000   0.00000   0.00000   0.00000   0.00000   0.00000   0.00000   0.00000   0.00000   0.00000   0.00000   0.00000   0.00000   0.00000   0.00000   0.00000   0.00000   0.00000   0.00000   0.00000   0.00000   0.00000   0.00000   0.00000   0.00000   0.00000   0.00000   0.00000   0.00000   0.00000   0.00000   0.00000   0.00000   0.00000   0.00000   0.00000   0.00000   0.00000   0.00000   0.00000   0.00000   0.00000   0.00000   0.00000   0.00000   0.00000   0.00000   0.00000   0.00000   0.00000   0.00000   0.00000   0.00000   0.00000   0.00000   0.00000   0.00000   0.00000   0.00000   0.00000   0.00000   0.00000   0.00000   0.00000   0.00000   0.00000   0.00000   0.00000   0.00000   0.00000   0.00000   0.00000   0.00000   0.00000   0.00000   0.00000   0.00000   0.00000
-15.83299   0.00000   0.00000   0.00000   0.00000   0.00000   0.00000   0.00000   0.00000   0.00000   0.00000   0.00000   0.00000   0.00000   0.00000   0.00000   0.00000   0.00000   0.00000   0.00000   0.00000   0.00000   0.00000   0.00000   0.00000   0.00000   0.00000   0.00000   0.00000   0.00000   0.00000   0.00000   0.00000   0.00000   0.00000   0.00000   0.00000   0.00000   0.00000   0.00000   0.00000   0.00000   0.00000   0.00000   0.00000   0.00000   0.00000   0.00000   0.00000   0.00000   0.00000   0.00000   0.00000   0.00000   0.00000   0.00000   0.00000   0.00000   0.00000   0.00000   0.00000   0.00000   0.00000   0.00000   0.00000   0.00000   0.00000   0.00000   0.00000   0.00000   0.00000   0.00000   0.00000   0.00000   0.00000   0.00000   0.00000   0.00000   0.00000   0.00000   0.00000   0.00000   0.00000   0.00000   0.00000   0.00000   0.00000
-15.78288   0.00000   0.00000   0.00000   0.00000   0.00000   0.00000   0.00000   0.00000   0.00000   0.00000   0.00000   0.00000   0.00000   0.00000   0.00000   0.00000   0.00000   0.00000   0.00000   0.00000   0.00000   0.00000   0.00000   0.00000   0.00000   0.00000   0.00000   0.00000   0.00000   0.00000   0.00000   0.00000   0.00000   0.00000   0.00000   0.00000   0.00000   0.00000   0.00000   0.00000   0.00000   0.00000   0.00000   0.00000   0.00000   0.00000   0.00000   0.00000   0.00000   0.00000   0.00000   0.00000   0.00000   0.00000   0.00000   0.00000   0.00000   0.00000   0.00000   0.00000   0.00000   0.00000   0.00000   0.00000   0.00000   0.00000   0.00000   0.00000   0.00000   0.00000   0.00000   0.00000   0.00000   0.00000   0.00000   0.00000   0.00000   0.00000   0.00000   0.00000   0.00000   0.00000   0.00000   0.00000   0.00000   0.00000
-15.73278   0.00000   0.00000   0.00000   0.00000   0.00000   0.00000   0.00000   0.00000   0.00000   0.00000   0.00000   0.00000   0.00000   0.00000   0.00000   0.00000   0.00000   0.00000   0.00000   0.00000   0.00000   0.00000   0.00000   0.00000   0.00000   0.00000   0.00000   0.00000   0.00000   0.00000   0.00000   0.00000   0.00000   0.00000   0.00000   0.00000   0.00000   0.00000   0.00000   0.00000   0.00000   0.00000   0.00000   0.00000   0.00000   0.00000   0.00000   0.00000   0.00000   0.00000   0.00000   0.00000   0.00000   0.00000   0.00000   0.00000   0.00000   0.00000   0.00000   0.00000   0.00000   0.00000   0.00000   0.00000   0.00000   0.00000   0.00000   0.00000   0.00000   0.00000   0.00000   0.00000   0.00000   0.00000   0.00000   0.00000   0.00000   0.00000   0.00000   0.00000   0.00000   0.00000   0.00000   0.00000   0.00000   0.00000
-15.68267   0.00000   0.00000   0.00000   0.00000   0.00000   0.00000   0.00000   0.00000   0.00000   0.00000   0.00000   0.00000   0.00000   0.00000   0.00000   0.00000   0.00000   0.00000   0.00000   0.00000   0.00000   0.00000   0.00000   0.00000   0.00000   0.00000   0.00000   0.00000   0.00000   0.00000   0.00000   0.00000   0.00000   0.00000   0.00000   0.00000   0.00000   0.00000   0.00000   0.00000   0.00000   0.00000   0.00000   0.00000   0.00000   0.00000   0.00000   0.00000   0.00000   0.00000   0.00000   0.00000   0.00000   0.00000   0.00000   0.00000   0.00000   0.00000   0.00000   0.00000   0.00000   0.00000   0.00000   0.00000   0.00000   0.00000   0.00000   0.00000   0.00000   0.00000   0.00000   0.00000   0.00000   0.00000   0.00000   0.00000   0.00000   0.00000   0.00000   0.00000   0.00000   0.00000   0.00000   0.00000   0.00000   0.00000
-15.63257   0.00000   0.00000   0.00000   0.00000   0.00000   0.00000   0.00000   0.00000   0.00000   0.00000   0.00000   0.00000   0.00000   0.00000   0.00000   0.00000   0.00000   0.00000   0.00000   0.00000   0.00000   0.00000   0.00000   0.00000   0.00000   0.00000   0.00000   0.00000   0.00000   0.00000   0.00000   0.00000   0.00000   0.00000   0.00000   0.00000   0.00000   0.00000   0.00000   0.00000   0.00000   0.00000   0.00000   0.00000   0.00000   0.00000   0.00000   0.00000   0.00000   0.00000   0.00000   0.00000   0.00000   0.00000   0.00000   0.00000   0.00000   0.00000   0.00000   0.00000   0.00000   0.00000   0.00000   0.00000   0.00000   0.00000   0.00000   0.00000   0.00000   0.00000   0.00000   0.00000   0.00000   0.00000   0.00000   0.00000   0.00000   0.00000   0.00000   0.00000   0.00000   0.00000   0.00000   0.00000   0.00000   0.00000
-15.58246   0.00000   0.00000   0.00000   0.00000   0.00000   0.00000   0.00000   0.00000   0.00000   0.00000   0.00000   0.00000   0.00000   0.00000   0.00000   0.00000   0.00000   0.00000   0.00000   0.00000   0.00000   0.00000   0.00000   0.00000   0.00000   0.00000   0.00000   0.00000   0.00000   0.00000   0.00000   0.00000   0.00000   0.00000   0.00000   0.00000   0.00000   0.00000   0.00000   0.00000   0.00000   0.00000   0.00000   0.00000   0.00000   0.00000   0.00000   0.00000   0.00000   0.00000   0.00000   0.00000   0.00000   0.00000   0.00000   0.00000   0.00000   0.00000   0.00000   0.00000   0.00000   0.00000   0.00000   0.00000   0.00000   0.00000   0.00000   0.00000   0.00000   0.00000   0.00000   0.00000   0.00000   0.00000   0.00000   0.00000   0.00000   0.00000   0.00000   0.00000   0.00000   0.00000   0.00000   0.00000   0.00000   0.00000
-15.53236   0.00000   0.00000   0.00000   0.00000   0.00000   0.00000   0.00000   0.00000   0.00000   0.00000   0.00000   0.00000   0.00000   0.00000   0.00000   0.00000   0.00000   0.00000   0.00000   0.00000   0.00000   0.00000   0.00000   0.00000   0.00000   0.00000   0.00000   0.00000   0.00000   0.00000   0.00000   0.00000   0.00000   0.00000   0.00000   0.00000   0.00000   0.00000   0.00000   0.00000   0.00000   0.00000   0.00000   0.00000   0.00000   0.00000   0.00000   0.00000   0.00000   0.00000   0.00000   0.00000   0.00000   0.00000   0.00000   0.00000   0.00000   0.00000   0.00000   0.00000   0.00000   0.00000   0.00000   0.00000   0.00000   0.00000   0.00000   0.00000   0.00000   0.00000   0.00000   0.00000   0.00000   0.00000   0.00000   0.00000   0.00000   0.00000   0.00000   0.00000   0.00000   0.00000   0.00000   0.00000   0.00000   0.00000
-15.48225   0.00000   0.00000   0.00000   0.00000   0.00000   0.00000   0.00000   0.00000   0.00000   0.00000   0.00000   0.00000   0.00000   0.00000   0.00000   0.00000   0.00000   0.00000   0.00000   0.00000   0.00000   0.00000   0.00000   0.00000   0.00000   0.00000   0.00000   0.00000   0.00000   0.00000   0.00000   0.00000   0.00000   0.00000   0.00000   0.00000   0.00000   0.00000   0.00000   0.00000   0.00000   0.00000   0.00000   0.00000   0.00000   0.00000   0.00000   0.00000   0.00000   0.00000   0.00000   0.00000   0.00000   0.00000   0.00000   0.00000   0.00000   0.00000   0.00000   0.00000   0.00000   0.00000   0.00000   0.00000   0.00000   0.00000   0.00000   0.00000   0.00000   0.00000   0.00000   0.00000   0.00000   0.00000   0.00000   0.00000   0.00000   0.00000   0.00000   0.00000   0.00000   0.00000   0.00000   0.00000   0.00000   0.00000
-15.43215   0.00000   0.00000   0.00000   0.00000   0.00000   0.00000   0.00000   0.00000   0.00000   0.00000   0.00000   0.00000   0.00000   0.00000   0.00000   0.00000   0.00000   0.00000   0.00000   0.00000   0.00000   0.00000   0.00000   0.00000   0.00000   0.00000   0.00000   0.00000   0.00000   0.00000   0.00000   0.00000   0.00000   0.00000   0.00000   0.00000   0.00000   0.00000   0.00000   0.00000   0.00000   0.00000   0.00000   0.00000   0.00000   0.00000   0.00000   0.00000   0.00000   0.00000   0.00000   0.00000   0.00000   0.00000   0.00000   0.00000   0.00000   0.00000   0.00000   0.00000   0.00000   0.00000   0.00000   0.00000   0.00000   0.00000   0.00000   0.00000   0.00000   0.00000   0.00000   0.00000   0.00000   0.00000   0.00000   0.00000   0.00000   0.00000   0.00000   0.00000   0.00000   0.00000   0.00000   0.00000   0.00000   0.00000
-15.38205   0.00000   0.00000   0.00000   0.00000   0.00000   0.00000   0.00000   0.00000   0.00000   0.00000   0.00000   0.00000   0.00000   0.00000   0.00000   0.00000   0.00000   0.00000   0.00000   0.00000   0.00000   0.00000   0.00000   0.00000   0.00000   0.00000   0.00000   0.00000   0.00000   0.00000   0.00000   0.00000   0.00000   0.00000   0.00000   0.00000   0.00000   0.00000   0.00000   0.00000   0.00000   0.00000   0.00000   0.00000   0.00000   0.00000   0.00000   0.00000   0.00000   0.00000   0.00000   0.00000   0.00000   0.00000   0.00000   0.00000   0.00000   0.00000   0.00000   0.00000   0.00000   0.00000   0.00000   0.00000   0.00000   0.00000   0.00000   0.00000   0.00000   0.00000   0.00000   0.00000   0.00000   0.00000   0.00000   0.00000   0.00000   0.00000   0.00000   0.00000   0.00000   0.00000   0.00000   0.00000   0.00000   0.00000
-15.33194   0.00000   0.00000   0.00000   0.00000   0.00000   0.00000   0.00000   0.00000   0.00000   0.00000   0.00000   0.00000   0.00000   0.00000   0.00000   0.00000   0.00000   0.00000   0.00000   0.00000   0.00000   0.00000   0.00000   0.00000   0.00000   0.00000   0.00000   0.00000   0.00000   0.00000   0.00000   0.00000   0.00000   0.00000   0.00000   0.00000   0.00000   0.00000   0.00000   0.00000   0.00000   0.00000   0.00000   0.00000   0.00000   0.00000   0.00000   0.00000   0.00000   0.00000   0.00000   0.00000   0.00000   0.00000   0.00000   0.00000   0.00000   0.00000   0.00000   0.00000   0.00000   0.00000   0.00000   0.00000   0.00000   0.00000   0.00000   0.00000   0.00000   0.00000   0.00000   0.00000   0.00000   0.00000   0.00000   0.00000   0.00000   0.00000   0.00000   0.00000   0.00000   0.00000   0.00000   0.00000   0.00000   0.00000
-15.28184   0.00000   0.00000   0.00000   0.00000   0.00000   0.00000   0.00000   0.00000   0.00000   0.00000   0.00000   0.00000   0.00000   0.00000   0.00000   0.00000   0.00000   0.00000   0.00000   0.00000   0.00000   0.00000   0.00000   0.00000   0.00000   0.00000   0.00000   0.00000   0.00000   0.00000   0.00000   0.00000   0.00000   0.00000   0.00000   0.00000   0.00000   0.00000   0.00000   0.00000   0.00000   0.00000   0.00000   0.00000   0.00000   0.00000   0.00000   0.00000   0.00000   0.00000   0.00000   0.00000   0.00000   0.00000   0.00000   0.00000   0.00000   0.00000   0.00000   0.00000   0.00000   0.00000   0.00000   0.00000   0.00000   0.00000   0.00000   0.00000   0.00000   0.00000   0.00000   0.00000   0.00000   0.00000   0.00000   0.00000   0.00000   0.00000   0.00000   0.00000   0.00000   0.00000   0.00000   0.00000   0.00000   0.00000
-15.23173   0.00000   0.00000   0.00000   0.00000   0.00000   0.00000   0.00000   0.00000   0.00000   0.00000   0.00000   0.00000   0.00000   0.00000   0.00000   0.00000   0.00000   0.00000   0.00000   0.00000   0.00000   0.00000   0.00000   0.00000   0.00000   0.00000   0.00000   0.00000   0.00000   0.00000   0.00000   0.00000   0.00000   0.00000   0.00000   0.00000   0.00000   0.00000   0.00000   0.00000   0.00000   0.00000   0.00000   0.00000   0.00000   0.00000   0.00000   0.00000   0.00000   0.00000   0.00000   0.00000   0.00000   0.00000   0.00000   0.00000   0.00000   0.00000   0.00000   0.00000   0.00000   0.00000   0.00000   0.00000   0.00000   0.00000   0.00000   0.00000   0.00000   0.00000   0.00000   0.00000   0.00000   0.00000   0.00000   0.00000   0.00000   0.00000   0.00000   0.00000   0.00000   0.00000   0.00000   0.00000   0.00000   0.00000
-15.18163   0.00000   0.00000   0.00000   0.00000   0.00000   0.00000   0.00000   0.00000   0.00000   0.00000   0.00000   0.00000   0.00000   0.00000   0.00000   0.00000   0.00000   0.00000   0.00000   0.00000   0.00000   0.00000   0.00000   0.00000   0.00000   0.00000   0.00000   0.00000   0.00000   0.00000   0.00000   0.00000   0.00000   0.00000   0.00000   0.00000   0.00000   0.00000   0.00000   0.00000   0.00000   0.00000   0.00000   0.00000   0.00000   0.00000   0.00000   0.00000   0.00000   0.00000   0.00000   0.00000   0.00000   0.00000   0.00000   0.00000   0.00000   0.00000   0.00000   0.00000   0.00000   0.00000   0.00000   0.00000   0.00000   0.00000   0.00000   0.00000   0.00000   0.00000   0.00000   0.00000   0.00000   0.00000   0.00000   0.00000   0.00000   0.00000   0.00000   0.00000   0.00000   0.00000   0.00000   0.00000   0.00000   0.00000
-15.13152   0.00000   0.00000   0.00000   0.00000   0.00000   0.00000   0.00000   0.00000   0.00000   0.00000   0.00000   0.00000   0.00000   0.00000   0.00000   0.00000   0.00000   0.00000   0.00000   0.00000   0.00000   0.00000   0.00000   0.00000   0.00000   0.00000   0.00000   0.00000   0.00000   0.00000   0.00000   0.00000   0.00000   0.00000   0.00000   0.00000   0.00000   0.00000   0.00000   0.00000   0.00000   0.00000   0.00000   0.00000   0.00000   0.00000   0.00000   0.00000   0.00000   0.00000   0.00000   0.00000   0.00000   0.00000   0.00000   0.00000   0.00000   0.00000   0.00000   0.00000   0.00000   0.00000   0.00000   0.00000   0.00000   0.00000   0.00000   0.00000   0.00000   0.00000   0.00000   0.00000   0.00000   0.00000   0.00000   0.00000   0.00000   0.00000   0.00000   0.00000   0.00000   0.00000   0.00000   0.00000   0.00000   0.00000
-15.08142   0.00000   0.00000   0.00000   0.00000   0.00000   0.00000   0.00000   0.00000   0.00000   0.00000   0.00000   0.00000   0.00000   0.00000   0.00000   0.00000   0.00000   0.00000   0.00000   0.00000   0.00000   0.00000   0.00000   0.00000   0.00000   0.00000   0.00000   0.00000   0.00000   0.00000   0.00000   0.00000   0.00000   0.00000   0.00000   0.00000   0.00000   0.00000   0.00000   0.00000   0.00000   0.00000   0.00000   0.00000   0.00000   0.00000   0.00000   0.00000   0.00000   0.00000   0.00000   0.00000   0.00000   0.00000   0.00000   0.00000   0.00000   0.00000   0.00000   0.00000   0.00000   0.00000   0.00000   0.00000   0.00000   0.00000   0.00000   0.00000   0.00000   0.00000   0.00000   0.00000   0.00000   0.00000   0.00000   0.00000   0.00000   0.00000   0.00000   0.00000   0.00000   0.00000   0.00000   0.00000   0.00000   0.00000
-15.03132   0.00000   0.00000   0.00000   0.00000   0.00000   0.00000   0.00000   0.00000   0.00000   0.00000   0.00000   0.00000   0.00000   0.00000   0.00000   0.00000   0.00000   0.00000   0.00000   0.00000   0.00000   0.00000   0.00000   0.00000   0.00000   0.00000   0.00000   0.00000   0.00000   0.00000   0.00000   0.00000   0.00000   0.00000   0.00000   0.00000   0.00000   0.00000   0.00000   0.00000   0.00000   0.00000   0.00000   0.00000   0.00000   0.00000   0.00000   0.00000   0.00000   0.00000   0.00000   0.00000   0.00000   0.00000   0.00000   0.00000   0.00000   0.00000   0.00000   0.00000   0.00000   0.00000   0.00000   0.00000   0.00000   0.00000   0.00000   0.00000   0.00000   0.00000   0.00000   0.00000   0.00000   0.00000   0.00000   0.00000   0.00000   0.00000   0.00000   0.00000   0.00000   0.00000   0.00000   0.00000   0.00000   0.00000
-14.98121   0.00000   0.00000   0.00000   0.00000   0.00000   0.00000   0.00000   0.00000   0.00000   0.00000   0.00000   0.00000   0.00000   0.00000   0.00000   0.00000   0.00000   0.00000   0.00000   0.00000   0.00000   0.00000   0.00000   0.00000   0.00000   0.00000   0.00000   0.00000   0.00000   0.00000   0.00000   0.00000   0.00000   0.00000   0.00000   0.00000   0.00000   0.00000   0.00000   0.00000   0.00000   0.00000   0.00000   0.00000   0.00000   0.00000   0.00000   0.00000   0.00000   0.00000   0.00000   0.00000   0.00000   0.00000   0.00000   0.00000   0.00000   0.00000   0.00000   0.00000   0.00000   0.00000   0.00000   0.00000   0.00000   0.00000   0.00000   0.00000   0.00000   0.00000   0.00000   0.00000   0.00000   0.00000   0.00000   0.00000   0.00000   0.00000   0.00000   0.00000   0.00000   0.00000   0.00000   0.00000   0.00000   0.00000
-14.93111  -0.00000  -0.00000  -0.00001  -0.00000  -0.00000  -0.00000  -0.00000  -0.00000  -0.00000  -0.00000  -0.00000  -0.00000  -0.00000  -0.00000  -0.00000  -0.00000  -0.00001  -0.00000  -0.00000  -0.00000  -0.00000  -0.00000  -0.00000  -0.00000  -0.00000  -0.00000  -0.00000  -0.00000  -0.00000  -0.00000  -0.00000  -0.00000  -0.00000  -0.00000  -0.00000  -0.00000  -0.00000  -0.00000  -0.00000  -0.00000  -0.00000  -0.00000   0.00000   0.00000  -0.00000  -0.00000  -0.00000  -0.00000  -0.00000  -0.00000  -0.00000  -0.00000  -0.00000  -0.00000  -0.00000  -0.00000   0.00000   0.00000  -0.00000  -0.00000  -0.00000  -0.00000  -0.00000  -0.00000  -0.00000  -0.00000  -0.00000  -0.00000  -0.00000  -0.00000   0.00000   0.00000  -0.00000  -0.00000  -0.00000  -0.00000  -0.00000  -0.00000  -0.00000  -0.00000  -0.00000  -0.00000  -0.00000  -0.00000   0.00000   0.00000
-14.88100  -0.00299  -0.00015  -0.00767  -0.00038  -0.00418  -0.00021  -0.00418  -0.00021  -0.00418  -0.00021  -0.00418  -0.00021  -0.00418  -0.00021  -0.00418  -0.00021  -0.00767  -0.00038  -0.00458  -0.00023  -0.00460  -0.00023  -0.00458  -0.00023  -0.00460  -0.00023  -0.00458  -0.00023  -0.00459  -0.00023  -0.00460  -0.00023  -0.00458  -0.00023  -0.00460  -0.00023  -0.00459  -0.00023  -0.00460  -0.00023  -0.00458  -0.00023   0.00026   0.00001  -0.00082  -0.00004  -0.00082  -0.00004  -0.00081  -0.00004  -0.00081  -0.00004  -0.00082  -0.00004  -0.00082  -0.00004   0.00026   0.00001  -0.00094  -0.00005  -0.00618  -0.00031  -0.00094  -0.00005  -0.00618  -0.00031  -0.00618  -0.00031  -0.00094  -0.00005   0.00026   0.00001  -0.00082  -0.00004  -0.00081  -0.00004  -0.00082  -0.00004  -0.00082  -0.00004  -0.00081  -0.00004  -0.00082  -0.00004   0.00026   0.00001
-14.83090  -0.01257  -0.00078  -0.03139  -0.00196  -0.01723  -0.00107  -0.01723  -0.00107  -0.01723  -0.00107  -0.01723  -0.00107  -0.01723  -0.00107  -0.01723  -0.00107  -0.03139  -0.00196  -0.01931  -0.00120  -0.01937  -0.00120  -0.01932  -0.00120  -0.01934  -0.00120  -0.01930  -0.00120  -0.01935  -0.00120  -0.01935  -0.00120  -0.01929  -0.00120  -0.01935  -0.00120  -0.01931  -0.00120  -0.01936  -0.00120  -0.01932  -0.00120   0.00105   0.00007  -0.00349  -0.00022  -0.00350  -0.00022  -0.00349  -0.00022  -0.00349  -0.00022  -0.00350  -0.00022  -0.00349  -0.00022   0.00105   0.00007  -0.00400  -0.00025  -0.02666  -0.00165  -0.00400  -0.00025  -0.02665  -0.00165  -0.02666  -0.00165  -0.00400  -0.00025   0.00105   0.00007  -0.00349  -0.00022  -0.00349  -0.00022  -0.00350  -0.00022  -0.00350  -0.00022  -0.00349  -0.00022  -0.00349  -0.00022   0.00105   0.00007
-14.78079  -0.01517  -0.00154  -0.03614  -0.00377  -0.01995  -0.00207  -0.01995  -0.00207  -0.01995  -0.00207  -0.01995  -0.00207  -0.01995  -0.00207  -0.01995  -0.00207  -0.03614  -0.00377  -0.02337  -0.00237  -0.02349  -0.00238  -0.02339  -0.00237  -0.02345  -0.00237  -0.02334  -0.00237  -0.02346  -0.00238  -0.02345  -0.00237  -0.02334  -0.00237  -0.02346  -0.00238  -0.02337  -0.00237  -0.02349  -0.00238  -0.02339  -0.00237   0.00120   0.00013  -0.00438  -0.00044  -0.00438  -0.00044  -0.00437  -0.00043  -0.00437  -0.00043  -0.00438  -0.00044  -0.00438  -0.00044   0.00120   0.00013  -0.00491  -0.00049  -0.03387  -0.00334  -0.00491  -0.00049  -0.03386  -0.00334  -0.03387  -0.00334  -0.00491  -0.00049   0.00120   0.00013  -0.00438  -0.00044  -0.00437  -0.00043  -0.00438  -0.00044  -0.00438  -0.00044  -0.00437  -0.00043  -0.00438  -0.00044   0.00120   0.00013
-14.73069  -0.01951  -0.00252  -0.04488  -0.00602  -0.02501  -0.00333  -0.02502  -0.00333  -0.02502  -0.00333  -0.02502  -0.00333  -0.02502  -0.00333  -0.02501  -0.00333  -0.04488  -0.00602  -0.03014  -0.00388  -0.03025  -0.00389  -0.03015  -0.00388  -0.03021  -0.00389  -0.03011  -0.00388  -0.03022  -0.00389  -0.03021  -0.00389  -0.03011  -0.00387  -0.03022  -0.00389  -0.03014  -0.00388  -0.03025  -0.00389  -0.03015  -0.00388   0.00149   0.00020  -0.00576  -0.00072  -0.00576  -0.00072  -0.00576  -0.00072  -0.00576  -0.00072  -0.00576  -0.00072  -0.00576  -0.00072   0.00149   0.00020  -0.00639  -0.00081  -0.04498  -0.00560  -0.00639  -0.00081  -0.04498  -0.00560  -0.04498  -0.00560  -0.00639  -0.00081   0.00149   0.00020  -0.00576  -0.00072  -0.00576  -0.00072  -0.00576  -0.00072  -0.00576  -0.00072  -0.00576  -0.00072  -0.00576  -0.00072   0.00149   0.00020
-14.68058  -0.02333  -0.00369  -0.05189  -0.00862  -0.02916  -0.00479  -0.02915  -0.00479  -0.02916  -0.00479  -0.02916  -0.00479  -0.02915  -0.00479  -0.02916  -0.00479  -0.05189  -0.00862  -0.03610  -0.00569  -0.03624  -0.00571  -0.03611  -0.00569  -0.03619  -0.00570  -0.03607  -0.00568  -0.03620  -0.00570  -0.03619  -0.00570  -0.03606  -0.00568  -0.03620  -0.00570  -0.03611  -0.00569  -0.03624  -0.00571  -0.03611  -0.00569   0.00172   0.00029  -0.00705  -0.00108  -0.00705  -0.00108  -0.00705  -0.00108  -0.00705  -0.00108  -0.00705  -0.00108  -0.00705  -0.00108   0.00172   0.00029  -0.00772  -0.00120  -0.05548  -0.00838  -0.00772  -0.00120  -0.05548  -0.00838  -0.05548  -0.00838  -0.00772  -0.00120   0.00172   0.00029  -0.00705  -0.00108  -0.00704  -0.00108  -0.00705  -0.00108  -0.00705  -0.00108  -0.00704  -0.00108  -0.00705  -0.00108   0.00172   0.00029
-14.63048  -0.02486  -0.00493  -0.05212  -0.01123  -0.02969  -0.00627  -0.02969  -0.00627  -0.02969  -0.00627  -0.02969  -0.00627  -0.02969  -0.00627  -0.02969  -0.00627  -0.05212  -0.01123  -0.03853  -0.00762  -0.03871  -0.00765  -0.03854  -0.00762  -0.03865  -0.00764  -0.03848  -0.00761  -0.03865  -0.00764  -0.03865  -0.00764  -0.03847  -0.00761  -0.03865  -0.00764  -0.03854  -0.00762  -0.03871  -0.00765  -0.03854  -0.00762   0.00172   0.00037  -0.00780  -0.00147  -0.00780  -0.00147  -0.00780  -0.00147  -0.00780  -0.00147  -0.00780  -0.00147  -0.00780  -0.00147   0.00172   0.00037  -0.00838  -0.00162  -0.06225  -0.01149  -0.00838  -0.00162  -0.06226  -0.01149  -0.06225  -0.01149  -0.00838  -0.00162   0.00172   0.00037  -0.00780  -0.00147  -0.00780  -0.00147  -0.00780  -0.00147  -0.00780  -0.00147  -0.00780  -0.00147  -0.00780  -0.00147   0.00172   0.00037
-14.58038  -0.02686  -0.00628  -0.05358  -0.01391  -0.03091  -0.00782  -0.03091  -0.00782  -0.03091  -0.00782  -0.03091  -0.00782  -0.03091  -0.00782  -0.03091  -0.00782  -0.05358  -0.01391  -0.04166  -0.00971  -0.04187  -0.00975  -0.04166  -0.00971  -0.04180  -0.00973  -0.04160  -0.00969  -0.04180  -0.00973  -0.04180  -0.00973  -0.04159  -0.00969  -0.04180  -0.00973  -0.04167  -0.00971  -0.04187  -0.00975  -0.04167  -0.00971   0.00175   0.00046  -0.00868  -0.00190  -0.00868  -0.00190  -0.00868  -0.00190  -0.00868  -0.00190  -0.00868  -0.00190  -0.00868  -0.00190   0.00175   0.00046  -0.00918  -0.00208  -0.07005  -0.01500  -0.00918  -0.00208  -0.07005  -0.01500  -0.07005  -0.01500  -0.00918  -0.00208   0.00175   0.00046  -0.00868  -0.00190  -0.00868  -0.00190  -0.00868  -0.00190  -0.00868  -0.00190  -0.00868  -0.00190  -0.00868  -0.00190   0.00175   0.00046
-14.53027  -0.02928  -0.00774  -0.05607  -0.01672  -0.03271  -0.00946  -0.03271  -0.00946  -0.03271  -0.00946  -0.03271  -0.00946  -0.03271  -0.00946  -0.03271  -0.00946  -0.05607  -0.01672  -0.04540  -0.01198  -0.04564  -0.01203  -0.04540  -0.01198  -0.04556  -0.01202  -0.04532  -0.01197  -0.04556  -0.01202  -0.04557  -0.01202  -0.04532  -0.01196  -0.04556  -0.01202  -0.04540  -0.01198  -0.04564  -0.01203  -0.04540  -0.01198   0.00181   0.00055  -0.00968  -0.00239  -0.00968  -0.00239  -0.00968  -0.00239  -0.00968  -0.00239  -0.00968  -0.00239  -0.00968  -0.00239   0.00181   0.00055  -0.01011  -0.00259  -0.07870  -0.01895  -0.01011  -0.00259  -0.07871  -0.01895  -0.07870  -0.01895  -0.01011  -0.00259   0.00181   0.00055  -0.00968  -0.00239  -0.00968  -0.00239  -0.00968  -0.00239  -0.00968  -0.00239  -0.00968  -0.00239  -0.00968  -0.00239   0.00181   0.00055
-14.48017  -0.03177  -0.00934  -0.05836  -0.01965  -0.03448  -0.01119  -0.03449  -0.01119  -0.03449  -0.01119  -0.03449  -0.01119  -0.03449  -0.01119  -0.03448  -0.01119  -0.05836  -0.01965  -0.04926  -0.01445  -0.04950  -0.01452  -0.04926  -0.01445  -0.04942  -0.01449  -0.04919  -0.01443  -0.04942  -0.01449  -0.04943  -0.01449  -0.04919  -0.01443  -0.04942  -0.01449  -0.04927  -0.01445  -0.04950  -0.01451  -0.04926  -0.01445   0.00186   0.00064  -0.01073  -0.00293  -0.01073  -0.00293  -0.01074  -0.00293  -0.01074  -0.00293  -0.01073  -0.00293  -0.01073  -0.00293   0.00186   0.00064  -0.01109  -0.00314  -0.08796  -0.02335  -0.01109  -0.00314  -0.08797  -0.02336  -0.08796  -0.02335  -0.01109  -0.00314   0.00186   0.00064  -0.01074  -0.00293  -0.01074  -0.00292  -0.01074  -0.00293  -0.01074  -0.00293  -0.01074  -0.00292  -0.01074  -0.00293   0.00186   0.00064