   3    3    1    1
  2.5814221e+01   3.0026042e-10   3.0026042e-10   3.3062237e-10   5.0000000e-16
            1.000000e-04
  CAR
 DOS and projected DOS file by LOBSTER. Energy is shifted such that the Fermi level lies at 0 eV. 
     17.27838426      -6.77172012   481       9.26168280       1.00000000
-16.03340   0.00000   0.00000
-15.98330   0.00000   0.00000
-15.93319   0.00000   0.00000
-15.88309   0.00000   0.00000
-15.83299   0.00000   0.00000
-15.78288   0.00000   0.00000
-15.73278   0.00000   0.00000
-15.68267   0.00000   0.00000
-15.63257   0.00000   0.00000
-15.58246   0.00000   0.00000
-15.53236   0.00000   0.00000
-15.48225   0.00000   0.00000
-15.43215   0.00000   0.00000
-15.38205   0.00000   0.00000
-15.33194   0.00000   0.00000
-15.28184   0.00000   0.00000
-15.23173   0.00000   0.00000
-15.18163   0.00000   0.00000
-15.13152   0.00000   0.00000
-15.08142   0.00000   0.00000
-15.03132   0.00000   0.00000
-14.98121   0.00000   0.00000
-14.93111   0.00001   0.00000
-14.88100   0.01167   0.00059
-14.83090   0.04936   0.00306
-14.78079   0.06029   0.00608
-14.73069   0.07818   0.01000
-14.68058   0.09423   0.01472
-14.63048   0.10173   0.01982
-14.58038   0.11110   0.02538
-14.53027   0.12205   0.03150
-14.48017   0.13351   0.03819
-14.43006   0.14397   0.04540
-14.37996   0.15127   0.05298
-14.32985   0.15909   0.06095
-14.27975   0.16688   0.06931
-14.22965   0.17624   0.07814
-14.17954   0.18614   0.08747
-14.12944   0.19543   0.09726
-14.07933   0.20416   0.10749
-14.02923   0.21149   0.11809
-13.97912   0.21966   0.12909
-13.92902   0.22837   0.14054
-13.87891   0.23721   0.15242
-13.82881   0.24615   0.16475
-13.77871   0.25532   0.17755
-13.72860   0.26562   0.19085
-13.67850   0.27636   0.20470
-13.62839   0.28630   0.21905
-13.57829   0.29566   0.23386
-13.52818   0.30505   0.24914
-13.47808   0.31568   0.26496
-13.42797   0.32783   0.28139
-13.37787   0.34094   0.29847
-13.32777   0.35439   0.31623
-13.27766   0.36808   0.33467
-13.22756   0.38227   0.35382
-13.17745   0.39884   0.37381
-13.12735   0.41610   0.39465
-13.07724   0.43747   0.41657
-13.02714   0.46347   0.43980
-12.97704   0.49063   0.46438
-12.92693   0.52187   0.49053
-12.87683   0.59835   0.52051
-12.82672   0.61463   0.55130
-12.77662   0.61414   0.58207
-12.72651   0.61835   0.61306
-12.67641   0.62334   0.64429
-12.62630   0.62758   0.67573
-12.57620   0.62807   0.70720
-12.52610   0.63433   0.73898
-12.47599   0.63832   0.77097
-12.42589   0.63808   0.80294
-12.37578   0.64331   0.83517
-12.32568   0.64981   0.86773
-12.27557   0.65454   0.90052
-12.22547   0.65483   0.93333
-12.17537   0.66164   0.96649
-12.12526   0.67129   1.00012
-12.07516   0.68170   1.03428
-12.02505   0.68842   1.06877
-11.97495   0.69181   1.10343
-11.92484   0.70683   1.13885
-11.87474   0.72703   1.17527
-11.82463   0.75084   1.21289
-11.77453   0.77743   1.25185
-11.72443   0.85388   1.29463
-11.67432   0.88724   1.33909
-11.62422   0.84714   1.38153
-11.57411   0.81895   1.42256
-11.52401   0.77998   1.46164
-11.47390   0.75289   1.49937
-11.42380   0.72492   1.53569
-11.37370   0.69161   1.57034
-11.32359   0.66234   1.60353
-11.27349   0.63824   1.63551
-11.22338   0.61587   1.66636
-11.17328   0.60713   1.69678
-11.12317   0.59316   1.72650
-11.07307   0.56912   1.75502
-11.02296   0.52920   1.78153
-10.97286   0.52708   1.80794
-10.92276   0.49922   1.83296
-10.87265   0.42655   1.85433
-10.82255   0.35933   1.87233
-10.77244   0.30808   1.88777
-10.72234   0.28527   1.90206
-10.67223   0.24334   1.91425
-10.62213   0.21960   1.92526
-10.57203   0.19936   1.93525
-10.52192   0.18677   1.94460
-10.47182   0.19355   1.95430
-10.42171   0.24680   1.96667
-10.37161   0.16736   1.97505
-10.32150   0.16870   1.98351
-10.27140   0.19884   1.99347
-10.22129   0.21980   2.00448
-10.17119   0.28488   2.01875
-10.12109   0.34659   2.03612
-10.07098   0.35330   2.05382
-10.02088   0.36905   2.07231
 -9.97077   0.35728   2.09021
 -9.92067   0.37920   2.10921
 -9.87056   0.41307   2.12991
 -9.82046   0.45479   2.15270
 -9.77035   0.51522   2.17851
 -9.72025   0.60059   2.20860
 -9.67015   0.84714   2.25105
 -9.62004   0.69462   2.28585
 -9.56994   0.64304   2.31807
 -9.51983   0.63249   2.34976
 -9.46973   0.62836   2.38125
 -9.41962   0.62925   2.41277
 -9.36952   0.62801   2.44424
 -9.31942   0.62755   2.47568
 -9.26931   0.62648   2.50707
 -9.21921   0.62010   2.53814
 -9.16910   0.61559   2.56899
 -9.11900   0.62828   2.60047
 -9.06889   0.63418   2.63224
 -9.01879   0.63867   2.66424
 -8.96868   0.64771   2.69669
 -8.91858   0.64017   2.72877
 -8.86848   0.63338   2.76050
 -8.81837   0.64184   2.79266
 -8.76827   0.64745   2.82510
 -8.71816   0.61910   2.85612
 -8.66806   0.62021   2.88720
 -8.61795   0.60294   2.91741
 -8.56785   0.59810   2.94737
 -8.51775   0.59362   2.97712
 -8.46764   0.59056   3.00671
 -8.41754   0.58887   3.03621
 -8.36743   0.58867   3.06571
 -8.31733   0.59104   3.09532
 -8.26722   0.59481   3.12512
 -8.21712   0.60045   3.15521
 -8.16701   0.60768   3.18566
 -8.11691   0.61650   3.21655
 -8.06681   0.62601   3.24791
 -8.01670   0.63493   3.27972
 -7.96660   0.63111   3.31135
 -7.91649   0.63543   3.34318
 -7.86639   0.65278   3.37589
 -7.81628   0.67135   3.40953
 -7.76618   0.69142   3.44417
 -7.71608   0.71494   3.47999
 -7.66597   0.75006   3.51757
 -7.61587   0.80244   3.55778
 -7.56576   0.84715   3.60023
 -7.51566   0.90245   3.64544
 -7.46555   0.98511   3.69480
 -7.41545   0.99138   3.74447
 -7.36534   0.87741   3.78843
 -7.31524   0.79819   3.82843
 -7.26514   0.74711   3.86586
 -7.21503   0.70151   3.90101
 -7.16493   0.68503   3.93533
 -7.11482   0.70052   3.97043
 -7.06472   0.72194   4.00660
 -7.01461   0.75704   4.04454
 -6.96451   0.80567   4.08490
 -6.91441   0.91287   4.13064
 -6.86430   1.10952   4.18623
 -6.81420   1.21696   4.24721
 -6.76409   1.27454   4.31107
 -6.71399   1.28849   4.37563
 -6.66388   1.31080   4.44131
 -6.61378   1.37310   4.51010
 -6.56367   1.45093   4.58280
 -6.51357   1.55634   4.66078
 -6.46347   1.46866   4.73437
 -6.41336   1.11273   4.79012
 -6.36326   1.09564   4.84502
 -6.31315   1.12836   4.90155
 -6.26305   1.10370   4.95685
 -6.21294   1.15411   5.01468
 -6.16284   1.20711   5.07516
 -6.11273   1.26248   5.13842
 -6.06263   1.29091   5.20310
 -6.01253   1.33858   5.27016
 -5.96242   1.39323   5.33997
 -5.91232   1.51912   5.41609
 -5.86221   1.57444   5.49497
 -5.81211   1.56546   5.57341
 -5.76200   1.61200   5.65418
 -5.71190   1.72707   5.74071
 -5.66180   1.95016   5.83842
 -5.61169   2.06353   5.94181
 -5.56159   2.18794   6.05144
 -5.51148   2.22946   6.16315
 -5.46138   2.29804   6.27829
 -5.41127   2.45307   6.40120
 -5.36117   2.72330   6.53765
 -5.31106   3.48346   6.71218
 -5.26096   2.83680   6.85432
 -5.21086   2.48826   6.97899
 -5.16075   2.12500   7.08546
 -5.11065   1.89815   7.18057
 -5.06054   1.78001   7.26976
 -5.01044   1.54777   7.34731
 -4.96033   1.41444   7.41818
 -4.91023   1.49033   7.49285
 -4.86013   1.63748   7.57489
 -4.81002   1.73319   7.66173
 -4.75992   1.74676   7.74925
 -4.70981   1.85451   7.84217
 -4.65971   1.89118   7.93693
 -4.60960   1.99679   8.03698
 -4.55950   2.12487   8.14344
 -4.50939   2.29683   8.25852
 -4.45929   2.10995   8.36424
 -4.40919   1.97437   8.46317
 -4.35908   1.90177   8.55845
 -4.30898   1.86730   8.65201
 -4.25887   1.66635   8.73550
 -4.20877   1.54824   8.81308
 -4.15866   1.45676   8.88607
 -4.10856   1.37042   8.95473
 -4.05846   1.28097   9.01891
 -4.00835   1.19177   9.07863
 -3.95825   1.07716   9.13260
 -3.90814   1.02351   9.18388
 -3.85804   0.99287   9.23363
 -3.80793   0.96106   9.28178
 -3.75783   0.92469   9.32811
 -3.70772   0.88924   9.37267
 -3.65762   0.85725   9.41562
 -3.60752   0.82743   9.45708
 -3.55741   0.79978   9.49715
 -3.50731   0.77490   9.53597
 -3.45720   0.74751   9.57343
 -3.40710   0.71839   9.60942
 -3.35699   0.68965   9.64398
 -3.30689   0.65537   9.67681
 -3.25678   0.61718   9.70774
 -3.20668   0.58583   9.73709
 -3.15658   0.55714   9.76500
 -3.10647   0.53287   9.79170
 -3.05637   0.50654   9.81708
 -3.00626   0.45436   9.83985
 -2.95616   0.39846   9.85981
 -2.90605   0.36028   9.87787
 -2.85595   0.33404   9.89460
 -2.80585   0.31122   9.91020
 -2.75574   0.25484   9.92296
 -2.70564   0.21682   9.93383
 -2.65553   0.17746   9.94272
 -2.60543   0.14793   9.95013
 -2.55532   0.13045   9.95667
 -2.50522   0.12386   9.96287
 -2.45511   0.11985   9.96888
 -2.40501   0.11909   9.97485
 -2.35491   0.12395   9.98106
 -2.30480   0.14211   9.98818
 -2.25470   0.21625   9.99901
 -2.20459   0.20988  10.00953
 -2.15449   0.22409  10.02076
 -2.10438   0.32801  10.03719
 -2.05428   0.41847  10.05816
 -2.00418   0.50111  10.08327
 -1.95407   0.54731  10.11069
 -1.90397   0.57019  10.13926
 -1.85386   0.58897  10.16877
 -1.80376   0.59531  10.19859
 -1.75365   0.60503  10.22891
 -1.70355   0.61476  10.25971
 -1.65344   0.62582  10.29107
 -1.60334   0.63675  10.32297
 -1.55324   0.64865  10.35547
 -1.50313   0.66023  10.38855
 -1.45303   0.66917  10.42208
 -1.40292   0.68060  10.45618
 -1.35282   0.69328  10.49092
 -1.30271   0.70851  10.52642
 -1.25261   0.72542  10.56276
 -1.20251   0.74794  10.60024
 -1.15240   0.77074  10.63886
 -1.10230   0.79853  10.67887
 -1.05219   0.84123  10.72102
 -1.00209   0.91269  10.76675
 -0.95198   0.95700  10.81470
 -0.90188   1.00059  10.86483
 -0.85177   1.05108  10.91749
 -0.80167   1.11143  10.97318
 -0.75157   1.19098  11.03285
 -0.70146   1.22862  11.09441
 -0.65136   1.25274  11.15718
 -0.60125   1.26390  11.22051
 -0.55115   1.26155  11.28372
 -0.50104   1.24945  11.34632
 -0.45094   1.24351  11.40863
 -0.40084   1.24822  11.47117
 -0.35073   1.25097  11.53385
 -0.30063   1.25668  11.59681
 -0.25052   1.26552  11.66022
 -0.20042   1.29160  11.72494
 -0.15031   1.33178  11.79166
 -0.10021   1.35746  11.85968
 -0.05010   1.37986  11.92882
  0.00000   1.39530  11.99873
  0.05010   1.43951  12.07085
  0.10021   1.55715  12.14887
  0.15031   1.61256  12.22967
  0.20042   1.58209  12.30894
  0.25052   1.61266  12.38974
  0.30063   1.67198  12.47351
  0.35073   1.71605  12.55949
  0.40084   1.67766  12.64355
  0.45094   1.64263  12.72586
  0.50104   1.65949  12.80900
  0.55115   1.68530  12.89344
  0.60125   1.72771  12.98001
  0.65136   1.74415  13.06740
  0.70146   1.79128  13.15715
  0.75157   1.68757  13.24170
  0.80167   1.63159  13.32345
  0.85177   1.30289  13.38873
  0.90188   1.04938  13.44131
  0.95198   1.07983  13.49542
  1.00209   1.17352  13.55422
  1.05219   1.32865  13.62079
  1.10230   1.54452  13.69817
  1.15240   1.56857  13.77677
  1.20251   1.54929  13.85439
  1.25261   1.55185  13.93215
  1.30271   1.61542  14.01309
  1.35282   1.77012  14.10178
  1.40292   1.99080  14.20153
  1.45303   2.40371  14.32196
  1.50313   2.61985  14.45323
  1.55324   2.63426  14.58522
  1.60334   2.60376  14.71568
  1.65344   2.56332  14.84411
  1.70355   2.51851  14.97030
  1.75365   2.29368  15.08522
  1.80376   2.15237  15.19306
  1.85386   2.01495  15.29402
  1.90397   1.87249  15.38784
  1.95407   1.74162  15.47510
  2.00418   1.58904  15.55472
  2.05428   1.36897  15.62331
  2.10438   1.17245  15.68206
  2.15449   1.10433  15.73739
  2.20459   1.07730  15.79137
  2.25470   1.07262  15.84511
  2.30480   1.08488  15.89947
  2.35491   1.09812  15.95449
  2.40501   1.10365  16.00979
  2.45511   1.11267  16.06554
  2.50522   1.11884  16.12160
  2.55532   1.10065  16.17674
  2.60543   1.07871  16.23079
  2.65553   1.05298  16.28355
  2.70564   1.03841  16.33558
  2.75574   1.02652  16.38701
  2.80585   1.01451  16.43784
  2.85595   1.01098  16.48850
  2.90605   1.01037  16.53912
  2.95616   0.99063  16.58876
  3.00626   0.98456  16.63809
  3.05637   0.98675  16.68753
  3.10647   0.97664  16.73646
  3.15658   0.96610  16.78487
  3.20668   0.95434  16.83269
  3.25678   0.94093  16.87983
  3.30689   0.96175  16.92802
  3.35699   0.87991  16.97211
  3.40710   0.78921  17.01165
  3.45720   0.74770  17.04911
  3.50731   0.73964  17.08617
  3.55741   0.76904  17.12470
  3.60752   0.80116  17.16484
  3.65762   0.80349  17.20510
  3.70772   0.78384  17.24438
  3.75783   0.79105  17.28401
  3.80793   0.93750  17.33098
  3.85804   1.73476  17.41790
  3.90814   1.06155  17.47109
  3.95825   0.86619  17.51449
  4.00835   0.77499  17.55332
  4.05846   0.72414  17.58960
  4.10856   0.65396  17.62237
  4.15866   0.56594  17.65073
  4.20877   0.52371  17.67697
  4.25887   0.43763  17.69889
  4.30898   0.41795  17.71984
  4.35908   0.44305  17.74203
  4.40919   0.45357  17.76476
  4.45929   0.47996  17.78881
  4.50939   0.48606  17.81316
  4.55950   0.50011  17.83822
  4.60960   0.50537  17.86354
  4.65971   0.52731  17.88996
  4.70981   0.55010  17.91752
  4.75992   0.57347  17.94626
  4.81002   0.59621  17.97613
  4.86013   0.62656  18.00752
  4.91023   0.66643  18.04092
  4.96033   0.73275  18.07763
  5.01044   0.80966  18.11820
  5.06054   0.83140  18.15985
  5.11065   0.85820  18.20285
  5.16075   0.86644  18.24627
  5.21086   0.88717  18.29072
  5.26096   0.93824  18.33773
  5.31106   1.01277  18.38847
  5.36117   1.10000  18.44359
  5.41127   1.19027  18.50322
  5.46138   1.21593  18.56415
  5.51148   1.21575  18.62506
  5.56159   1.18126  18.68425
  5.61169   1.17431  18.74309
  5.66180   1.24454  18.80544
  5.71190   1.32233  18.87170
  5.76200   1.36079  18.93988
  5.81211   1.36954  19.00850
  5.86221   1.40530  19.07891
  5.91232   1.44277  19.15120
  5.96242   1.45453  19.22408
  6.01253   1.40804  19.29463
  6.06263   1.39572  19.36456
  6.11273   1.37723  19.43356
  6.16284   1.37485  19.50245
  6.21294   1.32799  19.56899
  6.26305   1.26823  19.63253
  6.31315   1.20065  19.69269
  6.36326   1.15494  19.75056
  6.41336   1.08760  19.80505
  6.46347   1.11169  19.86075
  6.51357   1.18699  19.92022
  6.56367   1.19820  19.98026
  6.61378   1.21903  20.04134
  6.66388   1.25075  20.10401
  6.71399   1.24524  20.16640
  6.76409   1.21725  20.22739
  6.81420   1.16671  20.28585
  6.86430   1.09204  20.34056
  6.91441   1.05839  20.39359
  6.96451   1.05434  20.44642
  7.01461   1.05218  20.49914
  7.06472   1.05076  20.55178
  7.11482   1.03018  20.60340
  7.16493   0.94121  20.65056
  7.21503   0.91967  20.69664
  7.26514   0.87793  20.74063
  7.31524   0.88633  20.78504
  7.36534   0.91583  20.83092
  7.41545   0.95387  20.87872
  7.46555   1.01731  20.92969
  7.51566   1.10332  20.98497
  7.56576   1.22662  21.04643
  7.61587   1.39777  21.11646
  7.66597   1.51373  21.19231
  7.71608   1.61244  21.27310
  7.76618   1.79251  21.36291
  7.81628   1.79624  21.45291
  7.86639   1.58509  21.53233
  7.91649   1.17015  21.59096
  7.96660   1.05818  21.64398
  8.01670   1.01655  21.69491
      8.01670146     -16.03340292   481       9.26168280       1.00000000; Z= 42; 5s 4p_y 4p_z 4p_x 4d_xy 4d_yz 4d_z^2 4d_xz 4d_x^2-y^2 
-16.03340   0.00000   0.00000   0.00000   0.00000   0.00000   0.00000   0.00000   0.00000   0.00000
-15.98330   0.00000   0.00000   0.00000   0.00000   0.00000   0.00000   0.00000   0.00000   0.00000
-15.93319   0.00000   0.00000   0.00000   0.00000   0.00000   0.00000   0.00000   0.00000   0.00000
-15.88309   0.00000   0.00000   0.00000   0.00000   0.00000   0.00000   0.00000   0.00000   0.00000
-15.83299   0.00000   0.00000   0.00000   0.00000   0.00000   0.00000   0.00000   0.00000   0.00000
-15.78288   0.00000   0.00000   0.00000   0.00000   0.00000   0.00000   0.00000   0.00000   0.00000
-15.73278   0.00000   0.00000   0.00000   0.00000   0.00000   0.00000   0.00000   0.00000   0.00000
-15.68267   0.00000   0.00000   0.00000   0.00000   0.00000   0.00000   0.00000   0.00000   0.00000
-15.63257   0.00000   0.00000   0.00000   0.00000   0.00000   0.00000   0.00000   0.00000   0.00000
-15.58246   0.00000   0.00000   0.00000   0.00000   0.00000   0.00000   0.00000   0.00000   0.00000
-15.53236   0.00000   0.00000   0.00000   0.00000   0.00000   0.00000   0.00000   0.00000   0.00000
-15.48225   0.00000   0.00000   0.00000   0.00000   0.00000   0.00000   0.00000   0.00000   0.00000
-15.43215   0.00000   0.00000   0.00000   0.00000   0.00000   0.00000   0.00000   0.00000   0.00000
-15.38205   0.00000   0.00000   0.00000   0.00000   0.00000   0.00000   0.00000   0.00000   0.00000
-15.33194   0.00000   0.00000   0.00000   0.00000   0.00000   0.00000   0.00000   0.00000   0.00000
-15.28184   0.00000   0.00000   0.00000   0.00000   0.00000   0.00000   0.00000   0.00000   0.00000
-15.23173   0.00000   0.00000   0.00000   0.00000   0.00000   0.00000   0.00000   0.00000   0.00000
-15.18163   0.00000   0.00000   0.00000   0.00000   0.00000   0.00000   0.00000   0.00000   0.00000
-15.13152   0.00000   0.00000   0.00000   0.00000   0.00000   0.00000   0.00000   0.00000   0.00000
-15.08142   0.00000   0.00000   0.00000   0.00000   0.00000   0.00000   0.00000   0.00000   0.00000
-15.03132   0.00000   0.00000   0.00000   0.00000   0.00000   0.00000   0.00000   0.00000   0.00000
-14.98121   0.00000   0.00000   0.00000   0.00000   0.00000   0.00000   0.00000   0.00000   0.00000
-14.93111  -0.00000   0.00000  -0.00000   0.00000   0.00000   0.00000   0.00000   0.00000   0.00000
-14.88100  -0.00032   0.00000  -0.00000   0.00000   0.00000   0.00000   0.00015   0.00000   0.00000
-14.83090  -0.00125   0.00000  -0.00000   0.00000   0.00000   0.00000   0.00063   0.00000   0.00000
-14.78079  -0.00131   0.00000  -0.00001   0.00000   0.00000   0.00000   0.00079   0.00000   0.00000
-14.73069  -0.00150   0.00001  -0.00002   0.00001   0.00000   0.00001   0.00102   0.00001   0.00000
-14.68058  -0.00157   0.00001  -0.00002   0.00001   0.00001   0.00002   0.00124   0.00001   0.00001
-14.63048  -0.00127   0.00003  -0.00003   0.00003   0.00001   0.00003   0.00136   0.00003   0.00001
-14.58038  -0.00100   0.00004  -0.00004   0.00004   0.00002   0.00004   0.00150   0.00004   0.00002
-14.53027  -0.00076   0.00005  -0.00005   0.00005   0.00003   0.00005   0.00166   0.00005   0.00003
-14.48017  -0.00047   0.00007  -0.00007   0.00007   0.00004   0.00007   0.00183   0.00007   0.00004
-14.43006  -0.00002   0.00008  -0.00008   0.00008   0.00005   0.00010   0.00198   0.00010   0.00005
-14.37996   0.00056   0.00010  -0.00010   0.00010   0.00006   0.00013   0.00210   0.00013   0.00006
-14.32985   0.00110   0.00012  -0.00012   0.00012   0.00008   0.00016   0.00223   0.00016   0.00008
-14.27975   0.00170   0.00014  -0.00014   0.00014   0.00010   0.00020   0.00236   0.00020   0.00010
-14.22965   0.00236   0.00016  -0.00017   0.00015   0.00011   0.00025   0.00251   0.00025   0.00011
-14.17954   0.00298   0.00017  -0.00020   0.00017   0.00013   0.00031   0.00266   0.00031   0.00013
-14.12944   0.00363   0.00019  -0.00023   0.00019   0.00015   0.00037   0.00280   0.00037   0.00015
-14.07933   0.00431   0.00021  -0.00026   0.00021   0.00018   0.00043   0.00294   0.00043   0.00018
-14.02923   0.00514   0.00023  -0.00030   0.00022   0.00021   0.00052   0.00306   0.00052   0.00021
-13.97912   0.00600   0.00025  -0.00034   0.00024   0.00024   0.00061   0.00320   0.00062   0.00024
-13.92902   0.00682   0.00026  -0.00038   0.00026   0.00027   0.00072   0.00333   0.00073   0.00028
-13.87891   0.00762   0.00028  -0.00043   0.00028   0.00031   0.00084   0.00347   0.00084   0.00031
-13.82881   0.00839   0.00029  -0.00047   0.00029   0.00035   0.00096   0.00361   0.00096   0.00035
-13.77871   0.00915   0.00031  -0.00053   0.00031   0.00038   0.00110   0.00375   0.00110   0.00038
-13.72860   0.00996   0.00032  -0.00059   0.00032   0.00042   0.00128   0.00389   0.00128   0.00042
-13.67850   0.01074   0.00033  -0.00066   0.00033   0.00047   0.00147   0.00403   0.00148   0.00047
-13.62839   0.01154   0.00034  -0.00073   0.00034   0.00051   0.00168   0.00417   0.00169   0.00051
-13.57829   0.01234   0.00035  -0.00081   0.00035   0.00057   0.00191   0.00430   0.00191   0.00057
-13.52818   0.01312   0.00036  -0.00088   0.00036   0.00063   0.00215   0.00444   0.00214   0.00062
-13.47808   0.01389   0.00037  -0.00097   0.00036   0.00068   0.00244   0.00457   0.00243   0.00068
-13.42797   0.01462   0.00037  -0.00107   0.00037   0.00075   0.00278   0.00471   0.00278   0.00075
-13.37787   0.01526   0.00038  -0.00119   0.00037   0.00081   0.00316   0.00485   0.00316   0.00081
-13.32777   0.01585   0.00038  -0.00131   0.00038   0.00087   0.00357   0.00498   0.00357   0.00087
-13.27766   0.01637   0.00038  -0.00144   0.00038   0.00094   0.00402   0.00512   0.00401   0.00094
-13.22756   0.01684   0.00038  -0.00158   0.00038   0.00101   0.00451   0.00525   0.00450   0.00101
-13.17745   0.01730   0.00039  -0.00174   0.00039   0.00108   0.00513   0.00539   0.00512   0.00108
-13.12735   0.01772   0.00039  -0.00191   0.00039   0.00116   0.00583   0.00553   0.00584   0.00116
-13.07724   0.01810   0.00038  -0.00215   0.00038   0.00125   0.00662   0.00566   0.00663   0.00125
-13.02714   0.01836   0.00038  -0.00244   0.00038   0.00134   0.00752   0.00579   0.00753   0.00134
-12.97704   0.01849   0.00038  -0.00274   0.00038   0.00144   0.00857   0.00592   0.00854   0.00143
-12.92693   0.01853   0.00037  -0.00309   0.00037   0.00153   0.00992   0.00605   0.00991   0.00153
-12.87683   0.01854   0.00037  -0.00398   0.00037   0.00164   0.01181   0.00618   0.01183   0.00164
-12.82672   0.01807   0.00036  -0.00410   0.00036   0.00174   0.01396   0.00632   0.01399   0.00174
-12.77662   0.01759   0.00036  -0.00406   0.00036   0.00184   0.01590   0.00645   0.01587   0.00184
-12.72651   0.01710   0.00035  -0.00404   0.00035   0.00195   0.01795   0.00658   0.01793   0.00195
-12.67641   0.01662   0.00035  -0.00399   0.00035   0.00206   0.02010   0.00670   0.02012   0.00206
-12.62630   0.01619   0.00034  -0.00394   0.00034   0.00216   0.02203   0.00682   0.02203   0.00216
-12.57620   0.01576   0.00033  -0.00383   0.00033   0.00227   0.02400   0.00693   0.02398   0.00227
-12.52610   0.01531   0.00032  -0.00381   0.00032   0.00240   0.02601   0.00703   0.02601   0.00240
-12.47599   0.01485   0.00030  -0.00379   0.00030   0.00253   0.02797   0.00713   0.02797   0.00253
-12.42589   0.01437   0.00028  -0.00379   0.00028   0.00267   0.02994   0.00722   0.02993   0.00267
-12.37578   0.01391   0.00025  -0.00385   0.00025   0.00281   0.03196   0.00730   0.03197   0.00281
-12.32568   0.01344   0.00022  -0.00392   0.00022   0.00295   0.03404   0.00738   0.03405   0.00295
-12.27557   0.01297   0.00018  -0.00397   0.00018   0.00309   0.03611   0.00745   0.03611   0.00309
-12.22547   0.01250   0.00014  -0.00397   0.00014   0.00323   0.03814   0.00752   0.03813   0.00323
-12.17537   0.01207   0.00009  -0.00398   0.00009   0.00337   0.04036   0.00759   0.04037   0.00337
-12.12526   0.01163   0.00005  -0.00398   0.00005   0.00351   0.04277   0.00766   0.04278   0.00351
-12.07516   0.01117   0.00001  -0.00395   0.00001   0.00365   0.04532   0.00772   0.04532   0.00365
-12.02505   0.01069  -0.00003  -0.00381  -0.00003   0.00379   0.04788   0.00777   0.04787   0.00379
-11.97495   0.01027  -0.00008  -0.00356  -0.00008   0.00392   0.05051   0.00782   0.05049   0.00392
-11.92484   0.00992  -0.00013  -0.00342  -0.00013   0.00405   0.05398   0.00787   0.05397   0.00405
-11.87474   0.00952  -0.00019  -0.00331  -0.00019   0.00421   0.05799   0.00792   0.05802   0.00421
-11.82463   0.00905  -0.00025  -0.00321  -0.00025   0.00440   0.06262   0.00797   0.06263   0.00440
-11.77453   0.00856  -0.00032  -0.00310  -0.00032   0.00459   0.06773   0.00802   0.06769   0.00459
-11.72443   0.00795  -0.00040  -0.00276  -0.00040   0.00479   0.08282   0.00803   0.08280   0.00479
-11.67432   0.00727  -0.00048  -0.00236  -0.00048   0.00499   0.09063   0.00802   0.09063   0.00499
-11.62422   0.00679  -0.00054  -0.00212  -0.00054   0.00518   0.08464   0.00804   0.08468   0.00518
-11.57411   0.00641  -0.00058  -0.00192  -0.00058   0.00536   0.08058   0.00807   0.08056   0.00536
-11.52401   0.00605  -0.00062  -0.00174  -0.00062   0.00553   0.07461   0.00809   0.07465   0.00552
-11.47390   0.00571  -0.00064  -0.00157  -0.00064   0.00571   0.07072   0.00814   0.07070   0.00571
-11.42380   0.00541  -0.00066  -0.00139  -0.00066   0.00594   0.06672   0.00824   0.06666   0.00593
-11.37370   0.00514  -0.00067  -0.00120  -0.00067   0.00619   0.06173   0.00837   0.06173   0.00619
-11.32359   0.00487  -0.00067  -0.00106  -0.00068   0.00646   0.05724   0.00850   0.05727   0.00646
-11.27349   0.00460  -0.00068  -0.00095  -0.00068   0.00672   0.05373   0.00862   0.05373   0.00672
-11.22338   0.00431  -0.00069  -0.00084  -0.00069   0.00700   0.05054   0.00872   0.05051   0.00700
-11.17328   0.00387  -0.00074  -0.00075  -0.00075   0.00795   0.04774   0.00940   0.04778   0.00795
-11.12317   0.00344  -0.00079  -0.00067  -0.00079   0.00870   0.04461   0.00985   0.04463   0.00870
-11.07307   0.00314  -0.00080  -0.00060  -0.00080   0.00903   0.04088   0.00995   0.04083   0.00904
-11.02296   0.00285  -0.00075  -0.00052  -0.00075   0.00877   0.03698   0.00951   0.03701   0.00876
-10.97286   0.00282  -0.00072  -0.00045  -0.00072   0.01018   0.03366   0.01111   0.03364   0.01019
-10.92276   0.00259  -0.00070  -0.00042  -0.00070   0.00980   0.03128   0.01050   0.03127   0.00981
-10.87265   0.00217  -0.00062  -0.00036  -0.00062   0.00780   0.02802   0.00821   0.02801   0.00779
-10.82255   0.00183  -0.00054  -0.00029  -0.00054   0.00634   0.02438   0.00666   0.02439   0.00633
-10.77244   0.00157  -0.00049  -0.00024  -0.00049   0.00526   0.02149   0.00549   0.02149   0.00526
-10.72234   0.00140  -0.00047  -0.00020  -0.00047   0.00480   0.02045   0.00493   0.02047   0.00479
-10.67223   0.00129  -0.00045  -0.00017  -0.00045   0.00461   0.01524   0.00466   0.01519   0.00461
-10.62213   0.00118  -0.00044  -0.00014  -0.00044   0.00444   0.01267   0.00440   0.01273   0.00444
-10.57203   0.00106  -0.00044  -0.00012  -0.00044   0.00427   0.01072   0.00413   0.01066   0.00428
-10.52192   0.00097  -0.00045  -0.00011  -0.00045   0.00427   0.00913   0.00399   0.00918   0.00427
-10.47182   0.00095  -0.00047  -0.00010  -0.00047   0.00506   0.00795   0.00463   0.00797   0.00508
-10.42171   0.00110  -0.00059  -0.00012  -0.00059   0.00766   0.00725   0.00696   0.00719   0.00765
-10.37161   0.00050  -0.00041  -0.00009  -0.00041   0.00496   0.00590   0.00320   0.00591   0.00495
-10.32150   0.00042  -0.00032  -0.00010  -0.00032   0.00517   0.00548   0.00302   0.00552   0.00517
-10.27140   0.00045  -0.00025  -0.00012  -0.00025   0.00624   0.00550   0.00360   0.00550   0.00623
-10.22129   0.00047  -0.00021  -0.00014  -0.00020   0.00695   0.00521   0.00391   0.00517   0.00696
-10.17119   0.00054  -0.00014  -0.00019  -0.00014   0.00840   0.00974   0.00464   0.00972   0.00840
-10.12109   0.00077  -0.00007  -0.00028  -0.00007   0.01102   0.01153   0.00610   0.01158   0.01101
-10.07098   0.00078  -0.00005  -0.00033  -0.00005   0.01134   0.01216   0.00588   0.01214   0.01134
-10.02088   0.00085  -0.00004  -0.00039  -0.00004   0.01222   0.01315   0.00612   0.01315   0.01223
 -9.97077   0.00092  -0.00005  -0.00046  -0.00006   0.01237   0.01471   0.00604   0.01473   0.01237
 -9.92067   0.00100  -0.00006  -0.00054  -0.00006   0.01331   0.01649   0.00625   0.01650   0.01332
 -9.87056   0.00113  -0.00010  -0.00064  -0.00010   0.01473   0.01876   0.00664   0.01873   0.01471
 -9.82046   0.00129  -0.00015  -0.00076  -0.00015   0.01641   0.02143   0.00715   0.02147   0.01644
 -9.77035   0.00151  -0.00030  -0.00092  -0.00030   0.01899   0.02465   0.00784   0.02464   0.01897
 -9.72025   0.00188  -0.00050  -0.00114  -0.00049   0.02264   0.02914   0.00927   0.02916   0.02261
 -9.67015   0.00273  -0.00117  -0.00159  -0.00117   0.03351   0.03712   0.01508   0.03714   0.03352
 -9.62004   0.00210  -0.00065  -0.00157  -0.00065   0.02738   0.03199   0.01086   0.03197   0.02738
 -9.56994   0.00195  -0.00060  -0.00160  -0.00060   0.02564   0.03064   0.00941   0.03062   0.02564
 -9.51983   0.00191  -0.00058  -0.00165  -0.00058   0.02558   0.03035   0.00896   0.03034   0.02559
 -9.46973   0.00188  -0.00057  -0.00174  -0.00057   0.02563   0.03050   0.00857   0.03050   0.02564
 -9.41962   0.00187  -0.00058  -0.00186  -0.00058   0.02572   0.03097   0.00820   0.03098   0.02573
 -9.36952   0.00181  -0.00058  -0.00201  -0.00058   0.02560   0.03130   0.00775   0.03129   0.02559
 -9.31942   0.00176  -0.00060  -0.00214  -0.00060   0.02553   0.03159   0.00735   0.03159   0.02553
 -9.26931   0.00172  -0.00061  -0.00226  -0.00061   0.02552   0.03174   0.00699   0.03174   0.02553
 -9.21921   0.00168  -0.00064  -0.00234  -0.00064   0.02557   0.03117   0.00667   0.03118   0.02558
 -9.16910   0.00184  -0.00067  -0.00238  -0.00067   0.02573   0.03039   0.00687   0.03038   0.02571
 -9.11900   0.00264  -0.00072  -0.00245  -0.00072   0.02605   0.02995   0.00855   0.02994   0.02604
 -9.06889   0.00300  -0.00077  -0.00254  -0.00077   0.02637   0.02970   0.00905   0.02971   0.02638
 -9.01879   0.00322  -0.00081  -0.00269  -0.00081   0.02658   0.02944   0.00926   0.02945   0.02658
 -8.96868   0.00360  -0.00083  -0.00290  -0.00083   0.02658   0.02937   0.00980   0.02937   0.02657
 -8.91858   0.00400  -0.00081  -0.00290  -0.00081   0.02602   0.02911   0.01034   0.02910   0.02602
 -8.86848   0.00439  -0.00080  -0.00287  -0.00080   0.02561   0.02894   0.01081   0.02894   0.02562
 -8.81837   0.00468  -0.00084  -0.00304  -0.00084   0.02592   0.02891   0.01100   0.02892   0.02593
 -8.76827   0.00495  -0.00088  -0.00316  -0.00088   0.02621   0.02882   0.01115   0.02882   0.02621
 -8.71816   0.00531  -0.00092  -0.00246  -0.00092   0.02640   0.02822   0.01234   0.02822   0.02640
 -8.66806   0.00588  -0.00100  -0.00207  -0.00100   0.02685   0.02741   0.01654   0.02741   0.02684
 -8.61795   0.00625  -0.00100  -0.00187  -0.00099   0.02671   0.02627   0.01716   0.02628   0.02670
 -8.56785   0.00668  -0.00099  -0.00175  -0.00099   0.02664   0.02596   0.01826   0.02596   0.02664
 -8.51775   0.00714  -0.00098  -0.00164  -0.00098   0.02657   0.02583   0.01910   0.02583   0.02656