    3    3    1    1
  0.8604740E+01  0.3002604E-09  0.3002604E-09  0.3306224E-09  0.5000000E-15
   1.0000000000000000E-004
  CAR 
 Name                                    
     12    297     18

  0.3742002E-15  0.3742002E-15  0.3742002E-15  0.2035416E-03
    1       -5.674299   1.000000
    2        4.221182   1.000000
    3        4.629024   1.000000
    4        4.629046   1.000000
    5        5.501194   1.000000
    6        9.334225   0.148237
    7        9.334269   0.013905
    8       11.555439   0.000000
    9       11.555465   0.000000
   10       14.084527   0.000000
   11       14.084552   0.000000
   12       15.023095   0.000000
   13       17.600064   0.000000
   14       17.848400   0.000000
   15       26.640051   0.000000
   16       26.640061   0.000000
   17       28.708571   0.000000
   18       31.091440   0.000000

  0.5882353E-01  0.3706497E-15  0.3742002E-15  0.1221250E-02
    1       -5.604973   1.000000
    2        4.277988   1.000000
    3        4.457861   1.000000
    4        4.659417   1.000000
    5        5.353124   1.000000
    6        9.301739   0.573987
    7        9.546702  -0.009966
    8       11.213036   0.000000
    9       11.281084   0.000000
   10       14.343509   0.000000
   11       14.536073   0.000000
   12       15.266218   0.000000
   13       17.339091   0.000000
   14       17.949622   0.000000
   15       26.773662   0.000000
   16       27.091561   0.000000
   17       28.775698   0.000000
   18       31.155139   0.000000

  0.1176471E+00  0.3767996E-15  0.3742002E-15  0.1221250E-02
    1       -5.399384   1.000000
    2        3.979846   1.000000
    3        4.439553   1.000000
    4        4.739010   1.000000
    5        4.995948   1.000000
    6        9.210094   0.994492
    7       10.078838   0.000000
    8       10.526000   0.000000
    9       10.788178   0.000000
   10       14.777711   0.000000
   11       15.564614   0.000000
   12       15.974284   0.000000
   13       16.719647   0.000000
   14       18.219471   0.000000
   15       27.163012   0.000000
   16       28.273665   0.000000
   17       28.952518   0.000000
   18       31.288073   0.000000

  0.1764706E+00  0.3607731E-15  0.3742002E-15  0.1221250E-02
    1       -5.064423   1.000000
    2        3.307259   1.000000
    3        4.569860   1.000000
    4        4.626635   1.000000
    5        4.836369   1.000000
    6        9.075185   1.000000
    7        9.895713   0.000000
    8       10.389446   0.000000
    9       10.726173   0.000000
   10       15.096062   0.000000
   11       16.055222   0.000000
   12       16.866259   0.000000
   13       17.034323   0.000000
   14       18.539710   0.000000
   15       27.776837   0.000000
   16       29.098293   0.000000
   17       29.787057   0.000000
   18       31.277422   0.000000

  0.2352941E+00  0.3655633E-15  0.3742002E-15  0.1221250E-02
    1       -4.610606   1.000000
    2        2.520296   1.000000
    3        4.161826   1.000000
    4        4.735176   1.000000
    5        4.911843   1.000000
    6        8.918508   1.000000
    7        9.568353   0.000000
    8       10.188644   0.000000
    9       11.265743   0.000000
   10       15.285817   0.000000
   11       15.641012   0.000000
   12       18.256766   0.000000
   13       18.333911   0.000000
   14       18.755444   0.000000
   15       28.563266   0.000000
   16       28.771090   0.000000
   17       30.509422   0.000000
   18       31.121827   0.000000

  0.2941176E+00  0.3668569E-15  0.3742002E-15  0.1221250E-02
    1       -4.051118   1.000000
    2        1.674638   1.000000
    3        3.813715   1.000000
    4        4.676311   1.000000
    5        4.939032   1.000000
    6        8.762472   1.000000
    7        9.680785   0.000000
    8       10.197438   0.000000
    9       11.494337   0.000000
   10       15.388667   0.000000
   11       15.699069   0.000000
   12       18.531611   0.000000
   13       19.682146   0.000000
   14       19.911010   0.000000
   15       27.891196   0.000000
   16       29.378204   0.000000
   17       29.448286   0.000000
   18       29.503051   0.000000

  0.3529412E+00  0.3820644E-15  0.3742002E-15  0.1221250E-02
    1       -3.401589   1.000000
    2        0.803326   1.000000
    3        3.544638   1.000000
    4        4.486924   1.000000
    5        4.921527   1.000000
    6        8.627158   1.000000
    7       10.184917   0.000000
    8       10.359283   0.000000
    9       11.422008   0.000000
   10       15.435543   0.000000
   11       16.185933   0.000000
   12       18.057284   0.000000
   13       20.958805   0.000000
   14       21.532206   0.000000
   15       27.019419   0.000000
   16       27.932863   0.000000
   17       28.195086   0.000000
   18       30.330073   0.000000

  0.4117647E+00  0.3552411E-15  0.3742002E-15  0.1221250E-02
    1       -2.683227   1.000000
    2       -0.066065   1.000000
    3        3.362909   1.000000
    4        4.284774   1.000000
    5        4.885567   1.000000
    6        8.528182   1.000000
    7       10.569239   0.000000
    8       10.869098   0.000000
    9       11.249551   0.000000
   10       15.439691   0.000000
   11       16.803471   0.000000
   12       17.375650   0.000000
   13       22.054601   0.000000
   14       23.063931   0.000000
   15       26.377231   0.000000
   16       26.880392   0.000000
   17       27.092824   0.000000
   18       31.085620   0.000000

  0.4705882E+00  0.3565347E-15  0.3742002E-15  0.1221250E-02
    1       -1.959972   1.000000
    2       -0.865908   1.000000
    3        3.271574   1.000000
    4        4.162715   1.000000
    5        4.859396   1.000000
    6        8.476060   1.000000
    7       10.712492   0.000000
    8       11.131485   0.000000
    9       11.401421   0.000000
   10       15.411872   0.000000
   11       16.851031   0.000000
   12       17.227880   0.000000
   13       22.741760   0.000000
   14       24.153042   0.000000
   15       26.003330   0.000000
   16       26.320974   0.000000
   17       26.445971   0.000000
   18       30.879788   0.000000

  0.5882353E-01  0.5882353E-01  0.3742002E-15  0.1221250E-02
    1       -5.467495   1.000000
    2        4.144303   1.000000
    3        4.375342   1.000000
    4        4.715223   1.000000
    5        5.104264   1.000000
    6        9.225318   0.978242
    7        9.930798   0.000000
    8       10.747932   0.000000
    9       10.884768   0.000000
   10       14.737546   0.000000
   11       15.159946   0.000000
   12       15.770936   0.000000
   13       16.902051   0.000000
   14       18.137742   0.000000
   15       27.025361   0.000000
   16       27.914951   0.000000
   17       28.898498   0.000000
   18       31.253948   0.000000

  0.1176471E+00  0.5882353E-01  0.3742002E-15  0.2442499E-02
    1       -5.197131   1.000000
    2        3.594660   1.000000
    3        4.483124   1.000000
    4        4.726881   1.000000
    5        4.845960   1.000000
    6        9.072736   1.000000
    7       10.111071   0.000000
    8       10.487379   0.000000
    9       10.556459   0.000000
   10       15.145664   0.000000
   11       16.080081   0.000000
   12       16.266933   0.000000
   13       16.784348   0.000000
   14       18.445680   0.000000
   15       27.489047   0.000000
   16       29.070543   0.000000
   17       29.312077   0.000000
   18       31.293150   0.000000

  0.1764706E+00  0.5882353E-01  0.3742002E-15  0.2442499E-02
    1       -4.802420   1.000000
    2        2.891171   1.000000
    3        4.329940   1.000000
    4        4.480886   1.000000
    5        5.064250   1.000000
    6        8.869134   1.000000
    7        9.580666  -0.006006
    8       10.291640   0.000000
    9       11.222075   0.000000
   10       15.387115   0.000000
   11       15.718337   0.000000
   12       17.222372   0.000000
   13       18.108511   0.000000
   14       18.726430   0.000000
   15       28.079822   0.000000
   16       28.990418   0.000000
   17       30.754667   0.000000
   18       31.013047   0.000000

  0.2352941E+00  0.5882353E-01  0.3742002E-15  0.2442499E-02
    1       -4.295036   1.000000
    2        2.098439   1.000000
    3        3.973165   1.000000
    4        4.350521   1.000000
    5        5.263585   1.000000
    6        8.642203   1.000000
    7        9.355343   0.061730
    8       10.340450   0.000000
    9       11.701996   0.000000
   10       15.512908   0.000000
   11       15.522475   0.000000
   12       18.371205   0.000000
   13       18.924906   0.000000
   14       19.581962   0.000000
   15       28.268754   0.000000
   16       28.519169   0.000000
   17       29.943947   0.000000
   18       30.781205   0.000000

  0.2941176E+00  0.5882353E-01  0.3742002E-15  0.2442499E-02
    1       -3.689054   1.000000
    2        1.256464   1.000000
    3        3.684389   1.000000
    4        4.137642   1.000000
    5        5.350110   1.000000
    6        8.421470   1.000000
    7        9.507880  -0.006540
    8       10.595017   0.000000
    9       11.844297   0.000000
   10       15.572458   0.000000
   11       15.819733   0.000000
   12       18.380914   0.000000
   13       19.986177   0.000000
   14       21.104435   0.000000
   15       27.336354   0.000000
   16       28.095441   0.000000
   17       28.479768   0.000000
   18       30.766542   0.000000

  0.3529412E+00  0.5882353E-01  0.3742002E-15  0.2442499E-02
    1       -3.001661   1.000000
    2        0.393585   1.000000
    3        3.475188   1.000000
    4        3.915363   1.000000
    5        5.337297   1.000000
    6        8.236318   1.000000
    7        9.930133  -0.016185
    8       10.952678   0.000000
    9       11.759266   0.000000
   10       15.602148   0.000000
   11       16.428414   0.000000
   12       17.839516   0.000000
   13       21.251654   0.000000
   14       22.565971   0.000000
   15       26.601533   0.000000
   16       27.088199   0.000000
   17       27.254797   0.000000
   18       31.314660   0.000000

  0.4117647E+00  0.5882353E-01  0.3742002E-15  0.2442499E-02
    1       -2.262243   1.000000
    2       -0.454325   1.000000
    3        3.349396   1.000000
    4        3.753225   1.000000
    5        5.295356   1.000000
    6        8.112839   1.000000
    7       10.373675   0.000000
    8       11.275269   0.000000
    9       11.641255   0.000000
   10       15.632316   0.000000
   11       17.005990   0.000000
   12       17.241004   0.000000
   13       22.270756   0.000000
   14       23.730212   0.000000
   15       26.171597   0.000000
   16       26.243653   0.000000
   17       26.449682   0.000000
   18       30.473783   0.000000

  0.4705882E+00  0.5882353E-01  0.3742002E-15  0.1221250E-02
    1       -1.704478   1.000000
    2       -1.048883   1.000000
    3        3.307473   1.000000
    4        3.694514   1.000000
    5        5.275859   1.000000
    6        8.069446   1.000000
    7       10.563795   0.000000
    8       11.410937   0.000000
    9       11.592792   0.000000
   10       15.656219   0.000000
   11       16.964044   0.000000
   12       17.245030   0.000000
   13       22.698518   0.000000
   14       24.166676   0.000000
   15       25.915914   0.000000
   16       26.094076   0.000000
   17       26.158828   0.000000
   18       29.966863   0.000000

  0.1176471E+00  0.1176471E+00  0.3742002E-15  0.1221250E-02
    1       -4.866767   1.000000
    2        3.061422   1.000000
    3        4.337670   1.000000
    4        4.399216   1.000000
    5        5.119736   1.000000
    6        8.797166   1.000000
    7        9.589828  -0.014939
    8       10.340121   0.000000
    9       11.262138   0.000000
   10       15.609099   0.000000
   11       15.744867   0.000000
   12       16.665176   0.000000
   13       18.019888   0.000000
   14       18.732395   0.000000
   15       27.864335   0.000000
   16       29.041376   0.000000
   17       30.844652   0.000000
   18       30.931826   0.000000

  0.1764706E+00  0.1176471E+00  0.3742002E-15  0.2442499E-02
    1       -4.417695   1.000000
    2        2.416759   1.000000
    3        4.042896   1.000000
    4        4.086925   1.000000
    5        5.475505   1.000000
    6        8.440695   1.000000
    7        9.130589   0.541135
    8       10.470672   0.000000
    9       12.002317   0.000000
   10       15.370433   0.000000
   11       15.860129   0.000000
   12       17.560938   0.000000
   13       18.945121   0.000000
   14       19.432284   0.000000
   15       28.019932   0.000000
   16       28.451557   0.000000
   17       30.036740   0.000000
   18       31.586695   0.000000

  0.2352941E+00  0.1176471E+00  0.3742002E-15  0.2442499E-02
    1       -3.861998   1.000000
    2        1.684329   1.000000
    3        3.687054   1.000000
    4        3.828077   1.000000
    5        5.786558   1.000000
    6        8.061006   1.000000
    7        8.933956   1.037856
    8       10.788335   0.000000
    9       12.529185   0.000000
   10       15.382342   0.000000
   11       15.950720   0.000000
   12       18.438787   0.000000
   13       19.177592   0.000000
   14       20.901509   0.000000
   15       27.496503   0.000000
   16       27.570097   0.000000
   17       28.810598   0.000000
   18       31.310497   0.000000

  0.2941176E+00  0.1176471E+00  0.3742002E-15  0.2442499E-02
    1       -3.214264   1.000000
    2        0.886029   1.000000
    3        3.355910   1.000000
    4        3.637086   1.000000
    5        5.941859   1.000000
    6        7.713497   1.000000
    7        9.112657   0.652328
    8       11.128342   0.000000
    9       12.693407   0.000000
   10       15.874550   0.000000
   11       16.001232   0.000000
   12       18.382766   0.000000
   13       20.175698   0.000000
   14       22.295358   0.000000
   15       26.622506   0.000000
   16       26.668990   0.000000
   17       27.582163   0.000000
   18       30.768619   0.000000

  0.3529412E+00  0.1176471E+00  0.3742002E-15  0.2442499E-02
    1       -2.493771   1.000000
    2        0.052915   1.000000
    3        3.109774   1.000000
    4        3.514853   1.000000
    5        5.956917   1.000000
    6        7.448453   1.000000
    7        9.584209   0.015773
    8       11.297656   0.000000
    9       12.658687   0.000000
   10       16.109376   0.000000
   11       16.561274   0.000000
   12       17.961051   0.000000
   13       21.333569   0.000000
   14       23.375547   0.000000
   15       25.643155   0.000000
   16       26.125918   0.000000
   17       26.676390   0.000000
   18       29.893209   0.000000

  0.4117647E+00  0.1176471E+00  0.3742002E-15  0.2442499E-02
    1       -1.751300   1.000000
    2       -0.750409   1.000000
    3        2.980443   1.000000
    4        3.456142   1.000000
    5        5.932691   1.000000
    6        7.305016   1.000000
    7       10.063822   0.000000
    8       11.230065   0.000000
    9       12.606986   0.000000
   10       16.278991   0.000000
   11       17.049858   0.000000
   12       17.580923   0.000000
   13       22.186714   0.000000
   14       23.791193   0.000000
   15       25.015397   0.000000
   16       25.850704   0.000000
   17       26.405720   0.000000
   18       29.123347   0.000000

  0.1764706E+00  0.1764706E+00  0.3742002E-15  0.1221250E-02
    1       -3.919694   1.000000
    2        1.893222   1.000000
    3        3.470298   1.000000
    4        3.890883   1.000000
    5        5.962275   1.000000
    6        7.905635   1.000000
    7        8.706378   1.094307
    8       10.855299   0.000000
    9       12.884034   0.000000
   10       15.137024   0.000000
   11       16.231063   0.000000
   12       18.125133   0.000000
   13       19.102964   0.000000
   14       20.816125   0.000000
   15       27.360462   0.000000
   16       27.536495   0.000000
   17       28.916339   0.000000
   18       31.215369   0.000000

  0.2352941E+00  0.1764706E+00  0.3742002E-15  0.2442499E-02
    1       -3.320473   1.000000
    2        1.290315   1.000000
    3        2.912578   1.000000
    4        3.762820   1.000000
    5        6.407967   1.000000
    6        7.365557   1.000000
    7        8.512263   1.016072
    8       11.224518   0.000000
    9       13.566459   0.000000
   10       15.250144   0.000000
   11       16.428671   0.000000
   12       18.755879   0.000000
   13       19.369296   0.000000
   14       22.115221   0.000000
   15       26.286739   0.000000
   16       26.636184   0.000000
   17       27.809644   0.000000
   18       30.493168   0.000000

  0.2941176E+00  0.1764706E+00  0.3742002E-15  0.2442499E-02
    1       -2.635183   1.000000
    2        0.579807   1.000000
    3        2.490625   1.000000
    4        3.700623   1.000000
    5        6.633614   1.000000
    6        6.902017   1.000000
    7        8.735425   1.071312
    8       11.340524   0.000000
    9       13.776285   0.000000
   10       15.884660   0.000000
   11       16.653380   0.000000
   12       18.745475   0.000000
   13       20.305739   0.000000
   14       23.083117   0.000000
   15       25.129197   0.000000
   16       25.905772   0.000000
   17       26.955390   0.000000
   18       29.510481   0.000000

  0.3529412E+00  0.1764706E+00  0.3742002E-15  0.2442499E-02
    1       -1.886095   1.000000
    2       -0.207632   1.000000
    3        2.244036   1.000000
    4        3.683672   1.000000
    5        6.585486   1.000000
    6        6.657129   1.000000
    7        9.280793   0.426575
    8       11.109364   0.000000
    9       13.769360   0.000000
   10       16.605886   0.000000
   11       16.998694   0.000000
   12       18.525724   0.000000
   13       21.309300   0.000000
   14       23.417608   0.000000
   15       24.192954   0.000000
   16       25.330727   0.000000
   17       26.698927   0.000000
   18       28.640573   0.000000

  0.4117647E+00  0.1764706E+00  0.3742002E-15  0.1221250E-02
    1       -1.245875   1.000000
    2       -0.865598   1.000000
    3        2.164174   1.000000
    4        3.682841   1.000000
    5        6.472172   1.000000
    6        6.644307   1.000000
    7        9.652982  -0.077673
    8       10.852375   0.000000
    9       13.753023   0.000000
   10       16.920610   0.000000
   11       17.216306   0.000000
   12       18.377822   0.000000
   13       21.807070   0.000000
   14       23.371561   0.000000
   15       23.815790   0.000000
   16       25.053278   0.000000
   17       26.787978   0.000000
   18       28.257642   0.000000

  0.2352941E+00  0.2352941E+00  0.3742002E-15  0.1221250E-02
    1       -2.682537   1.000000
    2        0.878574   1.000000
    3        2.159909   1.000000
    4        3.788345   1.000000
    5        6.687449   1.000000
    6        7.057508   1.000000
    7        8.241289   1.000000
    8       11.357531   0.000000
    9       14.601021   0.000000
   10       15.220014   0.000000
   11       16.933874   0.000000
   12       19.435898   0.000000
   13       19.488165   0.000000
   14       22.942369   0.000000
   15       24.936569   0.000000
   16       25.799834   0.000000
   17       27.081144   0.000000
   18       29.370188   0.000000

  0.2941176E+00  0.2352941E+00  0.3742002E-15  0.2442499E-02
    1       -1.964516   1.000000
    2        0.335485   1.000000
    3        1.610513   1.000000
    4        3.886253   1.000000
    5        6.121644   1.000000
    6        7.417280   1.000000
    7        8.438329   1.022598
    8       11.059529   0.000000
    9       14.903359   0.000000
   10       15.881491   0.000000
   11       17.567790   0.000000
   12       19.494759   0.000000
   13       20.372134   0.000000
   14       23.079743   0.000000
   15       23.716691   0.000000
   16       24.939778   0.000000
   17       26.903197   0.000000
   18       28.412183   0.000000

  0.3529412E+00  0.2352941E+00  0.3742002E-15  0.2442499E-02
    1       -1.193371   1.000000
    2       -0.382854   1.000000
    3        1.364120   1.000000
    4        3.988795   1.000000
    5        5.776224   1.000000
    6        7.423449   1.000000
    7        9.032804   0.953997
    8       10.534931   0.000000
    9       14.885227   0.000000
   10       16.560152   0.000000
   11       18.135651   0.000000
   12       19.463131   0.000000
   13       21.117188   0.000000
   14       22.917878   0.000000
   15       22.920860   0.000000
   16       24.120332   0.000000
   17       27.076942   0.000000
   18       27.883510   0.000000

  0.2941176E+00  0.2941176E+00  0.3742002E-15  0.1221250E-02
    1       -1.223548   1.000000
    2        0.083379   1.000000
    3        0.838276   1.000000
    4        4.179997   1.000000
    5        5.451541   1.000000
    6        8.231464   1.000000
    7        8.258179   1.000000
    8       10.431746   0.000000
    9       15.720702   0.000000
   10       16.019254   0.000000
   11       18.616028   0.000000
   12       20.287012   0.000000
   13       20.507394   0.000000
   14       22.543851   0.000000
   15       22.582767   0.000000
   16       23.746378   0.000000
   17       27.189226   0.000000
   18       27.776115   0.000000

  0.3529412E+00  0.2941176E+00  0.3742002E-15  0.1221250E-02
    1       -0.492591   1.000000
    2       -0.439422   1.000000
    3        0.533957   1.000000
    4        4.414038   1.000000
    5        5.089119   1.000000
    6        8.186437   1.000000
    7        8.760937   1.000000
    8        9.954055   0.000000
    9       15.793284   0.000000
   10       16.359569   0.000000
   11       19.248138   0.000000
   12       20.204424   0.000000
   13       21.018711   0.000000
   14       22.109075   0.000000
   15       22.506142   0.000000
   16       22.758555   0.000000
   17       27.340583   0.000000
   18       27.582031   0.000000

  0.3742002E-15  0.3742002E-15  0.5882353E-01  0.4070832E-03
    1       -5.626030   1.000000
    2        3.972380   1.000000
    3        4.667840   1.000000
    4        4.667862   1.000000
    5        5.707936   1.000000
    6        9.194510   0.978786
    7        9.194551   0.512685
    8       11.451288   0.000000
    9       11.451315   0.000000
   10       14.305538   0.000000
   11       14.305560   0.000000
   12       15.004177   0.000000
   13       17.614825   0.000000
   14       17.998094   0.000000
   15       26.790521   0.000000
   16       26.790544   0.000000
   17       28.348212   0.000000
   18       31.138668   0.000000

  0.5882353E-01  0.3706497E-15  0.5882353E-01  0.2442499E-02
    1       -5.557302   1.000000
    2        4.016224   1.000000
    3        4.491654   1.000000
    4        4.695171   1.000000
    5        5.568824   1.000000
    6        9.146521   1.032833
    7        9.388282   0.090616
    8       11.189348   0.000000
    9       11.256228   0.000000
   10       14.497773   0.000000
   11       14.695854   0.000000
   12       15.240883   0.000000
   13       17.382852   0.000000
   14       18.100884   0.000000
   15       26.917883   0.000000
   16       27.215867   0.000000
   17       28.427256   0.000000
   18       31.207959   0.000000

  0.1176471E+00  0.3767996E-15  0.5882353E-01  0.2442499E-02
    1       -5.353552   1.000000
    2        4.006308   1.000000
    3        4.115999   1.000000
    4        4.764519   1.000000
    5        5.265963   1.000000
    6        9.023336   1.007020
    7        9.759300  -0.022435
    8       10.750265   0.000000
    9       10.885568   0.000000
   10       14.822905   0.000000
   11       15.642775   0.000000
   12       15.881251   0.000000
   13       16.885310   0.000000
   14       18.372883   0.000000
   15       27.285231   0.000000
   16       28.325819   0.000000
   17       28.647006   0.000000
   18       31.344350   0.000000

  0.1764706E+00  0.3607731E-15  0.5882353E-01  0.2442499E-02
    1       -5.021722   1.000000
    2        3.313141   1.000000
    3        4.160789   1.000000
    4        4.841735   1.000000
    5        4.993805   1.000000
    6        8.881978   1.000000
    7        9.678723  -0.003044
    8       10.566298   0.000000
    9       10.902580   0.000000
   10       15.026929   0.000000
   11       16.081224   0.000000
   12       16.890054   0.000000
   13       17.160057   0.000000
   14       18.695326   0.000000
   15       27.842621   0.000000
   16       28.897407   0.000000
   17       29.694577   0.000000
   18       31.178003   0.000000

  0.2352941E+00  0.3655633E-15  0.5882353E-01  0.2442499E-02
    1       -4.572361   1.000000
    2        2.507819   1.000000
    3        4.027924   1.000000
    4        4.848335   1.000000
    5        4.886080   1.000000
    6        8.782042   1.000000
    7        9.469090  -0.001442
    8       10.372671   0.000000
    9       11.343049   0.000000
   10       15.123812   0.000000
   11       15.807392   0.000000
   12       18.313510   0.000000
   13       18.323020   0.000000
   14       18.915735   0.000000
   15       28.454534   0.000000
   16       28.682503   0.000000
   17       30.041036   0.000000
   18       31.232415   0.000000

  0.2941176E+00  0.3668569E-15  0.5882353E-01  0.2442499E-02
    1       -4.018486   1.000000
    2        1.649937   1.000000
    3        3.797213   1.000000
    4        4.703734   1.000000
    5        4.876278   1.000000
    6        8.735604   1.000000
    7        9.597239  -0.001277
    8       10.329694   0.000000
    9       11.544169   0.000000
   10       15.378793   0.000000
   11       15.697470   0.000000
   12       18.708854   0.000000
   13       19.730886   0.000000
   14       19.878209   0.000000
   15       27.670767   0.000000
   16       28.521626   0.000000
   17       29.345925   0.000000
   18       30.425565   0.000000

  0.3529412E+00  0.3820644E-15  0.5882353E-01  0.2442499E-02
    1       -3.375100   1.000000
    2        0.772645   1.000000
    3        3.584614   1.000000
    4        4.493052   1.000000
    5        4.824950   1.000000
    6        8.709876   1.000000
    7       10.041544   0.000000
    8       10.428788   0.000000
    9       11.516999   0.000000
   10       15.576113   0.000000
   11       15.958422   0.000000
   12       18.311909   0.000000
   13       20.982928   0.000000
   14       21.486388   0.000000
   15       26.653747   0.000000
   16       27.551924   0.000000
   17       28.326661   0.000000
   18       30.780758   0.000000

  0.4117647E+00  0.3552411E-15  0.5882353E-01  0.2442499E-02
    1       -2.661142   1.000000
    2       -0.099281   1.000000
    3        3.433309   1.000000
    4        4.288085   1.000000
    5        4.765041   1.000000
    6        8.684194   1.000000
    7       10.501345   0.000000
    8       10.597142   0.000000
    9       11.571582   0.000000
   10       15.440007   0.000000
   11       16.534045   0.000000
   12       17.790456   0.000000
   13       22.027084   0.000000
   14       23.013815   0.000000
   15       25.998461   0.000000
   16       26.607653   0.000000
   17       27.321363   0.000000
   18       31.008696   0.000000

  0.4705882E+00  0.3565347E-15  0.5882353E-01  0.2442499E-02
    1       -1.927712   1.000000
    2       -0.912326   1.000000
    3        3.356045   1.000000
    4        4.166333   1.000000
    5        4.726828   1.000000
    6        8.665925   1.000000
    7       10.654529   0.000000
    8       10.722187   0.000000
    9       11.851744   0.000000
   10       15.255344   0.000000
   11       16.800783   0.000000
   12       17.549653   0.000000
   13       22.612142   0.000000
   14       24.108147   0.000000
   15       25.883705   0.000000
   16       26.078815   0.000000
   17       26.519341   0.000000
   18       30.366306   0.000000

  0.5882353E-01  0.5882353E-01  0.5882353E-01  0.2442499E-02
    1       -5.421041   1.000000
    2        4.088542   1.000000
    3        4.175615   1.000000
    4        4.715786   1.000000
    5        5.366762   1.000000
    6        9.026925   1.020231
    7        9.719791  -0.038261
    8       10.815659   0.000000
    9       10.996686   0.000000
   10       14.826378   0.000000
   11       15.240576   0.000000
   12       15.703026   0.000000
   13       17.033825   0.000000
   14       18.285440   0.000000
   15       27.153881   0.000000
   16       27.993189   0.000000
   17       28.577073   0.000000
   18       31.316411   0.000000

  0.1176471E+00  0.5882353E-01  0.5882353E-01  0.4884999E-02
    1       -5.153171   1.000000
    2        3.615509   1.000000
    3        4.162920   1.000000
    4        4.658637   1.000000
    5        5.203137   1.000000
    6        8.806766   1.000000
    7        9.978216   0.000000
    8       10.443598   0.000000
    9       10.890531   0.000000
   10       15.155700   0.000000
   11       16.004340   0.000000
   12       16.203597   0.000000
   13       17.068164   0.000000
   14       18.581186   0.000000
   15       27.571035   0.000000
   16       28.821149   0.000000
   17       29.297921   0.000000
   18       31.338436   0.000000

  0.1764706E+00  0.5882353E-01  0.5882353E-01  0.4884999E-02
    1       -4.762282   1.000000
    2        2.893884   1.000000
    3        4.101661   1.000000
    4        4.509445   1.000000
    5        5.232230   1.000000
    6        8.572545   1.000000
    7        9.712646  -0.007115
    8       10.345672   0.000000
    9       11.307227   0.000000
   10       15.241448   0.000000
   11       15.850385   0.000000
   12       17.243645   0.000000
   13       18.207477   0.000000
   14       18.851112   0.000000
   15       28.013232   0.000000
   16       28.911613   0.000000
   17       30.485751   0.000000
   18       30.948012   0.000000

  0.2352941E+00  0.5882353E-01  0.5882353E-01  0.4884999E-02
    1       -4.260013   1.000000
    2        2.084080   1.000000
    3        3.895841   1.000000
    4        4.343150   1.000000
    5        5.309694   1.000000
    6        8.420709   1.000000