  COHP#       atomMU       atomNU     distance     translation      ICOHP (at) eF   for spin  1
      1          Mo1          Mo1      3.30622       0   0  -1           -0.24066 
      2          Mo1          Mo1      3.00260      -1  -1   0           -0.62849 
      3          Mo1          Mo1      3.00260       0  -1   0           -0.62838 
      4          Mo1          Mo1      3.00260      -1   0   0           -0.62832 
      5          Mo1          Mo1      3.00260       1   0   0           -0.62832 
      6          Mo1          Mo1      3.00260       0   1   0           -0.62838 
      7          Mo1          Mo1      3.00260       1   1   0           -0.62849 
      8          Mo1          Mo1      3.30622       0   0   1           -0.24066 
      9           B2          Mo1      2.39541       0   0   0           -1.59251 
     10           B2          Mo1      2.39541       0   1   0           -1.59276 
     11           B2          Mo1      2.39541       1   1   0           -1.59234 
     12           B2          Mo1      2.39541       0   0   1           -1.59255 
     13           B2          Mo1      2.39541       0   1   1           -1.59242 
     14           B2          Mo1      2.39541       1   1   1           -1.59263 
     15           B3          Mo1      2.39541       0   0   0           -1.59261 
     16           B3          Mo1      2.39541       1   0   0           -1.59237 
     17           B3          Mo1      2.39541       1   1   0           -1.59266 
     18           B3          Mo1      2.39541       0   0   1           -1.59247 
     19           B3          Mo1      2.39541       1   0   1           -1.59271 
     20           B3          Mo1      2.39541       1   1   1           -1.59242 
     21           B2           B2      3.30622       0   0  -1           -0.07258 
     22           B2           B2      3.00260      -1  -1   0           -0.07708 
     23           B2           B2      3.00260       0  -1   0           -0.07705 
     24           B2           B2      3.00260      -1   0   0           -0.07705 
     25           B2           B2      3.00260       1   0   0           -0.07705 
     26           B2           B2      3.00260       0   1   0           -0.07705 
     27           B2           B2      3.00260       1   1   0           -0.07708 
     28           B2           B2      3.30622       0   0   1           -0.07258 
     29           B3           B2      3.46711      -1  -1   0            0.00680 
     30           B3           B2      1.73355       0  -1   0           -6.88537 
     31           B3           B2      3.46711       1  -1   0            0.00679 
     32           B3           B2      1.73355       0   0   0           -6.88551 
     33           B3           B2      1.73355       1   0   0           -6.88545 
     34           B3           B2      3.46711       1   1   0            0.00680 
     35           B3           B3      3.30622       0   0  -1           -0.07257 
     36           B3           B3      3.00260      -1  -1   0           -0.07708 
     37           B3           B3      3.00260       0  -1   0           -0.07705 
     38           B3           B3      3.00260      -1   0   0           -0.07705 
     39           B3           B3      3.00260       1   0   0           -0.07705 
     40           B3           B3      3.00260       0   1   0           -0.07705 
     41           B3           B3      3.00260       1   1   0           -0.07708 
     42           B3           B3      3.30622       0   0   1           -0.07257 
