   49   49   85    1
  0.2411350E+02  0.8645320E-09  0.6085000E-09  0.2593596E-08  0.5000000E-15
   1.0000000000000000E-004
  CAR 
 Name                                    
    189    149    120

  0.3742002E-15  0.3742002E-15  0.3742002E-15  0.3367003E-02
    1      -14.093958   1.000000
    2      -12.735373   1.000000
    3      -12.601565   1.000000
    4      -12.078041   1.000000
    5      -11.661763   1.000000
    6      -11.292372   1.000000
    7      -11.282399   1.000000
    8      -11.247543   1.000000
    9      -11.134141   1.000000
   10      -10.831360   1.000000
   11      -10.817672   1.000000
   12      -10.407553   1.000000
   13      -10.320538   1.000000
   14      -10.258969   1.000000
   15       -9.898193   1.000000
   16       -9.859403   1.000000
   17       -9.077786   1.000000
   18       -9.061283   1.000000
   19       -9.016296   1.000000
   20       -8.738930   1.000000
   21       -8.645585   1.000000
   22       -8.613661   1.000000
   23       -8.321796   1.000000
   24       -8.244391   1.000000
   25       -8.126284   1.000000
   26       -8.115178   1.000000
   27       -7.464062   1.000000
   28       -7.360564   1.000000
   29       -6.880590   1.000000
   30       -6.683470   1.000000
   31       -6.645125   1.000000
   32       -6.312478   1.000000
   33       -6.185471   1.000000
   34       -6.103880   1.000000
   35       -5.831823   1.000000
   36       -5.750081   1.000000
   37       -5.654471   1.000000
   38       -5.630749   1.000000
   39       -5.419817   1.000000
   40       -5.323074   1.000000
   41       -5.300763   1.000000
   42       -5.250659   1.000000
   43       -5.214542   1.000000
   44       -5.026836   1.000000
   45       -4.985650   1.000000
   46       -4.915304   1.000000
   47       -4.888457   1.000000
   48       -4.776022   1.000000
   49       -4.721590   1.000000
   50       -4.694065   1.000000
   51       -4.613534   1.000000
   52       -4.572396   1.000000
   53       -4.520369   1.000000
   54       -4.497471   1.000000
   55       -4.314296   1.000000
   56       -4.214183   1.000000
   57       -4.173555   1.000000
   58       -4.165800   1.000000
   59       -4.054954   1.000000
   60       -3.920387   1.000000
   61       -3.716664   1.000000
   62       -3.602590   1.000000
   63       -3.579343   1.000000
   64       -3.561085   1.000000
   65       -3.524298   1.000000
   66       -3.505061   1.000000
   67       -3.400692   1.000000
   68       -3.378340   1.000000
   69       -3.272499   1.000000
   70       -3.253499   1.000000
   71       -3.139084   1.000000
   72       -2.877820   1.000000
   73       -2.871075   1.000000
   74       -2.637578   1.000000
   75       -2.542480   1.000000
   76       -2.472738   1.000000
   77       -2.410465   1.000000
   78       -2.313300   1.000000
   79       -2.235294   1.000000
   80       -2.119697   1.000000
   81       -1.900590   1.000000
   82       -1.694734   1.000000
   83       -1.395024   1.000000
   84       -1.374641   1.000000
   85       -1.261239   1.000000
   86       -1.183894   1.000000
   87       -1.096983   1.000000
   88       -1.064319   1.000000
   89       -0.883652   1.000000
   90       -0.513833   1.000000
   91       -0.369371   1.000121
   92       -0.185074   1.033133
   93       -0.099189   0.705883
   94       -0.044733   0.263722
   95        0.061923  -0.033154
   96        0.084181  -0.023910
   97        0.104053  -0.015193
   98        0.434347  -0.000000
   99        0.453133  -0.000000
  100        0.477727  -0.000000
  101        0.555677  -0.000000
  102        0.644967  -0.000000
  103        0.665492  -0.000000
  104        0.706967  -0.000000
  105        0.775130  -0.000000
  106        1.119711  -0.000000
  107        1.130437  -0.000000
  108        1.167948  -0.000000
  109        1.195030  -0.000000
  110        1.279326  -0.000000
  111        1.296401  -0.000000
  112        1.335513  -0.000000
  113        1.384351  -0.000000
  114        1.485062  -0.000000
  115        1.515550  -0.000000
  116        1.601194  -0.000000
  117        1.612876  -0.000000
  118        1.748327  -0.000000
  119        1.767064  -0.000000
  120        1.820024  -0.000000

  0.1111111E+00  0.3729374E-15  0.3860503E-15  0.6734007E-02
    1      -14.067009   1.000000
    2      -12.737880   1.000000
    3      -12.689799   1.000000
    4      -12.021579   1.000000
    5      -11.647339   1.000000
    6      -11.294184   1.000000
    7      -11.272315   1.000000
    8      -11.237711   1.000000
    9      -11.163123   1.000000
   10      -10.828423   1.000000
   11      -10.813105   1.000000
   12      -10.427121   1.000000
   13      -10.318065   1.000000
   14      -10.253942   1.000000
   15       -9.885131   1.000000
   16       -9.848499   1.000000
   17       -9.074936   1.000000
   18       -9.050350   1.000000
   19       -9.014213   1.000000
   20       -8.754172   1.000000
   21       -8.656206   1.000000
   22       -8.606126   1.000000
   23       -8.379351   1.000000
   24       -8.253354   1.000000
   25       -8.149113   1.000000
   26       -8.118731   1.000000
   27       -7.552036   1.000000
   28       -7.362718   1.000000
   29       -6.824011   1.000000
   30       -6.654916   1.000000
   31       -6.621850   1.000000
   32       -6.293427   1.000000
   33       -6.156994   1.000000
   34       -6.085179   1.000000
   35       -5.815699   1.000000
   36       -5.752671   1.000000
   37       -5.634333   1.000000
   38       -5.570847   1.000000
   39       -5.553789   1.000000
   40       -5.361062   1.000000
   41       -5.278480   1.000000
   42       -5.203618   1.000000
   43       -5.176342   1.000000
   44       -4.988009   1.000000
   45       -4.942990   1.000000
   46       -4.897488   1.000000
   47       -4.882997   1.000000
   48       -4.800929   1.000000
   49       -4.715509   1.000000
   50       -4.674106   1.000000
   51       -4.601933   1.000000
   52       -4.549205   1.000000
   53       -4.515028   1.000000
   54       -4.475624   1.000000
   55       -4.315829   1.000000
   56       -4.231918   1.000000
   57       -4.191339   1.000000
   58       -4.147212   1.000000
   59       -4.058161   1.000000
   60       -3.917490   1.000000
   61       -3.748570   1.000000
   62       -3.619478   1.000000
   63       -3.564107   1.000000
   64       -3.538439   1.000000
   65       -3.527924   1.000000
   66       -3.500186   1.000000
   67       -3.407514   1.000000
   68       -3.368089   1.000000
   69       -3.310278   1.000000
   70       -3.258296   1.000000
   71       -3.162399   1.000000
   72       -2.933996   1.000000
   73       -2.844006   1.000000
   74       -2.634257   1.000000
   75       -2.550184   1.000000
   76       -2.521551   1.000000
   77       -2.383453   1.000000
   78       -2.370457   1.000000
   79       -2.265642   1.000000
   80       -2.141613   1.000000
   81       -1.797422   1.000000
   82       -1.738740   1.000000
   83       -1.425569   1.000000
   84       -1.401676   1.000000
   85       -1.224358   1.000000
   86       -1.152732   1.000000
   87       -1.102573   1.000000
   88       -0.955303   1.000000
   89       -0.924600   1.000000
   90       -0.579077   1.000000
   91       -0.422587   1.000005
   92       -0.164963   1.013036
   93       -0.060519   0.387089
   94       -0.032030   0.177156
   95        0.039270  -0.033982
   96        0.073552  -0.028730
   97        0.111114  -0.012546
   98        0.417744  -0.000000
   99        0.467038  -0.000000
  100        0.483291  -0.000000
  101        0.570897  -0.000000
  102        0.663127  -0.000000
  103        0.691921  -0.000000
  104        0.721235  -0.000000
  105        0.807438  -0.000000
  106        1.118485  -0.000000
  107        1.129541  -0.000000
  108        1.149594  -0.000000
  109        1.226250  -0.000000
  110        1.282807  -0.000000
  111        1.315120  -0.000000
  112        1.364791  -0.000000
  113        1.407033  -0.000000
  114        1.507373  -0.000000
  115        1.531584  -0.000000
  116        1.588686  -0.000000
  117        1.596219  -0.000000
  118        1.763131  -0.000000
  119        1.793647  -0.000000
  120        1.827170  -0.000000

  0.2222222E+00  0.3922785E-15  0.3630220E-15  0.6734007E-02
    1      -13.986942   1.000000
    2      -12.957569   1.000000
    3      -12.633908   1.000000
    4      -11.976335   1.000000
    5      -11.607964   1.000000
    6      -11.314118   1.000000
    7      -11.253737   1.000000
    8      -11.230258   1.000000
    9      -11.160301   1.000000
   10      -10.818393   1.000000
   11      -10.799309   1.000000
   12      -10.502973   1.000000
   13      -10.314359   1.000000
   14      -10.246705   1.000000
   15       -9.841256   1.000000
   16       -9.811983   1.000000
   17       -9.106822   1.000000
   18       -9.030057   1.000000
   19       -8.942572   1.000000
   20       -8.805834   1.000000
   21       -8.703673   1.000000
   22       -8.600265   1.000000
   23       -8.498319   1.000000
   24       -8.315082   1.000000
   25       -8.226520   1.000000
   26       -8.032140   1.000000
   27       -7.763878   1.000000
   28       -7.323921   1.000000
   29       -6.735200   1.000000
   30       -6.601858   1.000000
   31       -6.575702   1.000000
   32       -6.338804   1.000000
   33       -6.070794   1.000000
   34       -6.006347   1.000000
   35       -5.888231   1.000000
   36       -5.734892   1.000000
   37       -5.682316   1.000000
   38       -5.485850   1.000000
   39       -5.421456   1.000000
   40       -5.366374   1.000000
   41       -5.242219   1.000000
   42       -5.147536   1.000000
   43       -5.096804   1.000000
   44       -5.090464   1.000000
   45       -4.945093   1.000000
   46       -4.875902   1.000000
   47       -4.793432   1.000000
   48       -4.766184   1.000000
   49       -4.700305   1.000000
   50       -4.625628   1.000000
   51       -4.550601   1.000000
   52       -4.523537   1.000000
   53       -4.487522   1.000000
   54       -4.411222   1.000000
   55       -4.325579   1.000000
   56       -4.260453   1.000000
   57       -4.217774   1.000000
   58       -4.117072   1.000000
   59       -4.055066   1.000000
   60       -3.904098   1.000000
   61       -3.807294   1.000000
   62       -3.669418   1.000000
   63       -3.602183   1.000000
   64       -3.555746   1.000000
   65       -3.529987   1.000000
   66       -3.474643   1.000000
   67       -3.457317   1.000000
   68       -3.355482   1.000000
   69       -3.324723   1.000000
   70       -3.251372   1.000000
   71       -3.144328   1.000000
   72       -3.046330   1.000000
   73       -2.775060   1.000000
   74       -2.697137   1.000000
   75       -2.615534   1.000000
   76       -2.567614   1.000000
   77       -2.502420   1.000000
   78       -2.356793   1.000000
   79       -2.350151   1.000000
   80       -2.118488   1.000000
   81       -1.875493   1.000000
   82       -1.569875   1.000000
   83       -1.502426   1.000000
   84       -1.468429   1.000000
   85       -1.142667   1.000000
   86       -1.127046   1.000000
   87       -1.038597   1.000000
   88       -0.988644   1.000000
   89       -0.724963   1.000000
   90       -0.696363   1.000000
   91       -0.552084   1.000000
   92       -0.243692   1.018680
   93       -0.048444   0.291389
   94       -0.006063   0.047549
   95        0.030531  -0.029210
   96        0.098070  -0.017656
   97        0.272144  -0.000006
   98        0.395121  -0.000000
   99        0.415533  -0.000000
  100        0.432913  -0.000000
  101        0.625080  -0.000000
  102        0.724689  -0.000000
  103        0.756241  -0.000000
  104        0.771851  -0.000000
  105        0.878095  -0.000000
  106        1.065273  -0.000000
  107        1.171540  -0.000000
  108        1.173379  -0.000000
  109        1.271659  -0.000000
  110        1.313430  -0.000000
  111        1.325615  -0.000000
  112        1.428283  -0.000000
  113        1.440168  -0.000000
  114        1.515025  -0.000000
  115        1.549306  -0.000000
  116        1.591053  -0.000000
  117        1.634688  -0.000000
  118        1.751470  -0.000000
  119        1.774253  -0.000000
  120        1.859520  -0.000000

  0.3333333E+00  0.3713828E-15  0.3468587E-15  0.6734007E-02
    1      -13.856186   1.000000
    2      -13.215214   1.000000
    3      -12.521685   1.000000
    4      -12.041698   1.000000
    5      -11.555411   1.000000
    6      -11.339671   1.000000
    7      -11.237631   1.000000
    8      -11.227744   1.000000
    9      -11.074677   1.000000
   10      -10.803151   1.000000
   11      -10.779769   1.000000
   12      -10.633105   1.000000
   13      -10.317297   1.000000
   14      -10.249557   1.000000
   15       -9.762475   1.000000
   16       -9.749276   1.000000
   17       -9.184158   1.000000
   18       -9.021578   1.000000
   19       -8.862037   1.000000
   20       -8.814810   1.000000
   21       -8.776640   1.000000
   22       -8.611682   1.000000
   23       -8.577641   1.000000
   24       -8.399801   1.000000
   25       -8.318088   1.000000
   26       -8.032080   1.000000
   27       -7.834534   1.000000
   28       -7.223200   1.000000
   29       -6.779859   1.000000
   30       -6.561764   1.000000
   31       -6.538443   1.000000
   32       -6.426014   1.000000
   33       -6.156205   1.000000
   34       -5.937341   1.000000
   35       -5.826598   1.000000
   36       -5.610589   1.000000
   37       -5.568188   1.000000
   38       -5.391637   1.000000
   39       -5.359718   1.000000
   40       -5.301913   1.000000
   41       -5.279045   1.000000
   42       -5.141972   1.000000
   43       -5.107026   1.000000
   44       -5.011957   1.000000
   45       -4.938335   1.000000
   46       -4.865781   1.000000
   47       -4.784268   1.000000
   48       -4.734892   1.000000
   49       -4.633489   1.000000
   50       -4.617001   1.000000
   51       -4.513431   1.000000
   52       -4.461491   1.000000
   53       -4.417624   1.000000
   54       -4.360461   1.000000
   55       -4.327066   1.000000
   56       -4.284043   1.000000
   57       -4.181966   1.000000
   58       -4.085123   1.000000
   59       -4.053014   1.000000
   60       -3.923128   1.000000
   61       -3.831006   1.000000
   62       -3.794580   1.000000
   63       -3.660527   1.000000
   64       -3.624722   1.000000
   65       -3.552172   1.000000
   66       -3.512781   1.000000
   67       -3.444648   1.000000
   68       -3.358931   1.000000
   69       -3.328528   1.000000
   70       -3.191107   1.000000
   71       -3.080269   1.000000
   72       -3.040676   1.000000
   73       -2.890618   1.000000
   74       -2.719914   1.000000
   75       -2.708458   1.000000
   76       -2.597494   1.000000
   77       -2.589745   1.000000
   78       -2.448714   1.000000
   79       -2.385788   1.000000
   80       -2.048737   1.000000
   81       -1.980046   1.000000
   82       -1.654881   1.000000
   83       -1.558656   1.000000
   84       -1.299509   1.000000
   85       -1.228955   1.000000
   86       -0.994999   1.000000
   87       -0.947789   1.000000
   88       -0.922468   1.000000
   89       -0.853049   1.000000
   90       -0.688534   1.000000
   91       -0.443058   1.000001
   92       -0.390484   1.000036
   93       -0.048279   0.290141
   94       -0.018309   0.100278
   95        0.034919  -0.032077
   96        0.195878  -0.000455
   97        0.257457  -0.000014
   98        0.323991  -0.000000
   99        0.353471  -0.000000
  100        0.646101  -0.000000
  101        0.738602  -0.000000
  102        0.754167  -0.000000
  103        0.796049  -0.000000
  104        0.826329  -0.000000
  105        0.898215  -0.000000
  106        0.970506  -0.000000
  107        1.248168  -0.000000
  108        1.267732  -0.000000
  109        1.308878  -0.000000
  110        1.328388  -0.000000
  111        1.386252  -0.000000
  112        1.427898  -0.000000
  113        1.456794  -0.000000
  114        1.482322  -0.000000
  115        1.589027  -0.000000
  116        1.637789  -0.000000
  117        1.688133  -0.000000
  118        1.753432  -0.000000
  119        1.781453  -0.000000
  120        1.830482  -0.000000

  0.4444444E+00  0.3870091E-15  0.3932070E-15  0.6734007E-02
    1      -13.679317   1.000000
    2      -13.461012   1.000000
    3      -12.383711   1.000000
    4      -12.178390   1.000000
    5      -11.512461   1.000000
    6      -11.351522   1.000000
    7      -11.227613   1.000000
    8      -11.223353   1.000000
    9      -10.955891   1.000000
   10      -10.804924   1.000000
   11      -10.772308   1.000000
   12      -10.758752   1.000000
   13      -10.324782   1.000000
   14      -10.258342   1.000000
   15       -9.690335   1.000000
   16       -9.675270   1.000000
   17       -9.282605   1.000000
   18       -9.018851   1.000000
   19       -8.908216   1.000000
   20       -8.868223   1.000000
   21       -8.655004   1.000000
   22       -8.627902   1.000000
   23       -8.534428   1.000000
   24       -8.453790   1.000000
   25       -8.379757   1.000000
   26       -8.292345   1.000000
   27       -7.612620   1.000000
   28       -7.196336   1.000000
   29       -6.867038   1.000000
   30       -6.563749   1.000000
   31       -6.527010   1.000000
   32       -6.488582   1.000000
   33       -6.278927   1.000000
   34       -5.771682   1.000000
   35       -5.662419   1.000000
   36       -5.587879   1.000000
   37       -5.473894   1.000000
   38       -5.452391   1.000000
   39       -5.385441   1.000000
   40       -5.318499   1.000000
   41       -5.202771   1.000000
   42       -5.126426   1.000000
   43       -5.046343   1.000000
   44       -4.962396   1.000000
   45       -4.912688   1.000000
   46       -4.838142   1.000000
   47       -4.777634   1.000000
   48       -4.772038   1.000000
   49       -4.657261   1.000000
   50       -4.544944   1.000000
   51       -4.487382   1.000000
   52       -4.457789   1.000000
   53       -4.417617   1.000000
   54       -4.329797   1.000000
   55       -4.246984   1.000000
   56       -4.225789   1.000000
   57       -4.174450   1.000000
   58       -4.073980   1.000000
   59       -4.006792   1.000000
   60       -4.002213   1.000000
   61       -3.919419   1.000000
   62       -3.816315   1.000000
   63       -3.728456   1.000000
   64       -3.647169   1.000000
   65       -3.604491   1.000000
   66       -3.494354   1.000000
   67       -3.452609   1.000000
   68       -3.348338   1.000000
   69       -3.336894   1.000000
   70       -3.156049   1.000000
   71       -3.056073   1.000000
   72       -3.013504   1.000000
   73       -2.890210   1.000000
   74       -2.819708   1.000000
   75       -2.774149   1.000000
   76       -2.712154   1.000000
   77       -2.540415   1.000000
   78       -2.489113   1.000000
   79       -2.353387   1.000000
   80       -2.221861   1.000000
   81       -1.863473   1.000000
   82       -1.767664   1.000000
   83       -1.541512   1.000000
   84       -1.371707   1.000000
   85       -1.139992   1.000000
   86       -1.004486   1.000000
   87       -0.931363   1.000000
   88       -0.907593   1.000000
   89       -0.749517   1.000000
   90       -0.636021   1.000000
   91       -0.567936   1.000000
   92       -0.296423   1.003627
   93       -0.084236   0.586153
   94       -0.021321   0.115563
   95        0.010807  -0.001336
   96        0.172500  -0.001352
   97        0.262991  -0.000010
   98        0.286341  -0.000002
   99        0.504169  -0.000000
  100        0.641982  -0.000000
  101        0.683017  -0.000000
  102        0.766056  -0.000000
  103        0.799143  -0.000000
  104        0.853171  -0.000000
  105        1.091003  -0.000000
  106        1.104514  -0.000000
  107        1.206278  -0.000000
  108        1.323361  -0.000000
  109        1.344839  -0.000000
  110        1.396333  -0.000000
  111        1.413876  -0.000000
  112        1.430889  -0.000000
  113        1.467017  -0.000000
  114        1.480784  -0.000000
  115        1.496401  -0.000000
  116        1.607293  -0.000000
  117        1.619443  -0.000000
  118        1.666212  -0.000000
  119        1.694962  -0.000000
  120        1.742843  -0.000000

  0.3742002E-15  0.9090909E-01  0.3596334E-15  0.6734007E-02
    1      -14.060875   1.000000
    2      -12.707276   1.000000
    3      -12.605386   1.000000
    4      -12.046469   1.000000
    5      -11.643078   1.000000
    6      -11.470673   1.000000
    7      -11.417399   1.000000
    8      -11.240860   1.000000
    9      -11.131143   1.000000
   10      -10.835053   1.000000
   11      -10.788530   1.000000
   12      -10.386793   1.000000
   13      -10.280007   1.000000
   14      -10.207391   1.000000
   15       -9.890273   1.000000
   16       -9.847106   1.000000
   17       -9.182370   1.000000
   18       -9.083786   1.000000
   19       -9.034934   1.000000
   20       -8.720202   1.000000
   21       -8.690300   1.000000
   22       -8.573392   1.000000
   23       -8.162069   1.000000
   24       -8.113195   1.000000
   25       -7.993249   1.000000
   26       -7.981008   1.000000
   27       -7.513990   1.000000
   28       -7.328437   1.000000
   29       -6.844391   1.000000
   30       -6.720821   1.000000
   31       -6.636521   1.000000
   32       -6.297525   1.000000
   33       -6.218190   1.000000
   34       -6.081870   1.000000
   35       -5.847095   1.000000
   36       -5.766395   1.000000
   37       -5.622317   1.000000
   38       -5.583481   1.000000
   39       -5.497208   1.000000
   40       -5.383757   1.000000
   41       -5.312306   1.000000
   42       -5.257047   1.000000
   43       -5.206230   1.000000
   44       -5.163224   1.000000
   45       -5.025974   1.000000
   46       -4.937612   1.000000
   47       -4.910228   1.000000
   48       -4.825620   1.000000
   49       -4.740987   1.000000
   50       -4.684994   1.000000
   51       -4.652602   1.000000
   52       -4.566808   1.000000
   53       -4.518368   1.000000
   54       -4.480120   1.000000
   55       -4.390965   1.000000
   56       -4.240463   1.000000
   57       -4.160448   1.000000
   58       -4.083020   1.000000
   59       -4.077086   1.000000
   60       -3.950126   1.000000
   61       -3.714539   1.000000
   62       -3.644471   1.000000
   63       -3.591972   1.000000
   64       -3.569488   1.000000
   65       -3.503383   1.000000
   66       -3.472183   1.000000
   67       -3.399869   1.000000
   68       -3.386913   1.000000
   69       -3.252020   1.000000
   70       -3.214952   1.000000
   71       -3.142464   1.000000
   72       -3.036996   1.000000
   73       -2.863640   1.000000
   74       -2.537337   1.000000
   75       -2.526994   1.000000
   76       -2.502522   1.000000
   77       -2.400440   1.000000
   78       -2.315420   1.000000
   79       -2.200064   1.000000
   80       -2.130862   1.000000
   81       -1.929471   1.000000
   82       -1.623029   1.000000
   83       -1.427219   1.000000
   84       -1.393270   1.000000
   85       -1.343439   1.000000
   86       -1.189066   1.000000
   87       -1.159717   1.000000
   88       -1.107872   1.000000
   89       -0.804501   1.000000
   90       -0.634520   1.000000
   91       -0.423895   1.000004
   92       -0.228417   1.025645
   93       -0.205449   1.034362
   94       -0.133371   0.917188
   95        0.043696  -0.035082
   96        0.078428  -0.026559
   97        0.112057  -0.012216
   98        0.309780  -0.000000
   99        0.324110  -0.000000
  100        0.466196  -0.000000
  101        0.660364  -0.000000
  102        0.717003  -0.000000
  103        0.742715  -0.000000
  104        0.834638  -0.000000
  105        0.920452  -0.000000
  106        1.037262  -0.000000
  107        1.071940  -0.000000
  108        1.189227  -0.000000
  109        1.198748  -0.000000
  110        1.282784  -0.000000
  111        1.307114  -0.000000
  112        1.354491  -0.000000
  113        1.416235  -0.000000
  114        1.502850  -0.000000
  115        1.534630  -0.000000
  116        1.603497  -0.000000
  117        1.614304  -0.000000
  118        1.718122  -0.000000
  119        1.765487  -0.000000
  120        1.856928  -0.000000

  0.1111111E+00  0.9090909E-01  0.4822234E-15  0.6734007E-02
    1      -14.012184   1.000000
    2      -12.794051   1.000000
    3      -12.654464   1.000000
    4      -11.975687   1.000000
    5      -11.618114   1.000000
    6      -11.515238   1.000000
    7      -11.362608   1.000000
    8      -11.233574   1.000000
    9      -11.166332   1.000000
   10      -10.835463   1.000000
   11      -10.729849   1.000000
   12      -10.430003   1.000000
   13      -10.312330   1.000000
   14      -10.231457   1.000000
   15       -9.852280   1.000000
   16       -9.800564   1.000000
   17       -9.212749   1.000000
   18       -9.067760   1.000000
   19       -8.987099   1.000000
   20       -8.789038   1.000000
   21       -8.717932   1.000000
   22       -8.564295   1.000000
   23       -8.245168   1.000000
   24       -8.098888   1.000000
   25       -8.013320   1.000000
   26       -7.994125   1.000000
   27       -7.650280   1.000000
   28       -7.321173   1.000000
   29       -6.767255   1.000000
   30       -6.733012   1.000000
   31       -6.543497   1.000000
   32       -6.277122   1.000000
   33       -6.204380   1.000000
   34       -6.049633   1.000000
   35       -5.872533   1.000000
   36       -5.722519   1.000000
   37       -5.632072   1.000000
   38       -5.529451   1.000000
   39       -5.512973   1.000000
   40       -5.427559   1.000000
   41       -5.284200   1.000000
   42       -5.250077   1.000000
   43       -5.184176   1.000000
   44       -5.124872   1.000000
   45       -4.972244   1.000000
   46       -4.915855   1.000000
   47       -4.818376   1.000000
   48       -4.816128   1.000000
   49       -4.705235   1.000000
   50       -4.655193   1.000000
   51       -4.635043   1.000000
   52       -4.589865   1.000000
   53       -4.511690   1.000000
   54       -4.451463   1.000000
   55       -4.392729   1.000000
   56       -4.251850   1.000000
   57       -4.159922   1.000000
   58       -4.090159   1.000000
   59       -4.053889   1.000000
   60       -3.955564   1.000000
   61       -3.768906   1.000000
   62       -3.662650   1.000000
   63       -3.640015   1.000000
   64       -3.584578   1.000000
   65       -3.486338   1.000000
   66       -3.459442   1.000000
   67       -3.380128   1.000000
   68       -3.354903   1.000000
   69       -3.293580   1.000000
   70       -3.238332   1.000000
   71       -3.174682   1.000000
   72       -3.081999   1.000000
   73       -2.815724   1.000000
   74       -2.608328   1.000000
   75       -2.571368   1.000000
   76       -2.549138   1.000000
   77       -2.409489   1.000000
   78       -2.373632   1.000000
   79       -2.198385   1.000000
   80       -2.153251   1.000000
   81       -1.914313   1.000000
   82       -1.596311   1.000000
   83       -1.521597   1.000000
   84       -1.479794   1.000000
   85       -1.292735   1.000000
   86       -1.146701   1.000000
   87       -1.033295   1.000000
   88       -0.943576   1.000000
   89       -0.855677   1.000000
   90       -0.719995   1.000000
   91       -0.448412   1.000001
   92       -0.239214   1.020674
   93       -0.194405   1.035390
   94       -0.010726   0.065850
   95        0.015406  -0.010348
   96        0.077518  -0.026971
   97        0.095543  -0.018749
   98        0.252128  -0.000020
   99        0.274710  -0.000005
  100        0.596315  -0.000000
  101        0.687573  -0.000000
  102        0.709434  -0.000000
  103        0.767625  -0.000000
  104        0.864066  -0.000000
  105        0.909135  -0.000000
  106        1.014897  -0.000000
  107        1.142709  -0.000000
  108        1.155194  -0.000000
  109        1.230355  -0.000000
  110        1.241012  -0.000000
  111        1.349967  -0.000000
  112        1.398666  -0.000000
  113        1.458482  -0.000000
  114        1.507836  -0.000000
  115        1.551579  -0.000000
  116        1.589008  -0.000000
  117        1.616667  -0.000000
  118        1.697057  -0.000000
  119        1.780355  -0.000000
  120        1.864535  -0.000000

  0.2222222E+00  0.9090909E-01  0.3065600E-15  0.6734007E-02
    1      -13.911426   1.000000
    2      -13.040168   1.000000
    3      -12.568305   1.000000
    4      -11.973504   1.000000
    5      -11.581453   1.000000
    6      -11.540489   1.000000
    7      -11.316883   1.000000
    8      -11.275434   1.000000
    9      -11.113201   1.000000
   10      -10.802837   1.000000
   11      -10.646819   1.000000
   12      -10.529799   1.000000
   13      -10.381556   1.000000
   14      -10.272046   1.000000
   15       -9.777122   1.000000
   16       -9.709139   1.000000
   17       -9.249054   1.000000
   18       -9.110065   1.000000
   19       -8.877088   1.000000
   20       -8.842238   1.000000
   21       -8.789799   1.000000
   22       -8.602890   1.000000
   23       -8.345643   1.000000
   24       -8.120937   1.000000
   25       -8.056754   1.000000
   26       -7.915135   1.000000
   27       -7.864404   1.000000
   28       -7.257571   1.000000
   29       -6.758148   1.000000
   30       -6.699309   1.000000
   31       -6.454076   1.000000
   32       -6.354798   1.000000
   33       -6.168421   1.000000
   34       -5.994965   1.000000
   35       -5.890012   1.000000
   36       -5.741603   1.000000
   37       -5.529940   1.000000
   38       -5.474360   1.000000
   39       -5.427549   1.000000
   40       -5.367717   1.000000
   41       -5.312876   1.000000
   42       -5.198400   1.000000
   43       -5.147063   1.000000
   44       -5.071631   1.000000
   45       -4.932714   1.000000
   46       -4.899648   1.000000
   47       -4.793535   1.000000
   48       -4.777473   1.000000