   49   49   85    1
  0.2411350E+02  0.8645320E-09  0.6085000E-09  0.2593596E-08  0.5000000E-15
   1.0000000000000000E-004
  CAR 
 Name                                    
    189    149    120

  0.3742002E-15  0.3742002E-15  0.3742002E-15  0.3367003E-02
    1      -14.089671   1.000000
    2      -12.707481   1.000000
    3      -12.594011   1.000000
    4      -12.087522   1.000000
    5      -11.652086   1.000000
    6      -11.326663   1.000000
    7      -11.282601   1.000000
    8      -11.255047   1.000000
    9      -11.112451   1.000000
   10      -10.821402   1.000000
   11      -10.810669   1.000000
   12      -10.405162   1.000000
   13      -10.274952   1.000000
   14      -10.237252   1.000000
   15       -9.942564   1.000000
   16       -9.860459   1.000000
   17       -9.075399   1.000000
   18       -8.976706   1.000000
   19       -8.961698   1.000000
   20       -8.768120   1.000000
   21       -8.703874   1.000000
   22       -8.649956   1.000000
   23       -8.298004   1.000000
   24       -8.225169   1.000000
   25       -8.119402   1.000000
   26       -8.110944   1.000000
   27       -7.451758   1.000000
   28       -7.234841   1.000000
   29       -7.023911   1.000000
   30       -6.682810   1.000000
   31       -6.653454   1.000000
   32       -6.313908   1.000000
   33       -6.180092   1.000000
   34       -6.061170   1.000000
   35       -5.777303   1.000000
   36       -5.724318   1.000000
   37       -5.651565   1.000000
   38       -5.582364   1.000000
   39       -5.463655   1.000000
   40       -5.382490   1.000000
   41       -5.282561   1.000000
   42       -5.260102   1.000000
   43       -5.204921   1.000000
   44       -5.046124   1.000000
   45       -4.974737   1.000000
   46       -4.932954   1.000000
   47       -4.868079   1.000000
   48       -4.764997   1.000000
   49       -4.714922   1.000000
   50       -4.701471   1.000000
   51       -4.597084   1.000000
   52       -4.571339   1.000000
   53       -4.528711   1.000000
   54       -4.368198   1.000000
   55       -4.318658   1.000000
   56       -4.229862   1.000000
   57       -4.198144   1.000000
   58       -4.162694   1.000000
   59       -4.095498   1.000000
   60       -3.998255   1.000000
   61       -3.688615   1.000000
   62       -3.596284   1.000000
   63       -3.573005   1.000000
   64       -3.550667   1.000000
   65       -3.505857   1.000000
   66       -3.471368   1.000000
   67       -3.438260   1.000000
   68       -3.397539   1.000000
   69       -3.328864   1.000000
   70       -3.217268   1.000000
   71       -3.015662   1.000000
   72       -2.874197   1.000000
   73       -2.798012   1.000000
   74       -2.633862   1.000000
   75       -2.594739   1.000000
   76       -2.428928   1.000000
   77       -2.399466   1.000000
   78       -2.369153   1.000000
   79       -2.327133   1.000000
   80       -2.197918   1.000000
   81       -1.898897   1.000000
   82       -1.710374   1.000000
   83       -1.362979   1.000000
   84       -1.344168   1.000000
   85       -1.267043   1.000000
   86       -1.183272   1.000000
   87       -1.086754   1.000000
   88       -1.019916   1.000000
   89       -0.669625   1.000000
   90       -0.488127   1.000000
   91       -0.474661   1.000000
   92       -0.169326   1.022852
   93       -0.105167   0.768582
   94       -0.066110   0.455400
   95        0.049118  -0.035397
   96        0.098934  -0.018407
   97        0.132671  -0.006996
   98        0.446730  -0.000000
   99        0.460524  -0.000000
  100        0.487998  -0.000000
  101        0.559921  -0.000000
  102        0.660519  -0.000000
  103        0.671302  -0.000000
  104        0.713933  -0.000000
  105        0.768376  -0.000000
  106        1.112081  -0.000000
  107        1.127403  -0.000000
  108        1.169589  -0.000000
  109        1.204361  -0.000000
  110        1.299812  -0.000000
  111        1.320440  -0.000000
  112        1.344410  -0.000000
  113        1.389050  -0.000000
  114        1.502612  -0.000000
  115        1.523405  -0.000000
  116        1.589734  -0.000000
  117        1.604633  -0.000000
  118        1.695750  -0.000000
  119        1.724811  -0.000000
  120        1.794454  -0.000000

  0.1111111E+00  0.3729374E-15  0.3860503E-15  0.6734007E-02
    1      -14.062705   1.000000
    2      -12.721427   1.000000
    3      -12.672847   1.000000
    4      -12.029433   1.000000
    5      -11.637332   1.000000
    6      -11.314847   1.000000
    7      -11.278107   1.000000
    8      -11.249533   1.000000
    9      -11.143952   1.000000
   10      -10.818843   1.000000
   11      -10.806038   1.000000
   12      -10.426652   1.000000
   13      -10.277163   1.000000
   14      -10.234600   1.000000
   15       -9.922718   1.000000
   16       -9.847185   1.000000
   17       -9.051414   1.000000
   18       -8.969939   1.000000
   19       -8.965796   1.000000
   20       -8.805584   1.000000
   21       -8.713289   1.000000
   22       -8.631921   1.000000
   23       -8.359844   1.000000
   24       -8.230170   1.000000
   25       -8.147726   1.000000
   26       -8.112868   1.000000
   27       -7.541961   1.000000
   28       -7.262679   1.000000
   29       -6.932732   1.000000
   30       -6.653203   1.000000
   31       -6.627222   1.000000
   32       -6.287172   1.000000
   33       -6.151495   1.000000
   34       -6.052198   1.000000
   35       -5.774255   1.000000
   36       -5.730512   1.000000
   37       -5.643133   1.000000
   38       -5.556489   1.000000
   39       -5.515216   1.000000
   40       -5.404506   1.000000
   41       -5.285961   1.000000
   42       -5.233731   1.000000
   43       -5.177420   1.000000
   44       -5.007374   1.000000
   45       -4.955213   1.000000
   46       -4.892587   1.000000
   47       -4.851986   1.000000
   48       -4.799628   1.000000
   49       -4.697059   1.000000
   50       -4.676936   1.000000
   51       -4.591813   1.000000
   52       -4.566967   1.000000
   53       -4.499821   1.000000
   54       -4.366037   1.000000
   55       -4.309913   1.000000
   56       -4.238399   1.000000
   57       -4.212525   1.000000
   58       -4.154669   1.000000
   59       -4.100869   1.000000
   60       -3.981920   1.000000
   61       -3.719711   1.000000
   62       -3.612751   1.000000
   63       -3.549727   1.000000
   64       -3.537781   1.000000
   65       -3.515704   1.000000
   66       -3.473550   1.000000
   67       -3.439249   1.000000
   68       -3.394268   1.000000
   69       -3.288186   1.000000
   70       -3.266243   1.000000
   71       -3.036585   1.000000
   72       -2.945307   1.000000
   73       -2.775166   1.000000
   74       -2.630245   1.000000
   75       -2.575968   1.000000
   76       -2.477408   1.000000
   77       -2.457433   1.000000
   78       -2.398937   1.000000
   79       -2.337547   1.000000
   80       -2.213048   1.000000
   81       -1.800937   1.000000
   82       -1.750925   1.000000
   83       -1.399535   1.000000
   84       -1.376381   1.000000
   85       -1.244504   1.000000
   86       -1.137310   1.000000
   87       -1.071102   1.000000
   88       -0.917975   1.000000
   89       -0.724380   1.000000
   90       -0.558717   1.000000
   91       -0.522881   1.000000
   92       -0.157010   1.003066
   93       -0.058685   0.393452
   94       -0.031680   0.191533
   95        0.041246  -0.033758
   96        0.094520  -0.020363
   97        0.104407  -0.016099
   98        0.430854  -0.000000
   99        0.472951  -0.000000
  100        0.482633  -0.000000
  101        0.587971  -0.000000
  102        0.674268  -0.000000
  103        0.697584  -0.000000
  104        0.736100  -0.000000
  105        0.799452  -0.000000
  106        1.108485  -0.000000
  107        1.125674  -0.000000
  108        1.150741  -0.000000
  109        1.234386  -0.000000
  110        1.294809  -0.000000
  111        1.339817  -0.000000
  112        1.380359  -0.000000
  113        1.410871  -0.000000
  114        1.510984  -0.000000
  115        1.553099  -0.000000
  116        1.579977  -0.000000
  117        1.586064  -0.000000
  118        1.699189  -0.000000
  119        1.737164  -0.000000
  120        1.849531  -0.000000

  0.2222222E+00  0.3922785E-15  0.3630220E-15  0.6734007E-02
    1      -13.982587   1.000000
    2      -12.951137   1.000000
    3      -12.609461   1.000000
    4      -11.980318   1.000000
    5      -11.598344   1.000000
    6      -11.312968   1.000000
    7      -11.257027   1.000000
    8      -11.236424   1.000000
    9      -11.168536   1.000000
   10      -10.810800   1.000000
   11      -10.792460   1.000000
   12      -10.505830   1.000000
   13      -10.285946   1.000000
   14      -10.232740   1.000000
   15       -9.862442   1.000000
   16       -9.805021   1.000000
   17       -8.999123   1.000000
   18       -8.965034   1.000000
   19       -8.934319   1.000000
   20       -8.896632   1.000000
   21       -8.736045   1.000000
   22       -8.617805   1.000000
   23       -8.496833   1.000000
   24       -8.313980   1.000000
   25       -8.232395   1.000000
   26       -8.008331   1.000000
   27       -7.755239   1.000000
   28       -7.244623   1.000000
   29       -6.791916   1.000000
   30       -6.599494   1.000000
   31       -6.574522   1.000000
   32       -6.338460   1.000000
   33       -6.071382   1.000000
   34       -6.011778   1.000000
   35       -5.851460   1.000000
   36       -5.703418   1.000000
   37       -5.673068   1.000000
   38       -5.490805   1.000000
   39       -5.412082   1.000000
   40       -5.358369   1.000000
   41       -5.250386   1.000000
   42       -5.208445   1.000000
   43       -5.100158   1.000000
   44       -5.082461   1.000000
   45       -4.979056   1.000000
   46       -4.883391   1.000000
   47       -4.777436   1.000000
   48       -4.750006   1.000000
   49       -4.665874   1.000000
   50       -4.626627   1.000000
   51       -4.569784   1.000000
   52       -4.527546   1.000000
   53       -4.439718   1.000000
   54       -4.352034   1.000000
   55       -4.303951   1.000000
   56       -4.261435   1.000000
   57       -4.227303   1.000000
   58       -4.128193   1.000000
   59       -4.089150   1.000000
   60       -3.946739   1.000000
   61       -3.800754   1.000000
   62       -3.664014   1.000000
   63       -3.571058   1.000000
   64       -3.535687   1.000000
   65       -3.495552   1.000000
   66       -3.467245   1.000000
   67       -3.426712   1.000000
   68       -3.370849   1.000000
   69       -3.354283   1.000000
   70       -3.191692   1.000000
   71       -3.130713   1.000000
   72       -3.024894   1.000000
   73       -2.721533   1.000000
   74       -2.661608   1.000000
   75       -2.625410   1.000000
   76       -2.595442   1.000000
   77       -2.551418   1.000000
   78       -2.477959   1.000000
   79       -2.376403   1.000000
   80       -2.149794   1.000000
   81       -1.903498   1.000000
   82       -1.577497   1.000000
   83       -1.479178   1.000000
   84       -1.443069   1.000000
   85       -1.171200   1.000000
   86       -1.048847   1.000000
   87       -1.004996   1.000000
   88       -0.869292   1.000000
   89       -0.700560   1.000000
   90       -0.679399   1.000000
   91       -0.623511   1.000000
   92       -0.229295   1.024035
   93       -0.046106   0.293440
   94        0.010963   0.004179
   95        0.035870  -0.031112
   96        0.108772  -0.014370
   97        0.279939  -0.000004
   98        0.393990  -0.000000
   99        0.414989  -0.000000
  100        0.432625  -0.000000
  101        0.639532  -0.000000
  102        0.746810  -0.000000
  103        0.764374  -0.000000
  104        0.785327  -0.000000
  105        0.864366  -0.000000
  106        1.065604  -0.000000
  107        1.156864  -0.000000
  108        1.175595  -0.000000
  109        1.274596  -0.000000
  110        1.329258  -0.000000
  111        1.340711  -0.000000
  112        1.440797  -0.000000
  113        1.452247  -0.000000
  114        1.502186  -0.000000
  115        1.538375  -0.000000
  116        1.591522  -0.000000
  117        1.652893  -0.000000
  118        1.692539  -0.000000
  119        1.749678  -0.000000
  120        1.796204  -0.000000

  0.3333333E+00  0.3713828E-15  0.3468587E-15  0.6734007E-02
    1      -13.851741   1.000000
    2      -13.209813   1.000000
    3      -12.498581   1.000000
    4      -12.038195   1.000000
    5      -11.548532   1.000000
    6      -11.333155   1.000000
    7      -11.234197   1.000000
    8      -11.225343   1.000000
    9      -11.101290   1.000000
   10      -10.799078   1.000000
   11      -10.773462   1.000000
   12      -10.639836   1.000000
   13      -10.300408   1.000000
   14      -10.240324   1.000000
   15       -9.767162   1.000000
   16       -9.737253   1.000000
   17       -9.080492   1.000000
   18       -8.980490   1.000000
   19       -8.914240   1.000000
   20       -8.795816   1.000000
   21       -8.767962   1.000000
   22       -8.648306   1.000000
   23       -8.607460   1.000000
   24       -8.414282   1.000000
   25       -8.335223   1.000000
   26       -8.023118   1.000000
   27       -7.797681   1.000000
   28       -7.150724   1.000000
   29       -6.774389   1.000000
   30       -6.592018   1.000000
   31       -6.531462   1.000000
   32       -6.447005   1.000000
   33       -6.137695   1.000000
   34       -5.933237   1.000000
   35       -5.816478   1.000000
   36       -5.595158   1.000000
   37       -5.567039   1.000000
   38       -5.388648   1.000000
   39       -5.364778   1.000000
   40       -5.307642   1.000000
   41       -5.274465   1.000000
   42       -5.177658   1.000000
   43       -5.132738   1.000000
   44       -5.039665   1.000000
   45       -4.945606   1.000000
   46       -4.875256   1.000000
   47       -4.764538   1.000000
   48       -4.724652   1.000000
   49       -4.619309   1.000000
   50       -4.602887   1.000000
   51       -4.528180   1.000000
   52       -4.463551   1.000000
   53       -4.377432   1.000000
   54       -4.341536   1.000000
   55       -4.302364   1.000000
   56       -4.254784   1.000000
   57       -4.184111   1.000000
   58       -4.093119   1.000000
   59       -4.042450   1.000000
   60       -3.965502   1.000000
   61       -3.842909   1.000000
   62       -3.762891   1.000000
   63       -3.597711   1.000000
   64       -3.566754   1.000000
   65       -3.547415   1.000000
   66       -3.478437   1.000000
   67       -3.433146   1.000000
   68       -3.374523   1.000000
   69       -3.308302   1.000000
   70       -3.167361   1.000000
   71       -3.083455   1.000000
   72       -3.036890   1.000000
   73       -2.852854   1.000000
   74       -2.821563   1.000000
   75       -2.713690   1.000000
   76       -2.644256   1.000000
   77       -2.569302   1.000000
   78       -2.492854   1.000000
   79       -2.437405   1.000000
   80       -2.085636   1.000000
   81       -1.977403   1.000000
   82       -1.645048   1.000000
   83       -1.559369   1.000000
   84       -1.276205   1.000000
   85       -1.115032   1.000000
   86       -1.006078   1.000000
   87       -0.949356   1.000000
   88       -0.903391   1.000000
   89       -0.839860   1.000000
   90       -0.708674   1.000000
   91       -0.427688   1.000003
   92       -0.370406   1.000099
   93       -0.034586   0.210706
   94        0.001299   0.031093
   95        0.049670  -0.035426
   96        0.201538  -0.000391
   97        0.264993  -0.000011
   98        0.318592  -0.000000
   99        0.353493  -0.000000
  100        0.644473  -0.000000
  101        0.747279  -0.000000
  102        0.784993  -0.000000
  103        0.800370  -0.000000
  104        0.836320  -0.000000
  105        0.899988  -0.000000
  106        0.959167  -0.000000
  107        1.246923  -0.000000
  108        1.272922  -0.000000
  109        1.318702  -0.000000
  110        1.326945  -0.000000
  111        1.399767  -0.000000
  112        1.435513  -0.000000
  113        1.459038  -0.000000
  114        1.482083  -0.000000
  115        1.552574  -0.000000
  116        1.604674  -0.000000
  117        1.646137  -0.000000
  118        1.717312  -0.000000
  119        1.766527  -0.000000
  120        1.809212  -0.000000

  0.4444444E+00  0.3870091E-15  0.3932070E-15  0.6734007E-02
    1      -13.674768   1.000000
    2      -13.456016   1.000000
    3      -12.361513   1.000000
    4      -12.169837   1.000000
    5      -11.508324   1.000000
    6      -11.344706   1.000000
    7      -11.222339   1.000000
    8      -11.218522   1.000000
    9      -10.987136   1.000000
   10      -10.807479   1.000000
   11      -10.772852   1.000000
   12      -10.756070   1.000000
   13      -10.313030   1.000000
   14      -10.251274   1.000000
   15       -9.677132   1.000000
   16       -9.670598   1.000000
   17       -9.207666   1.000000
   18       -9.001936   1.000000
   19       -8.846971   1.000000
   20       -8.821938   1.000000
   21       -8.736765   1.000000
   22       -8.691537   1.000000
   23       -8.540159   1.000000
   24       -8.458405   1.000000
   25       -8.404253   1.000000
   26       -8.284629   1.000000
   27       -7.550564   1.000000
   28       -7.164923   1.000000
   29       -6.849188   1.000000
   30       -6.583548   1.000000
   31       -6.520585   1.000000
   32       -6.471967   1.000000
   33       -6.289100   1.000000
   34       -5.764155   1.000000
   35       -5.654580   1.000000
   36       -5.578667   1.000000
   37       -5.482992   1.000000
   38       -5.449637   1.000000
   39       -5.378554   1.000000
   40       -5.314365   1.000000
   41       -5.302630   1.000000
   42       -5.118413   1.000000
   43       -5.058389   1.000000
   44       -4.981648   1.000000
   45       -4.898624   1.000000
   46       -4.838923   1.000000
   47       -4.800957   1.000000
   48       -4.754930   1.000000
   49       -4.658333   1.000000
   50       -4.529998   1.000000
   51       -4.480931   1.000000
   52       -4.449911   1.000000
   53       -4.408342   1.000000
   54       -4.315152   1.000000
   55       -4.233640   1.000000
   56       -4.207517   1.000000
   57       -4.152363   1.000000
   58       -4.070067   1.000000
   59       -4.002520   1.000000
   60       -3.972070   1.000000
   61       -3.893516   1.000000
   62       -3.817482   1.000000
   63       -3.717720   1.000000
   64       -3.594131   1.000000
   65       -3.534899   1.000000
   66       -3.463245   1.000000
   67       -3.420040   1.000000
   68       -3.359530   1.000000
   69       -3.273507   1.000000
   70       -3.136195   1.000000
   71       -3.105149   1.000000
   72       -3.021167   1.000000
   73       -2.956267   1.000000
   74       -2.903194   1.000000
   75       -2.800813   1.000000
   76       -2.752809   1.000000
   77       -2.506191   1.000000
   78       -2.469611   1.000000
   79       -2.426763   1.000000
   80       -2.263686   1.000000
   81       -1.830121   1.000000
   82       -1.748180   1.000000
   83       -1.539186   1.000000
   84       -1.336268   1.000000
   85       -1.126168   1.000000
   86       -0.998461   1.000000
   87       -0.932528   1.000000
   88       -0.900319   1.000000
   89       -0.732628   1.000000
   90       -0.621927   1.000000
   91       -0.562345   1.000000
   92       -0.287983   1.004510
   93       -0.076202   0.540685
   94        0.008583   0.010026
   95        0.037950  -0.032301
   96        0.181918  -0.000998
   97        0.251674  -0.000024
   98        0.283020  -0.000003
   99        0.511997  -0.000000
  100        0.632095  -0.000000
  101        0.692357  -0.000000
  102        0.790133  -0.000000
  103        0.802720  -0.000000
  104        0.860639  -0.000000
  105        1.089680  -0.000000
  106        1.117046  -0.000000
  107        1.213631  -0.000000
  108        1.318463  -0.000000
  109        1.346515  -0.000000
  110        1.402209  -0.000000
  111        1.421626  -0.000000
  112        1.447603  -0.000000
  113        1.462222  -0.000000
  114        1.487363  -0.000000
  115        1.502155  -0.000000
  116        1.570787  -0.000000
  117        1.602543  -0.000000
  118        1.649075  -0.000000
  119        1.726796  -0.000000
  120        1.753035  -0.000000

  0.3742002E-15  0.9090909E-01  0.3596334E-15  0.6734007E-02
    1      -14.056571   1.000000
    2      -12.679612   1.000000
    3      -12.598487   1.000000
    4      -12.055157   1.000000
    5      -11.634930   1.000000
    6      -11.465357   1.000000
    7      -11.416469   1.000000
    8      -11.282117   1.000000
    9      -11.112301   1.000000
   10      -10.829227   1.000000
   11      -10.781638   1.000000
   12      -10.378748   1.000000
   13      -10.240444   1.000000
   14      -10.187754   1.000000
   15       -9.924331   1.000000
   16       -9.848094   1.000000
   17       -9.155930   1.000000
   18       -9.063505   1.000000
   19       -9.019234   1.000000
   20       -8.772408   1.000000
   21       -8.691506   1.000000
   22       -8.536171   1.000000
   23       -8.135671   1.000000
   24       -8.090383   1.000000
   25       -8.012379   1.000000
   26       -7.993010   1.000000
   27       -7.503014   1.000000
   28       -7.212873   1.000000
   29       -6.974268   1.000000
   30       -6.719611   1.000000
   31       -6.644595   1.000000
   32       -6.312673   1.000000
   33       -6.188358   1.000000
   34       -6.060363   1.000000
   35       -5.815240   1.000000
   36       -5.739605   1.000000
   37       -5.589834   1.000000
   38       -5.545492   1.000000
   39       -5.484188   1.000000
   40       -5.413333   1.000000
   41       -5.323272   1.000000
   42       -5.296509   1.000000
   43       -5.202147   1.000000
   44       -5.164727   1.000000
   45       -5.038354   1.000000
   46       -4.940308   1.000000
   47       -4.901728   1.000000
   48       -4.806839   1.000000
   49       -4.740898   1.000000
   50       -4.694602   1.000000
   51       -4.610090   1.000000
   52       -4.567532   1.000000
   53       -4.535919   1.000000
   54       -4.485700   1.000000
   55       -4.329309   1.000000
   56       -4.233005   1.000000
   57       -4.156147   1.000000
   58       -4.122144   1.000000
   59       -4.057430   1.000000
   60       -4.004218   1.000000
   61       -3.702545   1.000000
   62       -3.631858   1.000000
   63       -3.591349   1.000000
   64       -3.570613   1.000000
   65       -3.513084   1.000000
   66       -3.487135   1.000000
   67       -3.419442   1.000000
   68       -3.345806   1.000000
   69       -3.311525   1.000000
   70       -3.233608   1.000000
   71       -3.013918   1.000000
   72       -2.984381   1.000000
   73       -2.795876   1.000000
   74       -2.596524   1.000000
   75       -2.512042   1.000000
   76       -2.453963   1.000000
   77       -2.428778   1.000000
   78       -2.375836   1.000000
   79       -2.263677   1.000000
   80       -2.197231   1.000000
   81       -1.931432   1.000000
   82       -1.649899   1.000000
   83       -1.412303   1.000000
   84       -1.393602   1.000000
   85       -1.296451   1.000000
   86       -1.162648   1.000000
   87       -1.149969   1.000000
   88       -1.080705   1.000000
   89       -0.661203   1.000000
   90       -0.583350   1.000000
   91       -0.432183   1.000002
   92       -0.282500   1.005492
   93       -0.203190   1.034281
   94       -0.149371   0.984706
   95        0.034321  -0.030083
   96        0.081400  -0.026393
   97        0.141782  -0.005106
   98        0.313721  -0.000000
   99        0.326524  -0.000000
  100        0.472342  -0.000000
  101        0.687217  -0.000000
  102        0.731994  -0.000000
  103        0.755896  -0.000000
  104        0.812612  -0.000000
  105        0.927251  -0.000000
  106        1.030959  -0.000000
  107        1.065573  -0.000000
  108        1.190810  -0.000000
  109        1.207866  -0.000000
  110        1.302732  -0.000000
  111        1.313301  -0.000000
  112        1.381540  -0.000000
  113        1.417496  -0.000000
  114        1.519228  -0.000000
  115        1.547701  -0.000000
  116        1.590914  -0.000000
  117        1.603127  -0.000000
  118        1.663422  -0.000000
  119        1.716666  -0.000000
  120        1.839007  -0.000000

  0.1111111E+00  0.9090909E-01  0.4822234E-15  0.6734007E-02
    1      -14.007805   1.000000
    2      -12.786243   1.000000
    3      -12.630294   1.000000
    4      -11.981976   1.000000
    5      -11.608622   1.000000
    6      -11.510122   1.000000
    7      -11.362983   1.000000
    8      -11.261189   1.000000
    9      -11.158879   1.000000
   10      -10.829419   1.000000
   11      -10.722259   1.000000
   12      -10.432056   1.000000
   13      -10.282845   1.000000
   14      -10.213966   1.000000
   15       -9.869051   1.000000
   16       -9.795091   1.000000
   17       -9.193079   1.000000
   18       -9.026991   1.000000
   19       -8.976676   1.000000
   20       -8.844925   1.000000
   21       -8.716351   1.000000
   22       -8.534474   1.000000
   23       -8.223018   1.000000
   24       -8.096260   1.000000
   25       -8.026423   1.000000
   26       -7.996102   1.000000
   27       -7.642353   1.000000
   28       -7.233040   1.000000
   29       -6.849057   1.000000
   30       -6.739226   1.000000
   31       -6.544589   1.000000
   32       -6.276349   1.000000
   33       -6.185084   1.000000
   34       -6.043803   1.000000
   35       -5.850912   1.000000
   36       -5.705544   1.000000
   37       -5.601009   1.000000
   38       -5.517608   1.000000
   39       -5.474410   1.000000
   40       -5.437390   1.000000
   41       -5.279921   1.000000
   42       -5.255398   1.000000
   43       -5.215217   1.000000
   44       -5.166545   1.000000
   45       -4.977011   1.000000
   46       -4.930993   1.000000
   47       -4.813778   1.000000
   48       -4.793046   1.000000
   49       -4.685849   1.000000
   50       -4.664538   1.000000
   51       -4.607892   1.000000
   52       -4.594556   1.000000
   53       -4.507877   1.000000
   54       -4.457993   1.000000
   55       -4.338722   1.000000
   56       -4.251169   1.000000
   57       -4.166232   1.000000
   58       -4.110405   1.000000
   59       -4.060361   1.000000
   60       -3.969005   1.000000
   61       -3.746997   1.000000
   62       -3.643655   1.000000
   63       -3.627094   1.000000
   64       -3.573576   1.000000
   65       -3.507592   1.000000
   66       -3.480600   1.000000
   67       -3.405159   1.000000
   68       -3.357827   1.000000
   69       -3.283241   1.000000
   70       -3.249834   1.000000
   71       -3.078817   1.000000
   72       -3.017880   1.000000
   73       -2.761524   1.000000
   74       -2.597907   1.000000
   75       -2.578966   1.000000
   76       -2.545598   1.000000
   77       -2.494147   1.000000
   78       -2.426681   1.000000
   79       -2.256613   1.000000
   80       -2.190121   1.000000
   81       -1.932682   1.000000
   82       -1.603751   1.000000
   83       -1.511443   1.000000
   84       -1.462840   1.000000
   85       -1.276019   1.000000
   86       -1.122146   1.000000
   87       -1.002945   1.000000
   88       -0.907560   1.000000
   89       -0.734372   1.000000
   90       -0.687357   1.000000
   91       -0.495921   1.000000
   92       -0.232642   1.022487
   93       -0.187566   1.034793
   94       -0.020232   0.123617
   95        0.011977   0.001838
   96        0.078120  -0.027870
   97        0.116738  -0.011509
   98        0.241774  -0.000044
   99        0.279904  -0.000004
  100        0.610940  -0.000000
  101        0.698407  -0.000000
  102        0.726019  -0.000000
  103        0.801486  -0.000000
  104        0.835332  -0.000000
  105        0.914878  -0.000000
  106        1.008840  -0.000000
  107        1.145451  -0.000000
  108        1.154235  -0.000000
  109        1.236211  -0.000000
  110        1.249929  -0.000000
  111        1.352636  -0.000000
  112        1.417210  -0.000000
  113        1.469975  -0.000000
  114        1.494930  -0.000000
  115        1.559056  -0.000000
  116        1.589502  -0.000000
  117        1.617395  -0.000000
  118        1.656931  -0.000000
  119        1.772655  -0.000000
  120        1.849506  -0.000000

  0.2222222E+00  0.9090909E-01  0.3065600E-15  0.6734007E-02
    1      -13.906935   1.000000
    2      -13.034609   1.000000
    3      -12.544168   1.000000
    4      -11.974515   1.000000
    5      -11.571025   1.000000
    6      -11.538089   1.000000
    7      -11.315076   1.000000
    8      -11.273462   1.000000
    9      -11.134938   1.000000
   10      -10.797376   1.000000
   11      -10.638387   1.000000
   12      -10.541195   1.000000
   13      -10.360826   1.000000
   14      -10.260822   1.000000
   15       -9.775255   1.000000
   16       -9.694959   1.000000
   17       -9.220282   1.000000
   18       -9.087384   1.000000
   19       -8.902220   1.000000
   20       -8.852884   1.000000
   21       -8.789270   1.000000
   22       -8.564328   1.000000
   23       -8.320284   1.000000
   24       -8.172273   1.000000
   25       -8.068012   1.000000
   26       -7.896253   1.000000
   27       -7.849344   1.000000
   28       -7.181796   1.000000
   29       -6.761292   1.000000
   30       -6.729422   1.000000
   31       -6.448838   1.000000
   32       -6.376240   1.000000
   33       -6.159744   1.000000
   34       -5.993019   1.000000
   35       -5.877240   1.000000
   36       -5.721787   1.000000
   37       -5.496756   1.000000
   38       -5.474730   1.000000
   39       -5.402064   1.000000
   40       -5.375001   1.000000
   41       -5.287988   1.000000
   42       -5.248846   1.000000
   43       -5.154501   1.000000
   44       -5.128967   1.000000
   45       -4.948632   1.000000
   46       -4.910172   1.000000
   47       -4.783673   1.000000
   48       -4.757791   1.000000