 running on   48 total cores
 distrk:  each k-point on   48 cores,    1 groups
 distr:  one band on    6 cores,    8 groups
 using from now: INCAR     
 vasp.5.4.4.18Apr17-6-g9f103f2a35 (build Dec  7 2020 12:43:57) complex           
 POSCAR found type information on POSCAR  Mo V  B  H 
 POSCAR found :  4 types and      49 ions
 scaLAPACK will be used
 LDA part: xc-table for Pade appr. of Perdew
 POSCAR, INCAR and KPOINTS ok, starting setup
 resort distribution
 resort distribution
 resort distribution
 resort distribution
 resort distribution
 resort distribution
 resort distribution
 resort distribution
 resort distribution
 resort distribution
 resort distribution
 resort distribution
 resort distribution
 resort distribution
 resort distribution
 resort distribution
 resort distribution
 resort distribution
 resort distribution
 resort distribution
 resort distribution
 resort distribution
 resort distribution
 resort distribution
 resort distribution
 resort distribution
 resort distribution
 resort distribution
 resort distribution
 resort distribution
 resort distribution
 resort distribution
 resort distribution
 resort distribution
 resort distribution
 resort distribution
 resort distribution
 resort distribution
 resort distribution
 resort distribution
 resort distribution
 resort distribution
 resort distribution
 resort distribution
 resort distribution
 resort distribution
 resort distribution
 resort distribution
 FFT: planning ...
 WAVECAR not read
 augmentation electrons   189.00946772665307     
 soft         electrons   0.0000000000000000     
 augmentation electrons   189.00946772665307     
 soft         electrons   0.0000000000000000     
 augmentation electrons   189.00946772665307     
 soft         electrons   0.0000000000000000     
 augmentation electrons   189.00946772665307     
 soft         electrons   0.0000000000000000     
 augmentation electrons   189.00946772665307     
 soft         electrons   0.0000000000000000     
 augmentation electrons   189.00946772665307     
 soft         electrons   0.0000000000000000     
 augmentation electrons   189.00946772665307     
 soft         electrons   0.0000000000000000     
 augmentation electrons   189.00946772665307     
 soft         electrons   0.0000000000000000     
 augmentation electrons   189.00946772665307     
 soft         electrons   0.0000000000000000     
 augmentation electrons   189.00946772665307     
 soft         electrons   0.0000000000000000     
 augmentation electrons   189.00946772665307     
 soft         electrons   0.0000000000000000     
 augmentation electrons   189.00946772665307     
 soft         electrons   0.0000000000000000     
 augmentation electrons   189.00946772665307     
 soft         electrons   0.0000000000000000     
 augmentation electrons   189.00946772665307     
 soft         electrons   0.0000000000000000     
 augmentation electrons   189.00946772665307     
 soft         electrons   0.0000000000000000     
 augmentation electrons   189.00946772665307     
 soft         electrons   0.0000000000000000     
 augmentation electrons   189.00946772665307     
 soft         electrons   0.0000000000000000     
 augmentation electrons   189.00946772665307     
 soft         electrons   0.0000000000000000     
 augmentation electrons   189.00946772665307     
 soft         electrons   0.0000000000000000     
 augmentation electrons   189.00946772665307     
 soft         electrons   0.0000000000000000     
 augmentation electrons   189.00946772665307     
 soft         electrons   0.0000000000000000     
 augmentation electrons   189.00946772665307     
 soft         electrons   0.0000000000000000     
 augmentation electrons   189.00946772665307     
 soft         electrons   0.0000000000000000     
 augmentation electrons   189.00946772665307     
 soft         electrons   0.0000000000000000     
 augmentation electrons   189.00946772665307     
 soft         electrons   0.0000000000000000     
 augmentation electrons   189.00946772665307     
 soft         electrons   0.0000000000000000     
 augmentation electrons   189.00946772665307     
 soft         electrons   0.0000000000000000     
 augmentation electrons   189.00946772665307     
 soft         electrons   0.0000000000000000     
 augmentation electrons   189.00946772665307     
 soft         electrons   0.0000000000000000     
 augmentation electrons   189.00946772665307     
 soft         electrons   0.0000000000000000     
 augmentation electrons   189.00946772665307     
 soft         electrons   0.0000000000000000     
 augmentation electrons   189.00946772665307     
 soft         electrons   0.0000000000000000     
 augmentation electrons   189.00946772665307     
 soft         electrons   0.0000000000000000     
 augmentation electrons   189.00946772665307     
 soft         electrons   0.0000000000000000     
 augmentation electrons   189.00946772665307     
 soft         electrons   0.0000000000000000     
 augmentation electrons   189.00946772665307     
 soft         electrons   0.0000000000000000     
 augmentation electrons   189.00946772665307     
 soft         electrons   0.0000000000000000     
 augmentation electrons   189.00946772665307     
 soft         electrons   0.0000000000000000     
 augmentation electrons   189.00946772665307     
 soft         electrons   0.0000000000000000     
 augmentation electrons   189.00946772665307     
 soft         electrons   0.0000000000000000     
 augmentation electrons   189.00946772665307     
 soft         electrons   0.0000000000000000     
 augmentation electrons   189.00946772665307     
 soft         electrons   0.0000000000000000     
 augmentation electrons   189.00946772665307     
 soft         electrons   0.0000000000000000     
 augmentation electrons   189.00946772665307     
 soft         electrons   0.0000000000000000     
 augmentation electrons   189.00946772665307     
 soft         electrons   0.0000000000000000     
 augmentation electrons   189.00946772665307     
 soft         electrons   0.0000000000000000     
 augmentation electrons   189.00946772665307     
 soft         electrons   0.0000000000000000     
 augmentation electrons   189.00946772665307     
 soft         electrons   0.0000000000000000     
 total        electrons   189.00946772665307     
 total        electrons   189.00946772665307     
 total        electrons   189.00946772665307     
 total        electrons   189.00946772665307     
 total        electrons   189.00946772665307     
 total        electrons   189.00946772665307     
 total        electrons   189.00946772665307     
 total        electrons   189.00946772665307     
 total        electrons   189.00946772665307     
 total        electrons   189.00946772665307     
 total        electrons   189.00946772665307     
 total        electrons   189.00946772665307     
 total        electrons   189.00946772665307     
 total        electrons   189.00946772665307     
 total        electrons   189.00946772665307     
 total        electrons   189.00946772665307     
 total        electrons   189.00946772665307     
 total        electrons   189.00946772665307     
 total        electrons   189.00946772665307     
 total        electrons   189.00946772665307     
 total        electrons   189.00946772665307     
 total        electrons   189.00946772665307     
 total        electrons   189.00946772665307     
 total        electrons   189.00946772665307     
 total        electrons   189.00946772665307     
 total        electrons   189.00946772665307     
 total        electrons   189.00946772665307     
 total        electrons   189.00946772665307     
 total        electrons   189.00946772665307     
 total        electrons   189.00946772665307     
 total        electrons   189.00946772665307     
 total        electrons   189.00946772665307     
 total        electrons   189.00946772665307     
 total        electrons   189.00946772665307     
 total        electrons   189.00946772665307     
 total        electrons   189.00946772665307     
 total        electrons   189.00946772665307     
 total        electrons   189.00946772665307     
 total        electrons   189.00946772665307     
 total        electrons   189.00946772665307     
 total        electrons   189.00946772665307     
 total        electrons   189.00946772665307     
 total        electrons   189.00946772665307     
 total        electrons   189.00946772665307     
 total        electrons   189.00946772665307     
 total        electrons   189.00946772665307     
 total        electrons   189.00946772665307     
 total        electrons   189.00946772665307     
 augmentation electrons   591.20326879775143     
 soft         electrons   0.0000000000000000     
 augmentation electrons   591.20326879775143     
 soft         electrons   0.0000000000000000     
 augmentation electrons   591.20326879775143     
 soft         electrons   0.0000000000000000     
 augmentation electrons   591.20326879775143     
 soft         electrons   0.0000000000000000     
 augmentation electrons   591.20326879775143     
 soft         electrons   0.0000000000000000     
 augmentation electrons   591.20326879775143     
 soft         electrons   0.0000000000000000     
 augmentation electrons   591.20326879775143     
 soft         electrons   0.0000000000000000     
 augmentation electrons   591.20326879775143     
 soft         electrons   0.0000000000000000     
 augmentation electrons   591.20326879775143     
 soft         electrons   0.0000000000000000     
 augmentation electrons   591.20326879775143     
 soft         electrons   0.0000000000000000     
 augmentation electrons   591.20326879775143     
 soft         electrons   0.0000000000000000     
 augmentation electrons   591.20326879775143     
 soft         electrons   0.0000000000000000     
 augmentation electrons   591.20326879775143     
 soft         electrons   0.0000000000000000     
 augmentation electrons   591.20326879775143     
 soft         electrons   0.0000000000000000     
 augmentation electrons   591.20326879775143     
 soft         electrons   0.0000000000000000     
 augmentation electrons   591.20326879775143     
 soft         electrons   0.0000000000000000     
 augmentation electrons   591.20326879775143     
 soft         electrons   0.0000000000000000     
 augmentation electrons   591.20326879775143     
 soft         electrons   0.0000000000000000     
 augmentation electrons   591.20326879775143     
 soft         electrons   0.0000000000000000     
 augmentation electrons   591.20326879775143     
 soft         electrons   0.0000000000000000     
 augmentation electrons   591.20326879775143     
 soft         electrons   0.0000000000000000     
 augmentation electrons   591.20326879775143     
 soft         electrons   0.0000000000000000     
 augmentation electrons   591.20326879775143     
 soft         electrons   0.0000000000000000     
 augmentation electrons   591.20326879775143     
 soft         electrons   0.0000000000000000     
 augmentation electrons   591.20326879775143     
 soft         electrons   0.0000000000000000     
 augmentation electrons   591.20326879775143     
 soft         electrons   0.0000000000000000     
 augmentation electrons   591.20326879775143     
 soft         electrons   0.0000000000000000     
 augmentation electrons   591.20326879775143     
 soft         electrons   0.0000000000000000     
 augmentation electrons   591.20326879775143     
 soft         electrons   0.0000000000000000     
 augmentation electrons   591.20326879775143     
 soft         electrons   0.0000000000000000     
 augmentation electrons   591.20326879775143     
 soft         electrons   0.0000000000000000     
 augmentation electrons   591.20326879775143     
 soft         electrons   0.0000000000000000     
 augmentation electrons   591.20326879775143     
 soft         electrons   0.0000000000000000     
 augmentation electrons   591.20326879775143     
 soft         electrons   0.0000000000000000     
 augmentation electrons   591.20326879775143     
 soft         electrons   0.0000000000000000     
 augmentation electrons   591.20326879775143     
 soft         electrons   0.0000000000000000     
 augmentation electrons   591.20326879775143     
 soft         electrons   0.0000000000000000     
 augmentation electrons   591.20326879775143     
 soft         electrons   0.0000000000000000     
 augmentation electrons   591.20326879775143     
 soft         electrons   0.0000000000000000     
 augmentation electrons   591.20326879775143     
 soft         electrons   0.0000000000000000     
 augmentation electrons   591.20326879775143     
 soft         electrons   0.0000000000000000     
 augmentation electrons   591.20326879775143     
 soft         electrons   0.0000000000000000     
 augmentation electrons   591.20326879775143     
 soft         electrons   0.0000000000000000     
 augmentation electrons   591.20326879775143     
 augmentation electrons   591.20326879775143     
 soft         electrons   0.0000000000000000     
 augmentation electrons   591.20326879775143     
 soft         electrons   0.0000000000000000     
 augmentation electrons   591.20326879775143     
 soft         electrons   0.0000000000000000     
 augmentation electrons   591.20326879775143     
 soft         electrons   0.0000000000000000     
 soft         electrons   0.0000000000000000     
 total        electrons   591.20326879775143     
 total        electrons   591.20326879775143     
 total        electrons   591.20326879775143     
 total        electrons   591.20326879775143     
 total        electrons   591.20326879775143     
 total        electrons   591.20326879775143     
 total        electrons   591.20326879775143     
 total        electrons   591.20326879775143     
 total        electrons   591.20326879775143     
 total        electrons   591.20326879775143     
 total        electrons   591.20326879775143     
 total        electrons   591.20326879775143     
 total        electrons   591.20326879775143     
 total        electrons   591.20326879775143     
 total        electrons   591.20326879775143     
 total        electrons   591.20326879775143     
 total        electrons   591.20326879775143     
 total        electrons   591.20326879775143     
 total        electrons   591.20326879775143     
 total        electrons   591.20326879775143     
 total        electrons   591.20326879775143     
 total        electrons   591.20326879775143     
 total        electrons   591.20326879775143     
 total        electrons   591.20326879775143     
 total        electrons   591.20326879775143     
 total        electrons   591.20326879775143     
 total        electrons   591.20326879775143     
 total        electrons   591.20326879775143     
 total        electrons   591.20326879775143     
 total        electrons   591.20326879775143     
 total        electrons   591.20326879775143     
 total        electrons   591.20326879775143     
 total        electrons   591.20326879775143     
 total        electrons   591.20326879775143     
 total        electrons   591.20326879775143     
 total        electrons   591.20326879775143     
 total        electrons   591.20326879775143     
 total        electrons   591.20326879775143     
 total        electrons   591.20326879775143     
 total        electrons   591.20326879775143     
 total        electrons   591.20326879775143     
 total        electrons   591.20326879775143     
 total        electrons   591.20326879775143     
 total        electrons   591.20326879775143     
 total        electrons   591.20326879775143     
 total        electrons   591.20326879775143     
 total        electrons   591.20326879775143     
 total        electrons   591.20326879775143     
 entering main loop
       N       E                     dE             d eps       ncg     rms          rms(c)
RMM:   1     0.197736906819E+04    0.19774E+04   -0.57782E+04 17880   0.112E+03
RMM:   2     0.457327431482E+03   -0.15200E+04   -0.17630E+04 17880   0.271E+02
RMM:   3    -0.145160999874E+02   -0.47184E+03   -0.61453E+03 17880   0.170E+02
RMM:   4    -0.201843672244E+03   -0.18733E+03   -0.20638E+03 17880   0.206E+02
RMM:   5    -0.317452384710E+03   -0.11561E+03   -0.94280E+02 17880   0.118E+02
RMM:   6    -0.374720948189E+03   -0.57269E+02   -0.45023E+02 17880   0.109E+02
RMM:   7    -0.407511200294E+03   -0.32790E+02   -0.29388E+02 17880   0.656E+01
RMM:   8    -0.426921435910E+03   -0.19410E+02   -0.16750E+02 17880   0.661E+01
RMM:   9    -0.461227391004E+03   -0.34306E+02   -0.33269E+02 50187   0.382E+01
RMM:  10    -0.466398399998E+03   -0.51710E+01   -0.54499E+01 50159   0.876E+00
RMM:  11    -0.467459941872E+03   -0.10615E+01   -0.88288E+00 50256   0.290E+00
RMM:  12    -0.467838609566E+03   -0.37867E+00   -0.29444E+00 50400   0.102E+00    0.117E+02
RMM:  13    -0.436945206126E+03    0.30893E+02   -0.78220E+02 47290   0.867E+01    0.654E+01
RMM:  14    -0.497301731215E+03   -0.60357E+02   -0.27106E+02 50504   0.332E+01    0.437E+01
RMM:  15    -0.411084958150E+03    0.86217E+02   -0.60163E+01 46191   0.235E+01    0.263E+01
RMM:  16    -0.402659522837E+03    0.84254E+01   -0.30819E+01 40887   0.209E+01    0.210E+01
RMM:  17    -0.397594805898E+03    0.50647E+01   -0.12979E+01 47924   0.974E+00    0.164E+01
RMM:  18    -0.397721483697E+03   -0.12668E+00   -0.21594E+00 40601   0.506E+00    0.151E+01
RMM:  19    -0.398025312252E+03   -0.30383E+00   -0.13874E+00 48030   0.234E+00    0.134E+01
RMM:  20    -0.397193810962E+03    0.83150E+00   -0.11312E+01 35765   0.150E+01    0.913E+00
RMM:  21    -0.397202826103E+03   -0.90151E-02   -0.49059E+00 49589   0.374E+00    0.831E+00
RMM:  22    -0.396711802692E+03    0.49102E+00   -0.53676E-01 36916   0.262E+00    0.521E+00
RMM:  23    -0.396624357638E+03    0.87445E-01   -0.52797E-01 47581   0.173E+00    0.427E+00
RMM:  24    -0.396471827225E+03    0.15253E+00   -0.18117E-01 38970   0.157E+00    0.236E+00
RMM:  25    -0.396452925021E+03    0.18902E-01   -0.49570E-01 40637   0.207E+00    0.154E+00
RMM:  26    -0.396445404757E+03    0.75203E-02   -0.14689E-01 35800   0.178E+00    0.152E+00
RMM:  27    -0.396423488887E+03    0.21916E-01   -0.36532E-02 43641   0.606E-01    0.432E-01
RMM:  28    -0.396426746497E+03   -0.32576E-02   -0.22142E-02 47750   0.247E-01    0.493E-01
RMM:  29    -0.396424555545E+03    0.21910E-02   -0.75578E-03 36518   0.323E-01    0.139E-01
RMM:  30    -0.396428129626E+03   -0.35741E-02   -0.13050E-02 46233   0.245E-01    0.296E-01
RMM:  31    -0.396429999064E+03   -0.18694E-02   -0.36168E-03 50504   0.771E-02    0.391E-01
RMM:  32    -0.396429433730E+03    0.56533E-03   -0.81748E-04 35771   0.121E-01    0.235E-01
RMM:  33    -0.396429816978E+03   -0.38325E-03   -0.27381E-03 37505   0.166E-01    0.283E-02
RMM:  34    -0.396430215531E+03   -0.39855E-03   -0.11628E-03 49974   0.494E-02    0.520E-02
RMM:  35    -0.396430346635E+03   -0.13110E-03   -0.59894E-05 36398   0.319E-02    0.292E-02
RMM:  36    -0.396430565418E+03   -0.21878E-03   -0.76195E-05 45441   0.214E-02    0.397E-02
RMM:  37    -0.396430603334E+03   -0.37917E-04   -0.34295E-05 35566   0.239E-02    0.127E-02
RMM:  38    -0.396430659616E+03   -0.56281E-04   -0.34026E-05 37275   0.105E-02    0.550E-03
RMM:  39    -0.396430666579E+03   -0.69632E-05   -0.84481E-06 26543   0.104E-02    0.170E-02
RMM:  40    -0.396430700796E+03   -0.34217E-04   -0.74633E-06 28257   0.132E-02    0.717E-03
RMM:  41    -0.396430747450E+03   -0.46653E-04   -0.56523E-06 26532   0.391E-03    0.684E-03
RMM:  42    -0.396430770224E+03   -0.22774E-04   -0.16075E-06 23619   0.470E-03    0.222E-03
RMM:  43    -0.396430794558E+03   -0.24335E-04   -0.32946E-06 25679   0.439E-03    0.473E-03
RMM:  44    -0.396430807978E+03   -0.13420E-04   -0.10985E-06 22183   0.472E-03    0.165E-03
RMM:  45    -0.396430813875E+03   -0.58961E-05   -0.67357E-07 20456   0.250E-03    0.219E-03
RMM:  46    -0.396430818505E+03   -0.46307E-05   -0.57001E-07 20285   0.283E-03    0.830E-04
RMM:  47    -0.396430819966E+03   -0.14605E-05   -0.27589E-07 14701   0.135E-03    0.553E-04
RMM:  48    -0.396430820711E+03   -0.74581E-06   -0.18848E-07 14705   0.159E-03
   1 F= -.39643082E+03 E0= -.39643266E+03  d E =-.396431E+03
 curvature:   0.00 expect dE= 0.000E+00 dE for cont linesearch  0.000E+00
 trial: gam= 0.00000 g(F)=  0.194E-02 g(S)=  0.000E+00 ort = 0.000E+00 (trialstep = 0.100E+01)
 search vector abs. value=  0.194E-02
 bond charge predicted
       N       E                     dE             d eps       ncg     rms          rms(c)
RMM:   1    -0.396432496976E+03   -0.16770E-02   -0.26173E-02 36009   0.411E-01    0.745E-02
RMM:   2    -0.396432799131E+03   -0.30216E-03   -0.27658E-03 35984   0.300E-01    0.856E-02
RMM:   3    -0.396432842397E+03   -0.43266E-04   -0.38723E-04 37960   0.831E-02    0.836E-02
RMM:   4    -0.396432786944E+03    0.55453E-04   -0.14339E-04 41969   0.407E-02    0.448E-02
RMM:   5    -0.396432789392E+03   -0.24484E-05   -0.87924E-05 45146   0.211E-02    0.452E-02
RMM:   6    -0.396432784534E+03    0.48578E-05   -0.54232E-05 36244   0.274E-02    0.392E-02
RMM:   7    -0.396432769085E+03    0.15449E-04   -0.33720E-05 38329   0.226E-02    0.137E-02
RMM:   8    -0.396432769126E+03   -0.40378E-07   -0.18248E-05 35753   0.128E-02    0.118E-02
RMM:   9    -0.396432767268E+03    0.18580E-05   -0.40315E-06 24965   0.770E-03    0.495E-03
RMM:  10    -0.396432767066E+03    0.20134E-06   -0.12260E-06 22809   0.381E-03
   2 F= -.39643277E+03 E0= -.39643463E+03  d E =-.194636E-02
 ZBRENT: can't locate minimum, use default step
 trial-energy change:   -0.001946  1 .order   -0.001947   -0.001943   -0.001951
 step:   4.0000(harm=  4.0000)  dis= 0.03808  next Energy=  -396.438657 (dE=-0.784E-02)
 bond charge predicted
       N       E                     dE             d eps       ncg     rms          rms(c)
RMM:   1    -0.396436194560E+03   -0.34273E-02   -0.23402E-01 36035   0.123E+00    0.223E-01
RMM:   2    -0.396439025370E+03   -0.28308E-02   -0.25663E-02 35987   0.912E-01    0.271E-01
RMM:   3    -0.396439307485E+03   -0.28212E-03   -0.35947E-03 37768   0.258E-01    0.247E-01
RMM:   4    -0.396438842336E+03    0.46515E-03   -0.13470E-03 42783   0.122E-01    0.137E-01
RMM:   5    -0.396438851022E+03   -0.86866E-05   -0.78666E-04 46620   0.641E-02    0.136E-01
RMM:   6    -0.396438808444E+03    0.42578E-04   -0.48100E-04 37133   0.820E-02    0.118E-01
RMM:   7    -0.396438674372E+03    0.13407E-03   -0.30387E-04 40009   0.677E-02    0.443E-02
RMM:   8    -0.396438677977E+03   -0.36051E-05   -0.18732E-04 44613   0.411E-02    0.393E-02
RMM:   9    -0.396438656792E+03    0.21184E-04   -0.44928E-05 37304   0.236E-02    0.151E-02
RMM:  10    -0.396438655204E+03    0.15882E-05   -0.19115E-05 31756   0.744E-03    0.889E-03
RMM:  11    -0.396438655242E+03   -0.37453E-07   -0.61503E-06 26953   0.875E-03
   3 F= -.39643866E+03 E0= -.39644056E+03  d E =-.783453E-02
 curvature:  -3.01 expect dE=-0.778E-02 dE for cont linesearch -0.600E-02
 ZBRENT: increasing intervall
 opt :  10.0000  next Energy=  -396.450575 (dE=-0.198E-01)
 bond charge predicted
       N       E                     dE             d eps       ncg     rms          rms(c)
RMM:   1    -0.396440710977E+03   -0.20558E-02   -0.92492E-01 36111   0.244E+00    0.446E-01
RMM:   2    -0.396452569714E+03   -0.11859E-01   -0.10755E-01 36003   0.186E+00    0.588E-01
RMM:   3    -0.396453219476E+03   -0.64976E-03   -0.15156E-02 37527   0.542E-01    0.494E-01
RMM:   4    -0.396451350131E+03    0.18693E-02   -0.55696E-03 43380   0.240E-01    0.280E-01
RMM:   5    -0.396451319253E+03    0.30878E-04   -0.30813E-03 46008   0.132E-01    0.274E-01
RMM:   6    -0.396451130481E+03    0.18877E-03   -0.18528E-03 37196   0.161E-01    0.231E-01
RMM:   7    -0.396450633202E+03    0.49728E-03   -0.12141E-03 40011   0.135E-01    0.957E-02
RMM:   8    -0.396450652493E+03   -0.19291E-04   -0.83467E-04 44204   0.888E-02    0.842E-02
RMM:   9    -0.396450554982E+03    0.97511E-04   -0.20469E-04 39355   0.512E-02    0.322E-02
RMM:  10    -0.396450546367E+03    0.86147E-05   -0.88167E-05 43831   0.160E-02    0.188E-02
RMM:  11    -0.396450545735E+03    0.63249E-06   -0.25781E-05 36458   0.155E-02    0.196E-02
RMM:  12    -0.396450541965E+03    0.37702E-05   -0.22162E-05 40300   0.146E-02    0.698E-03
RMM:  13    -0.396450542001E+03   -0.36809E-07   -0.68981E-06 27898   0.553E-03
   4 F= -.39645054E+03 E0= -.39645255E+03  d E =-.197213E-01
 curvature:  -5.97 expect dE=-0.307E-01 dE for cont linesearch -0.120E-01
 ZBRENT: increasing intervall
 opt :  22.0000  next Energy=  -396.474396 (dE=-0.436E-01)
 bond charge predicted
       N       E                     dE             d eps       ncg     rms          rms(c)
RMM:   1    -0.396439026776E+03    0.11515E-01   -0.36341E+00 36246   0.483E+00    0.876E-01
RMM:   2    -0.396486861787E+03   -0.47835E-01   -0.45800E-01 36000   0.382E+00    0.135E+00
RMM:   3    -0.396482988038E+03    0.38737E-02   -0.65228E-02 37363   0.116E+00    0.910E-01
RMM:   4    -0.396477040829E+03    0.59472E-02   -0.23431E-02 44671   0.452E-01    0.582E-01
RMM:   5    -0.396476478630E+03    0.56220E-03   -0.11091E-02 45436   0.266E-01    0.552E-01
RMM:   6    -0.396475608693E+03    0.86994E-03   -0.67852E-03 37515   0.310E-01    0.457E-01
RMM:   7    -0.396473796084E+03    0.18126E-02   -0.50982E-03 40282   0.271E-01    0.213E-01
RMM:   8    -0.396473948749E+03   -0.15267E-03   -0.42210E-03 44257   0.200E-01    0.185E-01
RMM:   9    -0.396473476780E+03    0.47197E-03   -0.10177E-03 39949   0.114E-01    0.749E-02
RMM:  10    -0.396473401728E+03    0.75052E-04   -0.37980E-04 47486   0.371E-02    0.412E-02
RMM:  11    -0.396473385816E+03    0.15912E-04   -0.18083E-04 46123   0.369E-02    0.415E-02
RMM:  12    -0.396473370228E+03    0.15589E-04   -0.10014E-04 42304   0.343E-02    0.234E-02
RMM:  13    -0.396473365423E+03    0.48050E-05   -0.41227E-05 42928   0.143E-02    0.748E-03
RMM:  14    -0.396473366585E+03   -0.11620E-05   -0.98330E-06 28405   0.689E-03    0.604E-03
RMM:  15    -0.396473366935E+03   -0.35025E-06   -0.17024E-06 22831   0.532E-03
   5 F= -.39647337E+03 E0= -.39647554E+03  d E =-.425462E-01
 curvature: -11.84 expect dE=-0.135E+00 dE for cont linesearch -0.191E-01
 ZBRENT: increasing intervall
 opt :  46.0000  next Energy=  -396.510782 (dE=-0.800E-01)
 bond charge predicted
       N       E                     dE             d eps       ncg     rms          rms(c)
RMM:   1    -0.396460870747E+03    0.12496E-01   -0.14356E+01 36900   0.940E+00    0.165E+00
RMM:   2    -0.396594184231E+03   -0.13331E+00   -0.18627E+00 36017   0.754E+00    0.322E+00
RMM:   3    -0.396531074482E+03    0.63110E-01   -0.28502E-01 37749   0.241E+00    0.146E+00
RMM:   4    -0.396517986270E+03    0.13088E-01   -0.91422E-02 46980   0.730E-01    0.124E+00
RMM:   5    -0.396513727575E+03    0.42587E-02   -0.32841E-02 45123   0.484E-01    0.113E+00
RMM:   6    -0.396509608027E+03    0.41195E-02   -0.22115E-02 38328   0.564E-01    0.926E-01
RMM:   7    -0.396502064101E+03    0.75439E-02   -0.28037E-02 41197   0.599E-01    0.456E-01
RMM:   8    -0.396503792053E+03   -0.17280E-02   -0.27794E-02 46390   0.458E-01    0.414E-01
RMM:   9    -0.396501616990E+03    0.21751E-02   -0.48089E-03 39987   0.254E-01    0.206E-01
RMM:  10    -0.396500755631E+03    0.86136E-03   -0.17242E-03 46415   0.107E-01    0.110E-01
RMM:  11    -0.396500398903E+03    0.35673E-03   -0.21719E-03 48711   0.114E-01    0.505E-02
RMM:  12    -0.396500371821E+03    0.27081E-04   -0.39656E-04 49776   0.410E-02    0.314E-02
RMM:  13    -0.396500371514E+03    0.30744E-06   -0.69147E-05 39608   0.291E-02    0.281E-02
RMM:  14    -0.396500369684E+03    0.18298E-05   -0.41852E-05 43716   0.161E-02    0.152E-02
RMM:  15    -0.396500366097E+03    0.35874E-05   -0.15268E-05 33016   0.928E-03    0.740E-03
RMM:  16    -0.396500365997E+03    0.99575E-07   -0.13242E-05 35812   0.839E-03    0.304E-03
RMM:  17    -0.396500366732E+03   -0.73469E-06   -0.15905E-06 21767   0.470E-03
   6 F= -.39650037E+03 E0= -.39650272E+03  d E =-.695460E-01
 curvature: -23.24 expect dE=-0.244E+00 dE for cont linesearch -0.547E-03
 trial: gam= 5.29864 g(F)=  0.105E-01 g(S)=  0.000E+00 ort = 0.214E-03 (trialstep = 0.289E+00)
 search vector abs. value=  0.673E-01
 bond charge predicted
       N       E                     dE             d eps       ncg     rms          rms(c)
RMM:   1    -0.396502282089E+03   -0.19161E-02   -0.72719E-02 37002   0.699E-01    0.167E-01
RMM:   2    -0.396504102192E+03   -0.18201E-02   -0.11782E-02 35892   0.617E-01    0.287E-01
RMM:   3    -0.396503897328E+03    0.20486E-03   -0.20671E-03 36298   0.220E-01    0.191E-01
RMM:   4    -0.396503490782E+03    0.40655E-03   -0.44076E-04 40936   0.809E-02    0.103E-01
RMM:   5    -0.396503442676E+03    0.48106E-04   -0.18758E-04 41081   0.380E-02    0.883E-02
RMM:   6    -0.396503446307E+03   -0.36311E-05   -0.81610E-05 42694   0.240E-02    0.789E-02
RMM:   7    -0.396503423046E+03    0.23261E-04   -0.81555E-05 39604   0.336E-02    0.265E-02
RMM:   8    -0.396503431862E+03   -0.88165E-05   -0.65769E-05 42225   0.272E-02    0.267E-02
RMM:   9    -0.396503420325E+03    0.11537E-04   -0.14424E-05 31476   0.151E-02    0.578E-03
RMM:  10    -0.396503420210E+03    0.11520E-06   -0.64482E-06 27124   0.510E-03
   7 F= -.39650342E+03 E0= -.39650579E+03  d E =-.305348E-02
 ZBRENT: can't locate minimum, use default step
 trial-energy change:   -0.003053  1 .order   -0.003043   -0.003360   -0.002727
 step:   1.1544(harm=  1.5329)  dis= 0.05478  next Energy=  -396.507949 (dE=-0.758E-02)
 bond charge predicted
       N       E                     dE             d eps       ncg     rms          rms(c)
RMM:   1    -0.396498487605E+03    0.49327E-02   -0.65944E-01 37080   0.210E+00    0.478E-01
RMM:   2    -0.396514782276E+03   -0.16295E-01   -0.10672E-01 35872   0.186E+00    0.870E-01
RMM:   3    -0.396512029441E+03    0.27528E-02   -0.17594E-02 36247   0.654E-01    0.530E-01
RMM:   4    -0.396509071399E+03    0.29580E-02   -0.36912E-03 41595   0.227E-01    0.311E-01
RMM:   5    -0.396508692293E+03    0.37911E-03   -0.14947E-03 41428   0.107E-01    0.273E-01
RMM:   6    -0.396508711980E+03   -0.19687E-04   -0.68399E-04 44277   0.719E-02    0.243E-01
RMM:   7    -0.396508472519E+03    0.23946E-03   -0.90513E-04 39770   0.113E-01    0.764E-02
RMM:   8    -0.396508563009E+03   -0.90490E-04   -0.65278E-04 43851   0.819E-02    0.818E-02
RMM:   9    -0.396508455701E+03    0.10731E-03   -0.13722E-04 37591   0.468E-02    0.202E-02
RMM:  10    -0.396508452237E+03    0.34638E-05   -0.65409E-05 42746   0.152E-02    0.153E-02
RMM:  11    -0.396508451697E+03    0.53977E-06   -0.19445E-05 35628   0.143E-02    0.170E-02
RMM:  12    -0.396508449399E+03    0.22977E-05   -0.18190E-05 39043   0.134E-02    0.685E-03
RMM:  13    -0.396508449041E+03    0.35804E-06   -0.34168E-06 25042   0.534E-03
   8 F= -.39650845E+03 E0= -.39651084E+03  d E =-.808231E-02
 curvature:  -4.02 expect dE=-0.172E-01 dE for cont linesearch -0.204E-03
 ZBRENT: extrapolating
 opt :   1.3646  next Energy=  -396.508643 (dE=-0.828E-02)
 bond charge predicted
       N       E                     dE             d eps       ncg     rms          rms(c)
RMM:   1    -0.396507994556E+03    0.45484E-03   -0.38902E-02 37251   0.514E-01    0.129E-01
RMM:   2    -0.396509053313E+03   -0.10588E-02   -0.66382E-03 35875   0.462E-01    0.226E-01
RMM:   3    -0.396508900354E+03    0.15296E-03   -0.12190E-03 36350   0.170E-01    0.147E-01
RMM:   4    -0.396508659911E+03    0.24044E-03   -0.23403E-04 40411   0.616E-02    0.811E-02
RMM:   5    -0.396508631765E+03    0.28146E-04   -0.10179E-04 40218   0.288E-02    0.700E-02
RMM:   6    -0.396508634625E+03   -0.28603E-05   -0.45743E-05 38705   0.177E-02    0.630E-02
RMM:   7    -0.396508622350E+03    0.12275E-04   -0.46369E-05 38656   0.256E-02    0.197E-02
RMM:   8    -0.396508627062E+03   -0.47117E-05   -0.35645E-05 39736   0.202E-02    0.196E-02
RMM:   9    -0.396508620922E+03    0.61404E-05   -0.75492E-06 27140   0.110E-02    0.442E-03
RMM:  10    -0.396508620857E+03    0.64458E-07   -0.33556E-06 25139   0.449E-03
   9 F= -.39650862E+03 E0= -.39651102E+03  d E =-.825413E-02
 curvature:  -3.83 expect dE=-0.136E-01 dE for cont linesearch -0.388E-05
 trial: gam=-0.17700 g(F)=  0.355E-02 g(S)=  0.000E+00 ort =-0.261E-03 (trialstep = 0.504E+00)
 search vector abs. value=  0.575E-02
 bond charge predicted
       N       E                     dE             d eps       ncg     rms          rms(c)
RMM:   1    -0.396510123731E+03   -0.15028E-02   -0.19008E-02 36557   0.356E-01    0.822E-02
RMM:   2    -0.396510623365E+03   -0.49963E-03   -0.30445E-03 35980   0.317E-01    0.152E-01
RMM:   3    -0.396510484422E+03    0.13894E-03   -0.45963E-04 35890   0.108E-01    0.821E-02
RMM:   4    -0.396510429919E+03    0.54503E-04   -0.12363E-04 41899   0.373E-02    0.539E-02
RMM:   5    -0.396510406214E+03    0.23704E-04   -0.47759E-05 37263   0.248E-02    0.396E-02
RMM:   6    -0.396510412188E+03   -0.59740E-05   -0.43152E-05 39962   0.205E-02    0.364E-02
RMM:   7    -0.396510399306E+03    0.12882E-04   -0.31006E-05 36453   0.227E-02    0.100E-02
RMM:   8    -0.396510400489E+03   -0.11828E-05   -0.14578E-05 32142   0.120E-02    0.109E-02
RMM:   9    -0.396510398696E+03    0.17928E-05   -0.31814E-06 24393   0.757E-03    0.336E-03
RMM:  10    -0.396510398647E+03    0.49024E-07   -0.10628E-06 22508   0.320E-03
  10 F= -.39651040E+03 E0= -.39651280E+03  d E =-.177779E-02
 ZBRENT: can't locate minimum, use default step
 trial-energy change:   -0.001778  1 .order   -0.001776   -0.001809   -0.001742
 step:   2.0152(harm= 13.6302)  dis= 0.00566  next Energy=  -396.533097 (dE=-0.245E-01)
 bond charge predicted
       N       E                     dE             d eps       ncg     rms          rms(c)
RMM:   1    -0.396512806251E+03   -0.24076E-02   -0.17085E-01 36599   0.107E+00    0.254E-01
RMM:   2    -0.396517464430E+03   -0.46582E-02   -0.28215E-02 35991   0.962E-01    0.472E-01
RMM:   3    -0.396516137228E+03    0.13272E-02   -0.43529E-03 35912   0.332E-01    0.256E-01
RMM:   4    -0.396515605871E+03    0.53136E-03   -0.11540E-03 42181   0.114E-01    0.166E-01
RMM:   5    -0.396515389933E+03    0.21594E-03   -0.46107E-04 38853   0.762E-02    0.124E-01
RMM:   6    -0.396515454198E+03   -0.64265E-04   -0.41958E-04 42736   0.641E-02    0.115E-01
RMM:   7    -0.396515328823E+03    0.12537E-03   -0.27879E-04 38003   0.678E-02    0.306E-02
RMM:   8    -0.396515339046E+03   -0.10223E-04   -0.14594E-04 44062   0.365E-02    0.335E-02
RMM:   9    -0.396515322848E+03    0.16198E-04   -0.34867E-05 35056   0.194E-02    0.974E-03
RMM:  10    -0.396515323109E+03   -0.26147E-06   -0.16528E-05 29874   0.696E-03    0.708E-03
RMM:  11    -0.396515322892E+03    0.21725E-06   -0.30336E-06 24154   0.659E-03
  11 F= -.39651532E+03 E0= -.39651774E+03  d E =-.670203E-02
 curvature:  -2.37 expect dE=-0.644E-02 dE for cont linesearch -0.377E-02
 ZBRENT: increasing intervall
 opt :   5.0380  next Energy=  -396.523171 (dE=-0.146E-01)
 bond charge predicted
       N       E                     dE             d eps       ncg     rms          rms(c)
RMM:   1    -0.396512874855E+03    0.24483E-02   -0.68255E-01 36592   0.214E+00    0.538E-01
RMM:   2    -0.396531611348E+03   -0.18736E-01   -0.11464E-01 36007   0.193E+00    0.958E-01
RMM:   3    -0.396527021569E+03    0.45898E-02   -0.19023E-02 35984   0.685E-01    0.570E-01
RMM:   4    -0.396524157903E+03    0.28637E-02   -0.46990E-03 41280   0.248E-01    0.346E-01
RMM:   5    -0.396523201857E+03    0.95605E-03   -0.20337E-03 38650   0.163E-01    0.258E-01
RMM:   6    -0.396523536840E+03   -0.33498E-03   -0.19716E-03 42486   0.139E-01    0.242E-01
RMM:   7    -0.396522957825E+03    0.57901E-03   -0.11133E-03 37962   0.135E-01    0.641E-02
RMM:   8    -0.396522990090E+03   -0.32265E-04   -0.59522E-04 43827   0.733E-02    0.655E-02
RMM:   9    -0.396522930534E+03    0.59556E-04   -0.15925E-04 40541   0.389E-02    0.190E-02
RMM:  10    -0.396522931988E+03   -0.14540E-05   -0.68859E-05 38233   0.122E-02    0.130E-02
RMM:  11    -0.396522931757E+03    0.23114E-06   -0.13060E-05 28971   0.109E-02    0.119E-02
RMM:  12    -0.396522930568E+03    0.11889E-05   -0.70510E-06 28470   0.911E-03    0.424E-03
RMM:  13    -0.396522930863E+03   -0.29538E-06   -0.29278E-06 24609   0.481E-03
  12 F= -.39652293E+03 E0= -.39652537E+03  d E =-.143100E-01
 curvature:  -4.92 expect dE=-0.701E-02 dE for cont linesearch -0.317E-02
 ZBRENT: increasing intervall
 opt :  11.0835  next Energy=  -396.527890 (dE=-0.193E-01)
 bond charge predicted
       N       E                     dE             d eps       ncg     rms          rms(c)
RMM:   1    -0.396488777442E+03    0.34153E-01   -0.27482E+00 36616   0.428E+00    0.118E+00
RMM:   2    -0.396558836698E+03   -0.70059E-01   -0.45616E-01 35986   0.380E+00    0.193E+00
RMM:   3    -0.396548169472E+03    0.10667E-01   -0.86041E-02 36256   0.141E+00    0.135E+00
RMM:   4    -0.396530695726E+03    0.17474E-01   -0.19943E-02 40208   0.563E-01    0.738E-01
RMM:   5    -0.396526329547E+03    0.43662E-02   -0.10126E-02 38452   0.363E-01    0.554E-01
RMM:   6    -0.396528120108E+03   -0.17906E-02   -0.99885E-03 41777   0.324E-01    0.528E-01
RMM:   7    -0.396525272327E+03    0.28478E-02   -0.48735E-03 38680   0.280E-01    0.158E-01
RMM:   8    -0.396525363067E+03   -0.90740E-04   -0.26330E-03 43253   0.157E-01    0.144E-01
RMM:   9    -0.396525068944E+03    0.29412E-03   -0.77372E-04 40733   0.858E-02    0.414E-02
RMM:  10    -0.396525076824E+03   -0.78799E-05   -0.33241E-04 47837   0.248E-02    0.253E-02
RMM:  11    -0.396525084895E+03   -0.80711E-05   -0.66052E-05 40121   0.256E-02    0.348E-02
RMM:  12    -0.396525071266E+03    0.13629E-04   -0.23355E-05 34653   0.189E-02    0.108E-02
RMM:  13    -0.396525072643E+03   -0.13772E-05   -0.23009E-05 37264   0.812E-03    0.612E-03
RMM:  14    -0.396525072605E+03    0.37639E-07   -0.37907E-06 25908   0.735E-03
  13 F= -.39652507E+03 E0= -.39652750E+03  d E =-.164517E-01
 curvature:  -7.70 expect dE=-0.403E-02 dE for cont linesearch -0.325E-02
 ZBRENT: bracketing found
 ZBRENT: interpolating
 opt :   8.3795  next Energy=  -396.527178 (dE=-0.186E-01)
 bond charge predicted
       N       E                     dE             d eps       ncg     rms          rms(c)
RMM:   1    -0.396518937542E+03    0.61351E-02   -0.55396E-01 36522   0.190E+00    0.445E-01
RMM:   2    -0.396531425118E+03   -0.12488E-01   -0.86201E-02 36085   0.168E+00    0.746E-01
RMM:   3    -0.396529213378E+03    0.22117E-02   -0.12701E-02 35988   0.565E-01    0.456E-01
RMM:   4    -0.396527612188E+03    0.16012E-02   -0.35466E-03 42707   0.205E-01    0.288E-01
RMM:   5    -0.396527213842E+03    0.39835E-03   -0.19334E-03 40169   0.148E-01    0.260E-01
RMM:   6    -0.396527315801E+03   -0.10196E-03   -0.17760E-03 40318   0.152E-01    0.227E-01
RMM:   7    -0.396526781813E+03    0.53399E-03   -0.11484E-03 38692   0.140E-01    0.727E-02
RMM:   8    -0.396526791658E+03   -0.98457E-05   -0.58209E-04 44376   0.729E-02    0.651E-02
RMM:   9    -0.396526736885E+03    0.54774E-04   -0.14666E-04 39761   0.407E-02    0.267E-02
RMM:  10    -0.396526730882E+03    0.60030E-05   -0.65568E-05 39635   0.134E-02    0.147E-02
RMM:  11    -0.396526731370E+03   -0.48867E-06   -0.22117E-05 35802   0.143E-02    0.182E-02
RMM:  12    -0.396526727413E+03    0.39568E-05   -0.14468E-05 34239   0.136E-02    0.528E-03
RMM:  13    -0.396526727485E+03   -0.71259E-07   -0.57951E-06 27054   0.495E-03
  14 F= -.39652673E+03 E0= -.39652916E+03  d E =-.181066E-01
 curvature:  -4.99 expect dE=-0.181E-02 dE for cont linesearch -0.570E-04
 ZBRENT: interpolating
 opt :   8.7614  next Energy=  -396.526776 (dE=-0.182E-01)
 bond charge predicted
       N       E                     dE             d eps       ncg     rms          rms(c)
RMM:   1    -0.396526611008E+03    0.11641E-03   -0.10939E-02 36551   0.270E-01    0.680E-02
RMM:   2    -0.396526889943E+03   -0.27893E-03   -0.18091E-03 36051   0.244E-01    0.113E-01
RMM:   3    -0.396526845301E+03    0.44641E-04   -0.29237E-04 35973   0.849E-02    0.730E-02
RMM:   4    -0.396526798509E+03    0.46792E-04   -0.69713E-05 40364   0.318E-02    0.427E-02
RMM:   5    -0.396526787208E+03    0.11301E-04   -0.37958E-05 36299   0.215E-02    0.360E-02
RMM:   6    -0.396526791849E+03   -0.46408E-05   -0.35778E-05 37520   0.210E-02    0.324E-02
RMM:   7    -0.396526780478E+03    0.11371E-04   -0.19984E-05 34291   0.190E-02    0.906E-03
RMM:   8    -0.396526780812E+03   -0.33412E-06   -0.92937E-06 29510   0.100E-02
  15 F= -.39652678E+03 E0= -.39652922E+03  d E =-.181600E-01
 curvature:  -4.29 expect dE=-0.131E-02 dE for cont linesearch -0.244E-06
 trial: gam=-0.06428 g(F)=  0.306E-03 g(S)=  0.000E+00 ort = 0.181E-04 (trialstep = 0.216E+01)
 search vector abs. value=  0.328E-03
 bond charge predicted
       N       E                     dE             d eps       ncg     rms          rms(c)
RMM:   1    -0.396526993774E+03   -0.21330E-03   -0.19812E-02 37085   0.364E-01    0.877E-02
RMM:   2    -0.396527490756E+03   -0.49698E-03   -0.31603E-03 35876   0.318E-01    0.149E-01
RMM:   3    -0.396527462704E+03    0.28052E-04   -0.56905E-04 36250   0.116E-01    0.108E-01
RMM:   4    -0.396527334867E+03    0.12784E-03   -0.11915E-04 40017   0.443E-02    0.563E-02
RMM:   5    -0.396527322871E+03    0.11996E-04   -0.42172E-05 34616   0.178E-02    0.492E-02
RMM:   6    -0.396527323541E+03   -0.67027E-06   -0.15065E-05 29829   0.966E-03    0.451E-02
RMM:   7    -0.396527320521E+03    0.30202E-05   -0.16655E-05 33789   0.171E-02    0.159E-02
RMM:   8    -0.396527322880E+03   -0.23596E-05   -0.16145E-05 33812   0.155E-02    0.140E-02
RMM:   9    -0.396527319387E+03    0.34931E-05   -0.34215E-06 24545   0.845E-03    0.299E-03
RMM:  10    -0.396527319389E+03   -0.14315E-08   -0.10069E-06 22346   0.320E-03
  16 F= -.39652732E+03 E0= -.39652976E+03  d E =-.538577E-03
 trial-energy change:   -0.000539  1 .order   -0.000539   -0.000657   -0.000420
 step:   5.9642(harm=  5.9642)  dis= 0.01055  next Energy=  -396.527690 (dE=-0.910E-03)
 bond charge predicted
       N       E                     dE             d eps       ncg     rms          rms(c)
RMM:   1    -0.396526660762E+03    0.65863E-03   -0.62014E-02 37165   0.643E-01    0.157E-01
RMM:   2    -0.396528323603E+03   -0.16628E-02   -0.10208E-02 35862   0.570E-01    0.282E-01
RMM:   3    -0.396528129541E+03    0.19406E-03   -0.18639E-03 36210   0.212E-01    0.191E-01
RMM:   4    -0.396527732417E+03    0.39712E-03   -0.37507E-04 40535   0.770E-02    0.101E-01
RMM:   5    -0.396527693379E+03    0.39038E-04   -0.13306E-04 40522   0.314E-02    0.882E-02
RMM:   6    -0.396527695523E+03   -0.21437E-05   -0.47591E-05 37775   0.153E-02    0.814E-02
RMM:   7    -0.396527685131E+03    0.10392E-04   -0.51702E-05 36952   0.276E-02    0.282E-02
RMM:   8    -0.396527693289E+03   -0.81579E-05   -0.51046E-05 39455   0.263E-02    0.254E-02
RMM:   9    -0.396527682466E+03    0.10823E-04   -0.11876E-05 30622   0.145E-02    0.512E-03
RMM:  10    -0.396527682366E+03    0.99692E-07   -0.41613E-06 25586   0.468E-03
  17 F= -.39652768E+03 E0= -.39653014E+03  d E =-.901554E-03
 curvature:  -3.20 expect dE=-0.116E-03 dE for cont linesearch -0.480E-06
 trial: gam= 0.15439 g(F)=  0.363E-04 g(S)=  0.000E+00 ort =-0.700E-05 (trialstep = 0.292E+01)
 search vector abs. value=  0.420E-04
 bond charge predicted
       N       E                     dE             d eps       ncg     rms          rms(c)
RMM:   1    -0.396527689950E+03   -0.74845E-05   -0.48710E-03 36548   0.176E-01    0.369E-02
RMM:   2    -0.396527808662E+03   -0.11871E-03   -0.77306E-04 35819   0.161E-01    0.720E-02
RMM:   3    -0.396527780012E+03    0.28650E-04   -0.10448E-04 36272   0.506E-02    0.391E-02
RMM:   4    -0.396527767630E+03    0.12382E-04   -0.31055E-05 37393   0.172E-02    0.250E-02
RMM:   5    -0.396527763406E+03    0.42240E-05   -0.84830E-06 26988   0.108E-02    0.202E-02
RMM:   6    -0.396527763822E+03   -0.41657E-06   -0.63557E-06 26844   0.880E-03
  18 F= -.39652776E+03 E0= -.39653022E+03  d E =-.814564E-04
 trial-energy change:   -0.000081  1 .order   -0.000079   -0.000103   -0.000056
 step:   6.4243(harm=  6.4243)  dis= 0.00053  next Energy=  -396.527796 (dE=-0.113E-03)
 reached required accuracy - stopping structural energy minimisation
 augmentation electrons   20.905544118356897     
 soft         electrons   168.14856461050420     
 total        electrons   189.05410872886108     
 augmentation electrons   20.905544118356897     
 soft         electrons   168.14856461050420     
 total        electrons   189.05410872886108     
 augmentation electrons   20.905544118356897     
 soft         electrons   168.14856461050420     
 total        electrons   189.05410872886108     
 augmentation electrons   20.905544118356897     
 soft         electrons   168.14856461050420     
 total        electrons   189.05410872886108     
 augmentation electrons   20.905544118356897     
 soft         electrons   168.14856461050420     
 total        electrons   189.05410872886108     
 augmentation electrons   20.905544118356897     
 soft         electrons   168.14856461050420     
 total        electrons   189.05410872886108     
 augmentation electrons   20.905544118356897     
 soft         electrons   168.14856461050420     
 total        electrons   189.05410872886108     
 augmentation electrons   20.905544118356897     
 soft         electrons   168.14856461050420     
 total        electrons   189.05410872886108     
 augmentation electrons   20.905544118356897     
 soft         electrons   168.14856461050420     
 total        electrons   189.05410872886108     
 augmentation electrons   20.905544118356897     
 soft         electrons   168.14856461050420     
 total        electrons   189.05410872886108     
 augmentation electrons   20.905544118356897     
 soft         electrons   168.14856461050420     
 total        electrons   189.05410872886108     
 augmentation electrons   20.905544118356897     
 soft         electrons   168.14856461050420     
 total        electrons   189.05410872886108     
 augmentation electrons   20.905544118356897     
 soft         electrons   168.14856461050420     
 total        electrons   189.05410872886108     
 augmentation electrons   20.905544118356897     
 soft         electrons   168.14856461050420     
 total        electrons   189.05410872886108     
 augmentation electrons   20.905544118356897     
 soft         electrons   168.14856461050420     
 total        electrons   189.05410872886108     
 augmentation electrons   20.905544118356897     
 soft         electrons   168.14856461050420     
 total        electrons   189.05410872886108     
 augmentation electrons   20.905544118356897     
 soft         electrons   168.14856461050420     
 total        electrons   189.05410872886108     
 augmentation electrons   20.905544118356897     
 soft         electrons   168.14856461050420     
 total        electrons   189.05410872886108     
 augmentation electrons   20.905544118356897     
 soft         electrons   168.14856461050420     
 total        electrons   189.05410872886108     
 augmentation electrons   20.905544118356897     
 soft         electrons   168.14856461050420     
 total        electrons   189.05410872886108     
 augmentation electrons   20.905544118356897     
 soft         electrons   168.14856461050420     
 total        electrons   189.05410872886108     
 augmentation electrons   20.905544118356897     
 soft         electrons   168.14856461050420     
 total        electrons   189.05410872886108     
 augmentation electrons   20.905544118356897     
 soft         electrons   168.14856461050420     
 total        electrons   189.05410872886108     
 augmentation electrons   20.905544118356897     
 soft         electrons   168.14856461050420     
 total        electrons   189.05410872886108     
 augmentation electrons   20.905544118356897     
 soft         electrons   168.14856461050420     
 total        electrons   189.05410872886108     
 augmentation electrons   20.905544118356897     
 soft         electrons   168.14856461050420     
 total        electrons   189.05410872886108     
 augmentation electrons   20.905544118356897     
 soft         electrons   168.14856461050420     
 total        electrons   189.05410872886108     
 augmentation electrons   20.905544118356897     
 soft         electrons   168.14856461050420     
 total        electrons   189.05410872886108     
 augmentation electrons   20.905544118356897     
 soft         electrons   168.14856461050420     
 total        electrons   189.05410872886108     
 augmentation electrons   20.905544118356897     
 soft         electrons   168.14856461050420     
 total        electrons   189.05410872886108     
 augmentation electrons   20.905544118356897     
 soft         electrons   168.14856461050420     
 total        electrons   189.05410872886108     
 augmentation electrons   20.905544118356897     
 soft         electrons   168.14856461050420     
 total        electrons   189.05410872886108     
 augmentation electrons   20.905544118356897     
 soft         electrons   168.14856461050420     
 total        electrons   189.05410872886108     
 augmentation electrons   20.905544118356897     
 soft         electrons   168.14856461050420     
 total        electrons   189.05410872886108     
 augmentation electrons   20.905544118356897     
 soft         electrons   168.14856461050420     
 total        electrons   189.05410872886108     
 augmentation electrons   20.905544118356897     
 soft         electrons   168.14856461050420     
 total        electrons   189.05410872886108     
 augmentation electrons   20.905544118356897     
 soft         electrons   168.14856461050420     
 total        electrons   189.05410872886108     
 augmentation electrons   20.905544118356897     
 soft         electrons   168.14856461050420     
 total        electrons   189.05410872886108     
 augmentation electrons   20.905544118356897     
 soft         electrons   168.14856461050420     
 total        electrons   189.05410872886108     
 augmentation electrons   20.905544118356897     
 soft         electrons   168.14856461050420     
 total        electrons   189.05410872886108     
 augmentation electrons   20.905544118356897     
 soft         electrons   168.14856461050420     
 total        electrons   189.05410872886108     
 augmentation electrons   20.905544118356897     
 soft         electrons   168.14856461050420     
 total        electrons   189.05410872886108     
 augmentation electrons   20.905544118356897     
 soft         electrons   168.14856461050420     
 total        electrons   189.05410872886108     
 augmentation electrons   20.905544118356897     
 soft         electrons   168.14856461050420     
 total        electrons   189.05410872886108     
 augmentation electrons   20.905544118356897     
 soft         electrons   168.14856461050420     
 total        electrons   189.05410872886108     
 augmentation electrons   20.905544118356897     
 soft         electrons   168.14856461050420     
 total        electrons   189.05410872886108     
 augmentation electrons   20.905544118356897     
 soft         electrons   168.14856461050420     
 total        electrons   189.05410872886108     
 augmentation electrons   20.905544118356897     
 soft         electrons   168.14856461050420     
 total        electrons   189.05410872886108     
Note: The following floating-point exceptions are signalling: IEEE_OVERFLOW_FLAG
Note: The following floating-point exceptions are signalling: IEEE_OVERFLOW_FLAG
Note: The following floating-point exceptions are signalling: IEEE_OVERFLOW_FLAG
Note: The following floating-point exceptions are signalling: IEEE_OVERFLOW_FLAG
Note: The following floating-point exceptions are signalling: IEEE_OVERFLOW_FLAG
Note: The following floating-point exceptions are signalling: IEEE_OVERFLOW_FLAG
Note: The following floating-point exceptions are signalling: IEEE_OVERFLOW_FLAG
Note: The following floating-point exceptions are signalling: IEEE_OVERFLOW_FLAG
Note: The following floating-point exceptions are signalling: IEEE_OVERFLOW_FLAG
Note: The following floating-point exceptions are signalling: IEEE_OVERFLOW_FLAG
Note: The following floating-point exceptions are signalling: IEEE_OVERFLOW_FLAG
Note: The following floating-point exceptions are signalling: IEEE_OVERFLOW_FLAG
Note: The following floating-point exceptions are signalling: IEEE_OVERFLOW_FLAG
Note: The following floating-point exceptions are signalling: IEEE_OVERFLOW_FLAG
Note: The following floating-point exceptions are signalling: IEEE_OVERFLOW_FLAG
Note: The following floating-point exceptions are signalling: IEEE_OVERFLOW_FLAG
Note: The following floating-point exceptions are signalling: IEEE_OVERFLOW_FLAG
Note: The following floating-point exceptions are signalling: IEEE_OVERFLOW_FLAG
Note: The following floating-point exceptions are signalling: IEEE_OVERFLOW_FLAG
Note: The following floating-point exceptions are signalling: IEEE_OVERFLOW_FLAG
Note: The following floating-point exceptions are signalling: IEEE_INVALID_FLAG IEEE_OVERFLOW_FLAG
Note: The following floating-point exceptions are signalling: IEEE_OVERFLOW_FLAG
Note: The following floating-point exceptions are signalling: IEEE_OVERFLOW_FLAG
Note: The following floating-point exceptions are signalling: IEEE_OVERFLOW_FLAG
Note: The following floating-point exceptions are signalling: IEEE_OVERFLOW_FLAG
Note: The following floating-point exceptions are signalling: IEEE_OVERFLOW_FLAG
Note: The following floating-point exceptions are signalling: IEEE_OVERFLOW_FLAG
Note: The following floating-point exceptions are signalling: IEEE_OVERFLOW_FLAG
Note: The following floating-point exceptions are signalling: IEEE_OVERFLOW_FLAG
Note: The following floating-point exceptions are signalling: IEEE_OVERFLOW_FLAG
Note: The following floating-point exceptions are signalling: IEEE_OVERFLOW_FLAG
Note: The following floating-point exceptions are signalling: IEEE_OVERFLOW_FLAG
Note: The following floating-point exceptions are signalling: IEEE_OVERFLOW_FLAG
Note: The following floating-point exceptions are signalling: IEEE_OVERFLOW_FLAG
Note: The following floating-point exceptions are signalling: IEEE_OVERFLOW_FLAG
Note: The following floating-point exceptions are signalling: IEEE_OVERFLOW_FLAG
Note: The following floating-point exceptions are signalling: IEEE_OVERFLOW_FLAG
Note: The following floating-point exceptions are signalling: IEEE_OVERFLOW_FLAG
Note: The following floating-point exceptions are signalling: IEEE_OVERFLOW_FLAG
Note: The following floating-point exceptions are signalling: IEEE_OVERFLOW_FLAG
Note: The following floating-point exceptions are signalling: IEEE_OVERFLOW_FLAG
Note: The following floating-point exceptions are signalling: IEEE_OVERFLOW_FLAG
Note: The following floating-point exceptions are signalling: IEEE_OVERFLOW_FLAG
Note: The following floating-point exceptions are signalling: IEEE_OVERFLOW_FLAG
Note: The following floating-point exceptions are signalling: IEEE_OVERFLOW_FLAG
Note: The following floating-point exceptions are signalling: IEEE_OVERFLOW_FLAG
Note: The following floating-point exceptions are signalling: IEEE_OVERFLOW_FLAG
Note: The following floating-point exceptions are signalling: IEEE_OVERFLOW_FLAG
