   73   73    1    1
  0.2117639E+02  0.1037634E-08  0.2428383E-08  0.6134986E-09  0.5000000E-15
  1.000000000000000E-004
  CAR 
 Name                                    
    277     68    180
 
  0.0000000E+00  0.0000000E+00  0.0000000E+00  0.7407407E-02
    1      -14.011609   1.000000
    2      -12.917146   1.000000
    3      -12.773445   1.000000
    4      -12.719590   1.000000
    5      -11.897155   1.000000
    6      -11.693896   1.000000
    7      -11.645016   1.000000
    8      -11.577244   1.000000
    9      -11.382929   1.000000
   10      -11.249140   1.000000
   11      -11.168006   1.000000
   12      -10.908835   1.000000
   13      -10.862991   1.000000
   14      -10.571816   1.000000
   15      -10.510747   1.000000
   16      -10.280008   1.000000
   17      -10.180614   1.000000
   18       -9.992304   1.000000
   19       -9.877755   1.000000
   20       -9.633919   1.000000
   21       -9.509216   1.000000
   22       -9.461895   1.000000
   23       -9.325438   1.000000
   24       -9.247826   1.000000
   25       -8.857233   1.000000
   26       -8.793474   1.000000
   27       -8.547979   1.000000
   28       -8.378679   1.000000
   29       -8.126588   1.000000
   30       -8.094022   1.000000
   31       -8.091251   1.000000
   32       -7.755315   1.000000
   33       -7.734707   1.000000
   34       -7.342644   1.000000
   35       -7.240245   1.000000
   36       -7.109663   1.000000
   37       -6.857055   1.000000
   38       -6.790069   1.000000
   39       -6.758615   1.000000
   40       -6.615264   1.000000
   41       -6.597764   1.000000
   42       -6.578387   1.000000
   43       -6.433301   1.000000
   44       -6.320650   1.000000
   45       -6.264125   1.000000
   46       -6.202290   1.000000
   47       -6.118424   1.000000
   48       -6.041951   1.000000
   49       -6.012535   1.000000
   50       -5.807792   1.000000
   51       -5.768111   1.000000
   52       -5.625397   1.000000
   53       -5.563245   1.000000
   54       -5.547485   1.000000
   55       -5.501795   1.000000
   56       -5.468598   1.000000
   57       -5.344223   1.000000
   58       -5.289829   1.000000
   59       -5.109918   1.000000
   60       -5.102427   1.000000
   61       -4.920552   1.000000
   62       -4.710444   1.000000
   63       -4.666690   1.000000
   64       -4.578943   1.000000
   65       -4.472369   1.000000
   66       -4.445424   1.000000
   67       -4.400412   1.000000
   68       -4.383718   1.000000
   69       -4.103812   1.000000
   70       -4.094866   1.000000
   71       -3.987563   1.000000
   72       -3.930318   1.000000
   73       -3.907463   1.000000
   74       -3.851801   1.000000
   75       -3.797052   1.000000
   76       -3.776457   1.000000
   77       -3.744430   1.000000
   78       -3.726599   1.000000
   79       -3.621682   1.000000
   80       -3.548739   1.000000
   81       -3.496413   1.000000
   82       -3.464825   1.000000
   83       -3.433439   1.000000
   84       -3.413138   1.000000
   85       -3.387116   1.000000
   86       -3.361704   1.000000
   87       -3.354107   1.000000
   88       -3.317389   1.000000
   89       -3.309994   1.000000
   90       -3.282303   1.000000
   91       -3.163099   1.000000
   92       -2.976752   1.000000
   93       -2.866854   1.000000
   94       -2.747646   1.000000
   95       -2.729418   1.000000
   96       -2.660860   1.000000
   97       -2.548843   1.000000
   98       -2.542509   1.000000
   99       -2.447181   1.000000
  100       -2.369167   1.000000
  101       -2.165016   1.000000
  102       -2.161672   1.000000
  103       -2.154238   1.000000
  104       -2.081341   1.000000
  105       -1.995552   1.000000
  106       -1.948457   1.000000
  107       -1.941787   1.000000
  108       -1.931160   1.000000
  109       -1.893933   1.000000
  110       -1.799366   1.000000
  111       -1.770594   1.000000
  112       -1.660702   1.000000
  113       -1.649437   1.000000
  114       -1.544791   1.000000
  115       -1.470510   1.000000
  116       -1.458374   1.000000
  117       -1.427066   1.000000
  118       -1.389787   1.000000
  119       -1.184436   1.000000
  120       -1.089483   1.000000
  121       -1.049381   1.000000
  122       -0.790175   1.000000
  123       -0.720451   1.000000
  124       -0.544699   1.000000
  125       -0.491468   1.000000
  126       -0.455904   1.000000
  127       -0.320633   1.000000
  128       -0.279323   1.000000
  129       -0.186541   1.000000
  130       -0.120282   1.000000
  131        0.077812   1.000000
  132        0.090155   1.000000
  133        0.194906   1.000037
  134        0.354321   1.024672
  135        0.424692   1.004169
  136        0.466546   0.837234
  137        0.501387   0.579700
  138        0.549550   0.198107
  139        0.574562   0.064027
  140        0.594227   0.001814
  141        0.625256  -0.034340
  142        0.643873  -0.033979
  143        0.691418  -0.014214
  144        0.718797  -0.006133
  145        0.726851  -0.004610
  146        0.742219  -0.002556
  147        0.773136  -0.000657
  148        0.887036  -0.000001
  149        0.899554  -0.000000
  150        0.996945  -0.000000
  151        1.033653  -0.000000
  152        1.106152  -0.000000
  153        1.192142  -0.000000
  154        1.203014  -0.000000
  155        1.232181  -0.000000
  156        1.299682  -0.000000
  157        1.342121  -0.000000
  158        1.369392  -0.000000
  159        1.396429  -0.000000
  160        1.446950  -0.000000
  161        1.469824  -0.000000
  162        1.476235  -0.000000
  163        1.527634  -0.000000
  164        1.538423  -0.000000
  165        1.595577  -0.000000
  166        1.659912  -0.000000
  167        1.690208  -0.000000
  168        1.707922  -0.000000
  169        1.761268  -0.000000
  170        1.785194  -0.000000
  171        1.792961  -0.000000
  172        1.829419  -0.000000
  173        1.874641  -0.000000
  174        1.925292  -0.000000
  175        2.184468  -0.000000
  176        2.420504  -0.000000
  177        2.475614  -0.000000
  178        2.527115  -0.000000
  179        2.855542  -0.000000
  180        3.800730   0.000000
 
  0.2000000E+00  0.1050933E-20  0.0000000E+00  0.1481481E-01
    1      -13.962694   1.000000
    2      -13.251250   1.000000
    3      -12.707893   1.000000
    4      -12.333929   1.000000
    5      -12.035534   1.000000
    6      -11.881392   1.000000
    7      -11.656377   1.000000
    8      -11.356263   1.000000
    9      -11.267998   1.000000
   10      -11.171932   1.000000
   11      -11.098741   1.000000
   12      -10.986427   1.000000
   13      -10.756237   1.000000
   14      -10.627583   1.000000
   15      -10.601376   1.000000
   16      -10.509147   1.000000
   17      -10.408013   1.000000
   18      -10.186313   1.000000
   19       -9.645585   1.000000
   20       -9.510856   1.000000
   21       -9.478378   1.000000
   22       -9.387636   1.000000
   23       -9.304662   1.000000
   24       -9.260927   1.000000
   25       -9.045976   1.000000
   26       -8.777207   1.000000
   27       -8.427377   1.000000
   28       -8.116578   1.000000
   29       -8.097062   1.000000
   30       -8.076657   1.000000
   31       -8.002293   1.000000
   32       -7.946597   1.000000
   33       -7.588796   1.000000
   34       -7.451299   1.000000
   35       -7.265976   1.000000
   36       -7.152368   1.000000
   37       -7.070885   1.000000
   38       -6.889746   1.000000
   39       -6.816792   1.000000
   40       -6.633179   1.000000
   41       -6.610455   1.000000
   42       -6.494966   1.000000
   43       -6.415878   1.000000
   44       -6.346851   1.000000
   45       -6.324924   1.000000
   46       -6.212128   1.000000
   47       -6.127645   1.000000
   48       -6.006978   1.000000
   49       -5.918241   1.000000
   50       -5.875555   1.000000
   51       -5.793624   1.000000
   52       -5.653892   1.000000
   53       -5.562890   1.000000
   54       -5.422940   1.000000
   55       -5.302767   1.000000
   56       -5.259360   1.000000
   57       -5.218980   1.000000
   58       -5.193855   1.000000
   59       -5.164441   1.000000
   60       -5.128193   1.000000
   61       -5.088937   1.000000
   62       -4.803058   1.000000
   63       -4.707742   1.000000
   64       -4.684868   1.000000
   65       -4.528373   1.000000
   66       -4.449623   1.000000
   67       -4.430278   1.000000
   68       -4.346693   1.000000
   69       -4.058110   1.000000
   70       -4.053678   1.000000
   71       -4.005066   1.000000
   72       -3.951894   1.000000
   73       -3.929331   1.000000
   74       -3.847379   1.000000
   75       -3.797940   1.000000
   76       -3.723997   1.000000
   77       -3.705625   1.000000
   78       -3.676233   1.000000
   79       -3.666389   1.000000
   80       -3.640948   1.000000
   81       -3.529474   1.000000
   82       -3.485240   1.000000
   83       -3.461520   1.000000
   84       -3.415530   1.000000
   85       -3.403758   1.000000
   86       -3.342668   1.000000
   87       -3.324164   1.000000
   88       -3.295733   1.000000
   89       -3.251314   1.000000
   90       -3.228436   1.000000
   91       -3.179810   1.000000
   92       -2.979836   1.000000
   93       -2.889013   1.000000
   94       -2.819126   1.000000
   95       -2.792191   1.000000
   96       -2.692654   1.000000
   97       -2.570395   1.000000
   98       -2.550306   1.000000
   99       -2.437039   1.000000
  100       -2.396993   1.000000
  101       -2.229598   1.000000
  102       -2.205276   1.000000
  103       -2.142476   1.000000
  104       -2.030986   1.000000
  105       -1.993293   1.000000
  106       -1.917581   1.000000
  107       -1.876467   1.000000
  108       -1.848004   1.000000
  109       -1.796395   1.000000
  110       -1.775930   1.000000
  111       -1.741545   1.000000
  112       -1.737506   1.000000
  113       -1.581238   1.000000
  114       -1.537535   1.000000
  115       -1.454835   1.000000
  116       -1.345708   1.000000
  117       -1.329963   1.000000
  118       -1.295758   1.000000
  119       -1.270340   1.000000
  120       -1.074263   1.000000
  121       -0.944455   1.000000
  122       -0.818888   1.000000
  123       -0.767654   1.000000
  124       -0.579878   1.000000
  125       -0.560559   1.000000
  126       -0.488545   1.000000
  127       -0.390938   1.000000
  128       -0.292397   1.000000
  129       -0.259890   1.000000
  130       -0.134061   1.000000
  131       -0.105357   1.000000
  132       -0.068881   1.000000
  133       -0.027121   1.000000
  134        0.263674   1.001312
  135        0.344101   1.019985
  136        0.428803   0.995102
  137        0.512781   0.483667
  138        0.546445   0.218890
  139        0.609466  -0.023629
  140        0.654583  -0.030332
  141        0.687263  -0.015848
  142        0.696703  -0.012286
  143        0.702951  -0.010232
  144        0.764610  -0.000977
  145        0.774784  -0.000608
  146        0.822771  -0.000047
  147        0.832507  -0.000026
  148        0.866763  -0.000003
  149        0.911459  -0.000000
  150        0.978993  -0.000000
  151        1.087430  -0.000000
  152        1.160222  -0.000000
  153        1.213203  -0.000000
  154        1.252566  -0.000000
  155        1.291634  -0.000000
  156        1.308569  -0.000000
  157        1.337518  -0.000000
  158        1.414111  -0.000000
  159        1.442735  -0.000000
  160        1.484129  -0.000000
  161        1.527987  -0.000000
  162        1.535185  -0.000000
  163        1.558240  -0.000000
  164        1.584106  -0.000000
  165        1.643276  -0.000000
  166        1.670840  -0.000000
  167        1.694774  -0.000000
  168        1.731157  -0.000000
  169        1.755063  -0.000000
  170        1.769747  -0.000000
  171        1.807017  -0.000000
  172        1.876671  -0.000000
  173        1.976425  -0.000000
  174        2.011074  -0.000000
  175        2.142407  -0.000000
  176        2.199637  -0.000000
  177        2.308187  -0.000000
  178        2.405502  -0.000000
  179        2.580146  -0.000000
  180        2.736227  -0.000000
 
  0.4000000E+00  0.2101866E-20  0.0000000E+00  0.1481481E-01
    1      -13.817283   1.000000
    2      -13.576717   1.000000
    3      -12.577224   1.000000
    4      -12.340920   1.000000
    5      -11.836442   1.000000
    6      -11.778014   1.000000
    7      -11.758700   1.000000
    8      -11.282368   1.000000
    9      -11.162107   1.000000
   10      -11.136181   1.000000
   11      -11.097453   1.000000
   12      -10.990505   1.000000
   13      -10.847012   1.000000
   14      -10.802383   1.000000
   15      -10.616492   1.000000
   16      -10.582795   1.000000
   17      -10.495623   1.000000
   18      -10.253414   1.000000
   19       -9.949663   1.000000
   20       -9.527775   1.000000
   21       -9.480351   1.000000
   22       -9.256883   1.000000
   23       -9.214182   1.000000
   24       -9.147679   1.000000
   25       -8.982303   1.000000
   26       -8.747364   1.000000
   27       -8.328276   1.000000
   28       -8.186283   1.000000
   29       -8.000298   1.000000
   30       -7.829636   1.000000
   31       -7.752101   1.000000
   32       -7.676937   1.000000
   33       -7.656913   1.000000
   34       -7.622401   1.000000
   35       -7.463442   1.000000
   36       -7.391668   1.000000
   37       -7.206275   1.000000
   38       -7.126201   1.000000
   39       -7.003465   1.000000
   40       -6.771879   1.000000
   41       -6.586434   1.000000
   42       -6.422682   1.000000
   43       -6.387128   1.000000
   44       -6.347138   1.000000
   45       -6.265296   1.000000
   46       -6.223830   1.000000
   47       -5.947704   1.000000
   48       -5.918583   1.000000
   49       -5.821313   1.000000
   50       -5.799865   1.000000
   51       -5.709244   1.000000
   52       -5.685332   1.000000
   53       -5.636157   1.000000
   54       -5.547090   1.000000
   55       -5.411436   1.000000
   56       -5.321686   1.000000
   57       -5.180336   1.000000
   58       -5.056396   1.000000
   59       -5.016160   1.000000
   60       -5.007191   1.000000
   61       -4.918707   1.000000
   62       -4.893905   1.000000
   63       -4.809162   1.000000
   64       -4.625515   1.000000
   65       -4.592446   1.000000
   66       -4.465105   1.000000
   67       -4.355401   1.000000
   68       -4.270750   1.000000
   69       -4.168125   1.000000
   70       -4.149949   1.000000
   71       -4.076096   1.000000
   72       -3.989965   1.000000
   73       -3.963115   1.000000
   74       -3.883618   1.000000
   75       -3.874835   1.000000
   76       -3.836983   1.000000
   77       -3.744063   1.000000
   78       -3.647270   1.000000
   79       -3.587469   1.000000
   80       -3.561719   1.000000
   81       -3.547899   1.000000
   82       -3.531746   1.000000
   83       -3.491776   1.000000
   84       -3.432043   1.000000
   85       -3.392483   1.000000
   86       -3.368032   1.000000
   87       -3.290722   1.000000
   88       -3.221758   1.000000
   89       -3.115430   1.000000
   90       -3.092851   1.000000
   91       -3.076006   1.000000
   92       -3.016391   1.000000
   93       -2.965607   1.000000
   94       -2.902881   1.000000
   95       -2.821504   1.000000
   96       -2.795736   1.000000
   97       -2.737264   1.000000
   98       -2.601764   1.000000
   99       -2.547127   1.000000
  100       -2.354367   1.000000
  101       -2.162713   1.000000
  102       -2.109146   1.000000
  103       -2.090223   1.000000
  104       -2.048934   1.000000
  105       -2.007825   1.000000
  106       -1.970015   1.000000
  107       -1.887505   1.000000
  108       -1.844629   1.000000
  109       -1.839411   1.000000
  110       -1.830370   1.000000
  111       -1.599698   1.000000
  112       -1.525957   1.000000
  113       -1.495258   1.000000
  114       -1.433505   1.000000
  115       -1.329742   1.000000
  116       -1.296528   1.000000
  117       -1.231991   1.000000
  118       -1.096310   1.000000
  119       -1.011617   1.000000
  120       -0.974656   1.000000
  121       -0.919052   1.000000
  122       -0.884872   1.000000
  123       -0.833125   1.000000
  124       -0.737867   1.000000
  125       -0.639962   1.000000
  126       -0.636075   1.000000
  127       -0.576969   1.000000
  128       -0.534569   1.000000
  129       -0.475412   1.000000
  130       -0.466982   1.000000
  131       -0.166864   1.000000
  132       -0.102625   1.000000
  133        0.073674   1.000000
  134        0.135370   1.000001
  135        0.191739   1.000031
  136        0.445153   0.943950
  137        0.491532   0.660154
  138        0.524786   0.383333
  139        0.549761   0.196727
  140        0.619675  -0.032027
  141        0.635927  -0.035357
  142        0.656751  -0.029435
  143        0.742764  -0.002500
  144        0.781695  -0.000434
  145        0.794640  -0.000225
  146        0.833123  -0.000025
  147        0.944174  -0.000000
  148        0.984364  -0.000000
  149        1.035292  -0.000000
  150        1.080092  -0.000000
  151        1.094860  -0.000000
  152        1.255877  -0.000000
  153        1.280807  -0.000000
  154        1.334046  -0.000000
  155        1.359968  -0.000000
  156        1.413564  -0.000000
  157        1.448462  -0.000000
  158        1.475847  -0.000000
  159        1.496572  -0.000000
  160        1.533036  -0.000000
  161        1.552745  -0.000000
  162        1.573738  -0.000000
  163        1.599606  -0.000000
  164        1.660648  -0.000000
  165        1.698655  -0.000000
  166        1.733488  -0.000000
  167        1.766935  -0.000000
  168        1.787877  -0.000000
  169        1.799908  -0.000000
  170        1.852676  -0.000000
  171        1.881967  -0.000000
  172        1.926839  -0.000000
  173        1.971744  -0.000000
  174        1.992676  -0.000000
  175        2.032106  -0.000000
  176        2.390187  -0.000000
  177        2.599867  -0.000000
  178        2.707242  -0.000000
  179        2.948845  -0.000000
  180        3.085715  -0.000000
 
 -0.1102218E-21  0.3333333E+00 -0.3388132E-20  0.1481481E-01
    1      -14.011610   1.000000
    2      -12.917146   1.000000
    3      -12.773445   1.000000
    4      -12.719590   1.000000
    5      -11.897154   1.000000
    6      -11.693896   1.000000
    7      -11.645015   1.000000
    8      -11.577246   1.000000
    9      -11.382929   1.000000
   10      -11.249136   1.000000
   11      -11.168004   1.000000
   12      -10.908834   1.000000
   13      -10.862992   1.000000
   14      -10.571811   1.000000
   15      -10.510745   1.000000
   16      -10.280004   1.000000
   17      -10.180612   1.000000
   18       -9.992303   1.000000
   19       -9.877752   1.000000
   20       -9.633915   1.000000
   21       -9.509214   1.000000
   22       -9.461895   1.000000
   23       -9.325435   1.000000
   24       -9.247823   1.000000
   25       -8.857230   1.000000
   26       -8.793469   1.000000
   27       -8.547978   1.000000
   28       -8.378678   1.000000
   29       -8.126590   1.000000
   30       -8.094032   1.000000
   31       -8.091251   1.000000
   32       -7.755302   1.000000
   33       -7.734703   1.000000
   34       -7.342639   1.000000
   35       -7.240236   1.000000
   36       -7.109656   1.000000
   37       -6.857048   1.000000
   38       -6.790069   1.000000
   39       -6.758616   1.000000
   40       -6.615267   1.000000
   41       -6.597764   1.000000
   42       -6.578386   1.000000
   43       -6.433288   1.000000
   44       -6.320648   1.000000
   45       -6.264120   1.000000
   46       -6.202288   1.000000
   47       -6.118431   1.000000
   48       -6.041949   1.000000
   49       -6.012540   1.000000
   50       -5.807790   1.000000
   51       -5.768110   1.000000
   52       -5.625396   1.000000
   53       -5.563246   1.000000
   54       -5.547481   1.000000
   55       -5.501795   1.000000
   56       -5.468598   1.000000
   57       -5.344222   1.000000
   58       -5.289828   1.000000
   59       -5.109917   1.000000
   60       -5.102417   1.000000
   61       -4.920543   1.000000
   62       -4.710446   1.000000
   63       -4.666682   1.000000
   64       -4.578945   1.000000
   65       -4.472373   1.000000
   66       -4.445417   1.000000
   67       -4.400420   1.000000
   68       -4.383708   1.000000
   69       -4.103813   1.000000
   70       -4.094863   1.000000
   71       -3.987560   1.000000
   72       -3.930318   1.000000
   73       -3.907461   1.000000
   74       -3.851797   1.000000
   75       -3.797049   1.000000
   76       -3.776452   1.000000
   77       -3.744423   1.000000
   78       -3.726597   1.000000
   79       -3.621674   1.000000
   80       -3.548730   1.000000
   81       -3.496415   1.000000
   82       -3.464824   1.000000
   83       -3.433436   1.000000
   84       -3.413136   1.000000
   85       -3.387118   1.000000
   86       -3.361703   1.000000
   87       -3.354103   1.000000
   88       -3.317387   1.000000
   89       -3.309991   1.000000
   90       -3.282303   1.000000
   91       -3.163094   1.000000
   92       -2.976749   1.000000
   93       -2.866861   1.000000
   94       -2.747642   1.000000
   95       -2.729415   1.000000
   96       -2.660863   1.000000
   97       -2.548842   1.000000
   98       -2.542510   1.000000
   99       -2.447175   1.000000
  100       -2.369163   1.000000
  101       -2.165015   1.000000
  102       -2.161676   1.000000
  103       -2.154241   1.000000
  104       -2.081337   1.000000
  105       -1.995541   1.000000
  106       -1.948455   1.000000
  107       -1.941789   1.000000
  108       -1.931161   1.000000
  109       -1.893930   1.000000
  110       -1.799363   1.000000
  111       -1.770593   1.000000
  112       -1.660700   1.000000
  113       -1.649437   1.000000
  114       -1.544784   1.000000
  115       -1.470511   1.000000
  116       -1.458367   1.000000
  117       -1.427064   1.000000
  118       -1.389785   1.000000
  119       -1.184435   1.000000
  120       -1.089477   1.000000
  121       -1.049377   1.000000
  122       -0.790180   1.000000
  123       -0.720450   1.000000
  124       -0.544705   1.000000
  125       -0.491471   1.000000
  126       -0.455902   1.000000
  127       -0.320637   1.000000
  128       -0.279322   1.000000
  129       -0.186536   1.000000
  130       -0.120274   1.000000
  131        0.077809   1.000000
  132        0.090152   1.000000
  133        0.194910   1.000037
  134        0.354318   1.024670
  135        0.424689   1.004175
  136        0.466547   0.837227
  137        0.501386   0.579701
  138        0.549554   0.198083
  139        0.574566   0.064012
  140        0.594235   0.001794
  141        0.625257  -0.034341
  142        0.643893  -0.033974
  143        0.691426  -0.014212
  144        0.718800  -0.006132
  145        0.726852  -0.004609
  146        0.742218  -0.002556
  147        0.773136  -0.000657
  148        0.887039  -0.000001
  149        0.899556  -0.000000
  150        0.996940  -0.000000
  151        1.033651  -0.000000
  152        1.106152  -0.000000
  153        1.192143  -0.000000
  154        1.203014  -0.000000
  155        1.232185  -0.000000
  156        1.299680  -0.000000
  157        1.342119  -0.000000
  158        1.369382  -0.000000
  159        1.396436  -0.000000
  160        1.447008  -0.000000
  161        1.469833  -0.000000
  162        1.476267  -0.000000
  163        1.529154  -0.000000
  164        1.539719  -0.000000
  165        1.596593  -0.000000
  166        1.680046  -0.000000
  167        1.707818  -0.000000
  168        1.724232  -0.000000
  169        1.752578  -0.000000
  170        1.784985  -0.000000
  171        1.796371  -0.000000
  172        1.854911  -0.000000
  173        1.864598  -0.000000
  174        2.182311  -0.000000
  175        2.404702  -0.000000
  176        2.463527  -0.000000
  177        2.528800  -0.000000
  178        2.734880  -0.000000
  179        2.867312  -0.000000
  180        3.290113   0.000000
 
  0.2000000E+00  0.3333333E+00  0.1016440E-19  0.1481481E-01
    1      -13.962695   1.000000
    2      -13.251251   1.000000
    3      -12.707894   1.000000
    4      -12.333931   1.000000
    5      -12.035534   1.000000
    6      -11.881392   1.000000
    7      -11.656378   1.000000
    8      -11.356263   1.000000
    9      -11.268000   1.000000
   10      -11.171931   1.000000
   11      -11.098741   1.000000
   12      -10.986428   1.000000
   13      -10.756238   1.000000
   14      -10.627584   1.000000
   15      -10.601375   1.000000
   16      -10.509148   1.000000
   17      -10.408013   1.000000
   18      -10.186314   1.000000
   19       -9.645584   1.000000
   20       -9.510856   1.000000
   21       -9.478378   1.000000
   22       -9.387638   1.000000
   23       -9.304662   1.000000
   24       -9.260926   1.000000
   25       -9.045972   1.000000
   26       -8.777205   1.000000
   27       -8.427374   1.000000
   28       -8.116578   1.000000
   29       -8.097062   1.000000
   30       -8.076658   1.000000
   31       -8.002294   1.000000
   32       -7.946595   1.000000
   33       -7.588791   1.000000
   34       -7.451293   1.000000
   35       -7.265970   1.000000
   36       -7.152359   1.000000
   37       -7.070882   1.000000
   38       -6.889746   1.000000
   39       -6.816790   1.000000
   40       -6.633176   1.000000
   41       -6.610457   1.000000
   42       -6.494969   1.000000
   43       -6.415879   1.000000
   44       -6.346850   1.000000
   45       -6.324924   1.000000
   46       -6.212130   1.000000
   47       -6.127644   1.000000
   48       -6.006976   1.000000
   49       -5.918239   1.000000
   50       -5.875558   1.000000
   51       -5.793623   1.000000
   52       -5.653898   1.000000
   53       -5.562889   1.000000
   54       -5.422936   1.000000
   55       -5.302766   1.000000
   56       -5.259365   1.000000
   57       -5.218978   1.000000
   58       -5.193854   1.000000
   59       -5.164441   1.000000
   60       -5.128192   1.000000
   61       -5.088940   1.000000
   62       -4.803059   1.000000
   63       -4.707742   1.000000
   64       -4.684868   1.000000
   65       -4.528373   1.000000
   66       -4.449623   1.000000
   67       -4.430281   1.000000
   68       -4.346694   1.000000
   69       -4.058107   1.000000
   70       -4.053675   1.000000
   71       -4.005069   1.000000
   72       -3.951890   1.000000
   73       -3.929334   1.000000
   74       -3.847386   1.000000
   75       -3.797944   1.000000
   76       -3.724001   1.000000
   77       -3.705624   1.000000
   78       -3.676236   1.000000
   79       -3.666389   1.000000
   80       -3.640948   1.000000
   81       -3.529477   1.000000
   82       -3.485243   1.000000
   83       -3.461523   1.000000
   84       -3.415531   1.000000
   85       -3.403758   1.000000
   86       -3.342669   1.000000
   87       -3.324165   1.000000
   88       -3.295735   1.000000
   89       -3.251315   1.000000
   90       -3.228438   1.000000
   91       -3.179810   1.000000
   92       -2.979838   1.000000
   93       -2.889014   1.000000
   94       -2.819129   1.000000
   95       -2.792192   1.000000
   96       -2.692654   1.000000
   97       -2.570396   1.000000
   98       -2.550303   1.000000
   99       -2.437039   1.000000
  100       -2.396992   1.000000
  101       -2.229598   1.000000
  102       -2.205276   1.000000
  103       -2.142476   1.000000
  104       -2.030988   1.000000
  105       -1.993291   1.000000
  106       -1.917581   1.000000
  107       -1.876469   1.000000
  108       -1.848006   1.000000
  109       -1.796397   1.000000
  110       -1.775932   1.000000
  111       -1.741546   1.000000
  112       -1.737505   1.000000
  113       -1.581237   1.000000
  114       -1.537532   1.000000
  115       -1.454834   1.000000
  116       -1.345706   1.000000
  117       -1.329962   1.000000
  118       -1.295758   1.000000
  119       -1.270339   1.000000
  120       -1.074262   1.000000
  121       -0.944453   1.000000
  122       -0.818889   1.000000
  123       -0.767652   1.000000
  124       -0.579877   1.000000
  125       -0.560560   1.000000
  126       -0.488548   1.000000
  127       -0.390937   1.000000
  128       -0.292399   1.000000
  129       -0.259889   1.000000
  130       -0.134060   1.000000
  131       -0.105352   1.000000
  132       -0.068880   1.000000
  133       -0.027122   1.000000
  134        0.263671   1.001312
  135        0.344101   1.019984
  136        0.428803   0.995103
  137        0.512783   0.483658
  138        0.546444   0.218894
  139        0.609468  -0.023632
  140        0.654584  -0.030331
  141        0.687264  -0.015848
  142        0.696704  -0.012285
  143        0.702953  -0.010232
  144        0.764611  -0.000977
  145        0.774785  -0.000608
  146        0.822772  -0.000047
  147        0.832508  -0.000026
  148        0.866763  -0.000003
  149        0.911458  -0.000000
  150        0.978993  -0.000000
  151        1.087430  -0.000000
  152        1.160223  -0.000000
  153        1.213202  -0.000000
  154        1.252567  -0.000000
  155        1.291637  -0.000000
  156        1.308571  -0.000000
  157        1.337519  -0.000000
  158        1.414244  -0.000000
  159        1.442755  -0.000000
  160        1.483979  -0.000000
  161        1.527519  -0.000000
  162        1.536775  -0.000000
  163        1.557502  -0.000000
  164        1.583852  -0.000000
  165        1.644493  -0.000000
  166        1.679315  -0.000000
  167        1.699029  -0.000000
  168        1.741423  -0.000000
  169        1.753057  -0.000000
  170        1.785937  -0.000000
  171        1.812894  -0.000000
  172        1.839583  -0.000000
  173        1.914596  -0.000000