   24   24    1    1
  0.8822742E+01  0.6053272E-09  0.6053272E-09  0.6672736E-09  0.5000000E-15
   1.0000000000000000E-004
  CAR 
 Name                                    
     96     60     64

  0.3742002E-15  0.3742002E-15  0.3742002E-15  0.1371742E-02
    1       -5.767045   1.000000
    2       -3.805299   1.000000
    3       -2.567797   1.000000
    4       -2.567791   1.000000
    5       -2.567789   1.000000
    6       -1.860768   1.000000
    7       -1.860766   1.000000
    8       -1.860762   1.000000
    9       -1.264558   1.000000
   10       -1.264552   1.000000
   11       -1.264550   1.000000
   12       -0.108554   1.000000
   13        0.303945   1.000000
   14        0.303948   1.000000
   15        0.303952   1.000000
   16        2.560665   1.000000
   17        2.560666   1.000000
   18        2.560667   1.000000
   19        2.725243   1.000000
   20        2.725244   1.000000
   21        2.725246   1.000000
   22        3.128445   1.000000
   23        3.128450   1.000000
   24        3.128452   1.000000
   25        4.014804   1.000000
   26        4.014805   1.000000
   27        4.014807   1.000000
   28        4.080340   1.000000
   29        4.472384   1.000000
   30        4.472388   1.000000
   31        4.658564   1.000000
   32        4.658566   1.000000
   33        4.658569   1.000000
   34        5.063876   1.000000
   35        5.063881   1.000000
   36        5.063883   1.000000
   37        5.265303   1.000000
   38        6.753267   1.000000
   39        6.753270   1.000000
   40        6.906474   1.000000
   41        6.906477   1.000000
   42        7.229924   1.000000
   43        7.229931   1.000000
   44        8.190371   1.000000
   45        8.190997   1.000000
   46        8.190999   1.000000
   47        8.191000   1.000000
   48        9.021589   0.061623
   49        9.021590   0.061618
   50        9.621422  -0.000000
   51        9.621425  -0.000000
   52        9.621431  -0.000000
   53       10.379011  -0.000000
   54       10.381877  -0.000000
   55       10.817742  -0.000000
   56       10.817747  -0.000000
   57       10.817749  -0.000000
   58       11.018476  -0.000000
   59       11.186059  -0.000000
   60       11.188223  -0.000000
   61       13.088250   0.000000
   62       13.088428   0.000000
   63       13.102128   0.000000
   64       13.748225   0.000000

  0.1111111E+00  0.3899915E-15  0.3742002E-15  0.8230453E-02
    1       -5.706293   1.000000
    2       -3.784398   1.000000
    3       -2.645247   1.000000
    4       -2.554654   1.000000
    5       -2.554649   1.000000
    6       -2.393192   1.000000
    7       -2.009629   1.000000
    8       -2.009627   1.000000
    9       -1.034595   1.000000
   10       -1.034591   1.000000
   11       -0.696042   1.000000
   12       -0.020452   1.000000
   13        0.286714   1.000000
   14        0.286718   1.000000
   15        0.465335   1.000000
   16        2.546664   1.000000
   17        2.546665   1.000000
   18        2.618691   1.000000
   19        2.701159   1.000000
   20        2.786922   1.000000
   21        2.786924   1.000000
   22        3.167150   1.000000
   23        3.178694   1.000000
   24        3.178698   1.000000
   25        3.599055   1.000000
   26        3.599056   1.000000
   27        4.069467   1.000000
   28        4.129828   1.000000
   29        4.319943   1.000000
   30        4.497777   1.000000
   31        4.671765   1.000000
   32        4.967811   1.000000
   33        4.988225   1.000000
   34        4.988230   1.000000
   35        5.059992   1.000000
   36        5.059993   1.000000
   37        5.138692   1.000000
   38        6.038181   1.000000
   39        6.089758   1.000000
   40        6.757498   1.000000
   41        6.986229   1.000000
   42        7.853087   1.000000
   43        7.853090   1.000000
   44        7.866116   1.000000
   45        7.945750   1.000000
   46        8.213685   1.000000
   47        8.226720   1.000000
   48        8.993723   0.213183
   49        9.205205  -0.001270
   50        9.572290  -0.000000
   51        9.615270  -0.000000
   52        9.615275  -0.000000
   53       10.194393  -0.000000
   54       10.194525  -0.000000
   55       10.313760  -0.000000
   56       10.857716  -0.000000
   57       10.871002  -0.000000
   58       10.893002  -0.000000
   59       10.951303  -0.000000
   60       11.242046  -0.000000
   61       11.242250  -0.000000
   62       12.047153   0.000000
   63       13.471124   0.000000
   64       13.558528   0.000000

  0.2222222E+00  0.3481927E-15  0.3742002E-15  0.8230453E-02
    1       -5.525833   1.000000
    2       -3.721461   1.000000
    3       -3.093316   1.000000
    4       -2.834410   1.000000
    5       -2.520586   1.000000
    6       -2.520581   1.000000
    7       -2.224192   1.000000
    8       -2.224190   1.000000
    9       -0.583298   1.000000
   10       -0.583295   1.000000
   11        0.111030   1.000000
   12        0.237820   1.000000
   13        0.241792   1.000000
   14        0.241795   1.000000
   15        0.903995   1.000000
   16        2.512158   1.000000
   17        2.512160   1.000000
   18        2.576773   1.000000
   19        2.792345   1.000000
   20        2.957034   1.000000
   21        2.957035   1.000000
   22        2.964716   1.000000
   23        2.964718   1.000000
   24        3.283127   1.000000
   25        3.319133   1.000000
   26        3.319138   1.000000
   27        3.889907   1.000000
   28        4.218205   1.000000
   29        4.273325   1.000000
   30        4.565164   1.000000
   31        4.704791   1.000000
   32        4.776250   1.000000
   33        4.776254   1.000000
   34        4.791868   1.000000
   35        4.826902   1.000000
   36        5.087081   1.000000
   37        5.306947   1.000000
   38        5.674958   1.000000
   39        5.674959   1.000000
   40        6.370824   1.000000
   41        7.200740   1.000000
   42        7.200742   1.000000
   43        7.222265   1.000000
   44        8.279716   1.000000
   45        8.334027   1.000000
   46        8.597509   1.000002
   47        8.877778   0.988785
   48        8.914775   0.826260
   49        9.431298  -0.000000
   50        9.590147  -0.000000
   51        9.590152  -0.000000
   52        9.619393  -0.000000
   53        9.619394  -0.000000
   54        9.674916  -0.000000
   55        9.971104  -0.000000
   56       10.147771  -0.000000
   57       10.257379  -0.000000
   58       10.273689  -0.000000
   59       10.502786  -0.000000
   60       11.007009  -0.000000
   61       11.525631  -0.000000
   62       11.966675   0.000000
   63       12.106258   0.000000
   64       12.152727   0.000000

  0.3333333E+00  0.4067808E-15  0.3742002E-15  0.8230453E-02
    1       -5.230784   1.000000
    2       -3.747422   1.000000
    3       -3.616024   1.000000
    4       -3.062058   1.000000
    5       -2.480263   1.000000
    6       -2.480258   1.000000
    7       -2.381370   1.000000
    8       -2.381368   1.000000
    9       -0.060498   1.000000
   10       -0.060495   1.000000
   11        0.188359   1.000000
   12        0.188362   1.000000
   13        0.646920   1.000000
   14        0.939697   1.000000
   15        1.539728   1.000000
   16        2.251730   1.000000
   17        2.304122   1.000000
   18        2.304123   1.000000
   19        2.474621   1.000000
   20        2.474622   1.000000
   21        3.080471   1.000000
   22        3.234535   1.000000
   23        3.234537   1.000000
   24        3.277007   1.000000
   25        3.475252   1.000000
   26        3.511087   1.000000
   27        3.511092   1.000000
   28        4.120876   1.000000
   29        4.410528   1.000000
   30        4.445056   1.000000
   31        4.447046   1.000000
   32        4.469647   1.000000
   33        4.469650   1.000000
   34        4.600959   1.000000
   35        4.649990   1.000000
   36        4.739271   1.000000
   37        4.762460   1.000000
   38        5.871673   1.000000
   39        6.331755   1.000000
   40        6.331755   1.000000
   41        6.592375   1.000000
   42        6.592378   1.000000
   43        7.604028   1.000000
   44        8.382992   1.000000
   45        8.504941   1.000000
   46        8.796872   1.022873
   47        8.845821   1.033300
   48        8.845822   1.033300
   49        9.220456  -0.000630
   50        9.249071  -0.000147
   51        9.361303  -0.000000
   52        9.549549  -0.000000
   53        9.549554  -0.000000
   54        9.665308  -0.000000
   55        9.671191  -0.000000
   56        9.805579  -0.000000
   57        9.962343  -0.000000
   58       10.115739  -0.000000
   59       10.268576  -0.000000
   60       10.893738  -0.000000
   61       10.953294  -0.000000
   62       11.142455  -0.000000
   63       11.603308  -0.000000
   64       11.802229   0.000000

  0.4444444E+00  0.3790446E-15  0.3742002E-15  0.8230453E-02
    1       -4.829077   1.000000
    2       -4.330728   1.000000
    3       -3.468242   1.000000
    4       -3.280706   1.000000
    5       -2.461894   1.000000
    6       -2.461892   1.000000
    7       -2.452969   1.000000
    8       -2.452964   1.000000
    9        0.152107   1.000000
   10        0.152109   1.000000
   11        0.408339   1.000000
   12        0.408341   1.000000
   13        1.169676   1.000000
   14        1.740730   1.000000
   15        1.760259   1.000000
   16        1.768386   1.000000
   17        1.768388   1.000000
   18        2.313157   1.000000
   19        2.451050   1.000000
   20        2.451051   1.000000
   21        2.549828   1.000000
   22        3.184589   1.000000
   23        3.480642   1.000000
   24        3.528225   1.000000
   25        3.528227   1.000000
   26        3.665967   1.000000
   27        3.665972   1.000000
   28        3.740256   1.000000
   29        3.989261   1.000000
   30        4.069755   1.000000
   31        4.152955   1.000000
   32        4.152958   1.000000
   33        4.557402   1.000000
   34        4.570339   1.000000
   35        4.719922   1.000000
   36        4.750388   1.000000
   37        4.976747   1.000000
   38        5.375879   1.000000
   39        6.215140   1.000000
   40        6.215143   1.000000
   41        6.970916   1.000000
   42        6.970917   1.000000
   43        8.111582   1.000000
   44        8.111583   1.000000
   45        8.112152   1.000000
   46        8.513345   1.000000
   47        8.656970   1.000092
   48        8.714905   1.001616
   49        8.725288   1.002491
   50        8.973497   0.364814
   51        9.298992  -0.000008
   52        9.301083  -0.000007
   53        9.518414  -0.000000
   54        9.518419  -0.000000
   55        9.838536  -0.000000
   56        9.851325  -0.000000
   57        9.891309  -0.000000
   58       10.396949  -0.000000
   59       10.673712  -0.000000
   60       10.810503  -0.000000
   61       10.892522  -0.000000
   62       11.121484  -0.000000
   63       11.422256  -0.000000
   64       11.543850  -0.000000

  0.1111111E+00  0.1111111E+00  0.3742002E-15  0.8230453E-02
    1       -5.585684   1.000000
    2       -3.742456   1.000000
    3       -2.704349   1.000000
    4       -2.704347   1.000000
    5       -2.702034   1.000000
    6       -2.702032   1.000000
    7       -2.431333   1.000000
    8       -1.656834   1.000000
    9       -1.181024   1.000000
   10       -0.270771   1.000000
   11       -0.270770   1.000000
   12        0.071448   1.000000
   13        0.152867   1.000000
   14        0.600070   1.000000
   15        0.600074   1.000000
   16        2.460684   1.000000
   17        2.658862   1.000000
   18        2.658863   1.000000
   19        2.727429   1.000000
   20        2.727431   1.000000
   21        2.901345   1.000000
   22        2.982407   1.000000
   23        3.250261   1.000000
   24        3.250264   1.000000
   25        3.293249   1.000000
   26        3.697039   1.000000
   27        3.697040   1.000000
   28        4.038315   1.000000
   29        4.216130   1.000000
   30        4.544749   1.000000
   31        4.822802   1.000000
   32        4.822804   1.000000
   33        4.879800   1.000000
   34        4.922195   1.000000
   35        5.092892   1.000000
   36        5.092894   1.000000
   37        5.366350   1.000000
   38        5.487193   1.000000
   39        5.659919   1.000000
   40        6.490288   1.000000
   41        7.140548   1.000000
   42        7.144219   1.000000
   43        7.923938   1.000000
   44        7.923940   1.000000
   45        8.299163   1.000000
   46        8.427931   1.000000
   47        8.610130   1.000005
   48        8.929447   0.725796
   49        9.510768  -0.000000
   50        9.510769  -0.000000
   51        9.540915  -0.000000
   52        9.648343  -0.000000
   53        9.874842  -0.000000
   54        9.904266  -0.000000
   55        9.904272  -0.000000
   56       10.318435  -0.000000
   57       10.476488  -0.000000
   58       10.593980  -0.000000
   59       10.771818  -0.000000
   60       11.320995  -0.000000
   61       11.321062  -0.000000
   62       11.776886   0.000000
   63       11.803442   0.000000
   64       12.119167   0.000000

  0.2222222E+00  0.1111111E+00  0.3742002E-15  0.1646091E-01
    1       -5.347864   1.000000
    2       -3.658072   1.000000
    3       -3.386730   1.000000
    4       -2.929132   1.000000
    5       -2.923482   1.000000
    6       -2.731627   1.000000
    7       -2.289749   1.000000
    8       -1.662231   1.000000
    9       -0.818406   1.000000
   10       -0.154294   1.000000
   11        0.209166   1.000000
   12        0.487646   1.000000
   13        0.546555   1.000000
   14        0.692887   1.000000
   15        1.148490   1.000000
   16        2.169746   1.000000
   17        2.383715   1.000000
   18        2.511313   1.000000
   19        2.665834   1.000000
   20        2.847801   1.000000
   21        2.882272   1.000000
   22        3.119196   1.000000
   23        3.270125   1.000000
   24        3.393558   1.000000
   25        3.398709   1.000000
   26        3.498707   1.000000
   27        3.538103   1.000000
   28        3.871128   1.000000
   29        4.322778   1.000000
   30        4.486122   1.000000
   31        4.586067   1.000000
   32        4.589603   1.000000
   33        4.652311   1.000000
   34        4.659720   1.000000
   35        4.693871   1.000000
   36        4.809166   1.000000
   37        5.133373   1.000000
   38        5.697226   1.000000
   39        6.050067   1.000000
   40        6.317707   1.000000
   41        6.413361   1.000000
   42        7.372889   1.000000
   43        7.452773   1.000000
   44        8.055957   1.000000
   45        8.441568   1.000000
   46        8.801022   1.024794
   47        9.054734  -0.022269
   48        9.148016  -0.010662
   49        9.309803  -0.000004
   50        9.331210  -0.000001
   51        9.422502  -0.000000
   52        9.461003  -0.000000
   53        9.480773  -0.000000
   54        9.661669  -0.000000
   55        9.787963  -0.000000
   56        9.889414  -0.000000
   57       10.098989  -0.000000
   58       10.208921  -0.000000
   59       10.429319  -0.000000
   60       10.613913  -0.000000
   61       11.252556  -0.000000
   62       11.430834  -0.000000
   63       11.546815  -0.000000
   64       12.205067   0.000000

  0.3333333E+00  0.1111111E+00  0.3742002E-15  0.1646091E-01
    1       -4.999289   1.000000
    2       -4.007138   1.000000
    3       -3.530761   1.000000
    4       -3.154318   1.000000
    5       -3.064397   1.000000
    6       -2.743698   1.000000
    7       -2.165391   1.000000
    8       -1.754600   1.000000
    9       -0.338922   1.000000
   10       -0.256697   1.000000
   11        0.681535   1.000000
   12        0.747403   1.000000
   13        0.957570   1.000000
   14        1.362309   1.000000
   15        1.468169   1.000000
   16        1.856916   1.000000
   17        2.075717   1.000000
   18        2.332198   1.000000
   19        2.578374   1.000000
   20        2.655749   1.000000
   21        2.889919   1.000000
   22        3.009408   1.000000
   23        3.214672   1.000000
   24        3.551984   1.000000
   25        3.566127   1.000000
   26        3.607680   1.000000
   27        3.620043   1.000000
   28        3.741266   1.000000
   29        4.076569   1.000000
   30        4.187910   1.000000
   31        4.223347   1.000000
   32        4.344662   1.000000
   33        4.346330   1.000000
   34        4.354823   1.000000
   35        4.789770   1.000000
   36        4.839456   1.000000
   37        5.129736   1.000000
   38        5.555277   1.000000
   39        5.834222   1.000000
   40        6.274276   1.000000
   41        6.920583   1.000000
   42        7.029649   1.000000
   43        7.894966   1.000000
   44        8.231885   1.000000
   45        8.416977   1.000000
   46        8.608872   1.000005
   47        8.627478   1.000016
   48        8.645677   1.000048
   49        8.978957   0.321320
   50        9.150858  -0.009786
   51        9.244524  -0.000187
   52        9.342152  -0.000000
   53        9.370225  -0.000000
   54        9.637135  -0.000000
   55        9.657115  -0.000000
   56        9.982397  -0.000000
   57       10.141016  -0.000000
   58       10.330562  -0.000000
   59       10.366448  -0.000000
   60       10.493594  -0.000000
   61       10.715544  -0.000000
   62       10.718872  -0.000000
   63       11.390255  -0.000000
   64       11.452680  -0.000000

  0.4444444E+00  0.1111111E+00  0.3742002E-15  0.8230453E-02
    1       -4.548821   1.000000
    2       -4.548816   1.000000
    3       -3.361316   1.000000
    4       -3.361311   1.000000
    5       -3.109499   1.000000
    6       -2.746636   1.000000
    7       -2.113214   1.000000
    8       -1.789650   1.000000
    9       -0.413079   1.000000
   10        0.117138   1.000000
   11        0.765399   1.000000
   12        0.930572   1.000000
   13        1.050756   1.000000
   14        1.514845   1.000000
   15        1.514849   1.000000
   16        2.152017   1.000000
   17        2.152020   1.000000
   18        2.305413   1.000000
   19        2.314291   1.000000
   20        2.649289   1.000000
   21        2.675584   1.000000
   22        2.675587   1.000000
   23        3.095385   1.000000
   24        3.620424   1.000000
   25        3.652182   1.000000
   26        3.652187   1.000000
   27        3.869247   1.000000
   28        3.888282   1.000000
   29        3.888285   1.000000
   30        3.971043   1.000000
   31        4.019925   1.000000
   32        4.230467   1.000000
   33        4.252707   1.000000
   34        4.252711   1.000000
   35        5.028757   1.000000
   36        5.028760   1.000000
   37        5.105806   1.000000
   38        5.105808   1.000000
   39        5.590978   1.000000
   40        6.588480   1.000000
   41        6.746096   1.000000
   42        7.674830   1.000000
   43        7.945216   1.000000
   44        8.042484   1.000000
   45        8.430118   1.000000
   46        8.430123   1.000000
   47        8.437358   1.000000
   48        8.437360   1.000000
   49        8.901643   0.899519
   50        8.901648   0.899496
   51        9.095965  -0.032245
   52        9.095968  -0.032244
   53        9.310458  -0.000004
   54        9.652215  -0.000000
   55        9.964658  -0.000000
   56        9.964664  -0.000000
   57       10.182912  -0.000000
   58       10.182917  -0.000000
   59       10.446843  -0.000000
   60       11.132300  -0.000000
   61       11.132893  -0.000000
   62       11.219786  -0.000000
   63       11.222461  -0.000000
   64       11.343509  -0.000000

  0.2222222E+00  0.2222222E+00  0.3742002E-15  0.8230453E-02
    1       -5.056368   1.000000
    2       -3.582727   1.000000
    3       -3.582726   1.000000
    4       -3.551304   1.000000
    5       -2.976897   1.000000
    6       -2.976895   1.000000
    7       -2.023234   1.000000
    8       -1.079811   1.000000
    9       -0.928235   1.000000
   10       -0.550766   1.000000
   11        0.886130   1.000000
   12        0.997755   1.000000
   13        0.997758   1.000000
   14        1.327506   1.000000
   15        1.327510   1.000000
   16        1.377208   1.000000
   17        2.292647   1.000000
   18        2.507821   1.000000
   19        2.507822   1.000000
   20        2.920049   1.000000
   21        2.920051   1.000000
   22        3.042483   1.000000
   23        3.370955   1.000000
   24        3.370957   1.000000
   25        3.536116   1.000000
   26        3.536119   1.000000
   27        3.609010   1.000000
   28        3.723874   1.000000
   29        3.780443   1.000000
   30        4.221064   1.000000
   31        4.236483   1.000000
   32        4.284925   1.000000
   33        4.482538   1.000000
   34        4.568821   1.000000
   35        4.568822   1.000000
   36        4.881930   1.000000
   37        5.617499   1.000000
   38        5.658620   1.000000
   39        5.658621   1.000000
   40        5.690889   1.000000
   41        7.015702   1.000000
   42        7.633437   1.000000
   43        7.633439   1.000000
   44        7.820331   1.000000
   45        8.574052   1.000000
   46        8.623874   1.000013
   47        8.785906   1.017949
   48        8.785908   1.017949
   49        8.979682   0.315664
   50        9.156582  -0.008179
   51        9.156583  -0.008179
   52        9.405683  -0.000000
   53        9.585518  -0.000000
   54        9.705590  -0.000000
   55        9.759272  -0.000000
   56        9.759273  -0.000000
   57       10.018192  -0.000000
   58       10.176324  -0.000000
   59       10.190373  -0.000000
   60       10.628698  -0.000000
   61       10.723304  -0.000000
   62       11.058565  -0.000000
   63       11.064975  -0.000000
   64       12.191899   0.000000

  0.3333333E+00  0.2222222E+00  0.3742002E-15  0.1646091E-01
    1       -4.658537   1.000000
    2       -4.163643   1.000000
    3       -3.680755   1.000000
    4       -3.400417   1.000000
    5       -3.206665   1.000000
    6       -3.001564   1.000000
    7       -1.786469   1.000000
    8       -1.073577   1.000000
    9       -0.859322   1.000000
   10       -0.378883   1.000000
   11        0.657930   1.000000
   12        1.351271   1.000000
   13        1.401710   1.000000
   14        1.425545   1.000000
   15        1.748762   1.000000
   16        1.977007   1.000000
   17        2.078030   1.000000
   18        2.246242   1.000000
   19        2.437527   1.000000
   20        2.524952   1.000000
   21        2.895033   1.000000
   22        2.925692   1.000000
   23        2.989671   1.000000
   24        3.271329   1.000000
   25        3.640528   1.000000
   26        3.677974   1.000000
   27        3.713810   1.000000
   28        3.734096   1.000000
   29        3.935426   1.000000
   30        3.984402   1.000000
   31        3.988943   1.000000
   32        4.093009   1.000000
   33        4.252416   1.000000
   34        4.479763   1.000000
   35        4.790047   1.000000
   36        5.149814   1.000000
   37        5.169155   1.000000
   38        5.194021   1.000000
   39        5.485609   1.000000
   40        6.024193   1.000000
   41        7.350075   1.000000
   42        7.744821   1.000000
   43        7.947822   1.000000
   44        8.275455   1.000000
   45        8.289292   1.000000
   46        8.317151   1.000000
   47        8.447454   1.000000
   48        8.713810   1.001542
   49        8.775801   1.013866
   50        8.882658   0.975010
   51        8.956709   0.504909
   52        9.060261  -0.027943
   53        9.246701  -0.000167
   54        9.721385  -0.000000
   55        9.775179  -0.000000
   56        9.883633  -0.000000
   57       10.069299  -0.000000
   58       10.094932  -0.000000
   59       10.311091  -0.000000
   60       10.583235  -0.000000
   61       10.735182  -0.000000
   62       10.957651  -0.000000
   63       10.977075  -0.000000
   64       11.643175  -0.000000

  0.3333333E+00  0.3333333E+00  0.3742002E-15  0.2743484E-02
    1       -4.215914   1.000000
    2       -4.215910   1.000000
    3       -4.215906   1.000000
    4       -3.223583   1.000000
    5       -3.223578   1.000000
    6       -3.223575   1.000000
    7       -1.347728   1.000000
    8       -1.347725   1.000000
    9       -0.499215   1.000000
   10       -0.499212   1.000000
   11        0.118806   1.000000
   12        1.930664   1.000000
   13        1.930667   1.000000
   14        1.930670   1.000000
   15        1.945644   1.000000
   16        1.945648   1.000000
   17        1.945651   1.000000
   18        2.160748   1.000000
   19        2.160753   1.000000
   20        2.160755   1.000000
   21        2.217634   1.000000
   22        3.281387   1.000000
   23        3.281392   1.000000
   24        3.281394   1.000000
   25        3.492655   1.000000
   26        3.492659   1.000000
   27        3.492662   1.000000
   28        3.787390   1.000000
   29        3.787392   1.000000
   30        3.787394   1.000000
   31        4.135142   1.000000
   32        4.135144   1.000000
   33        4.564833   1.000000
   34        4.564835   1.000000
   35        4.786412   1.000000
   36        4.786414   1.000000
   37        4.786415   1.000000
   38        5.617885   1.000000
   39        5.617886   1.000000
   40        5.617888   1.000000
   41        7.823591   1.000000
   42        7.823594   1.000000
   43        7.823597   1.000000
   44        8.273568   1.000000
   45        8.273570   1.000000
   46        8.549549   1.000000
   47        8.549553   1.000000
   48        8.549555   1.000000
   49        8.706398   1.001113
   50        8.706399   1.001113
   51        8.706400   1.001113
   52        9.252840  -0.000120
   53        9.252841  -0.000120
   54        9.252843  -0.000119
   55        9.494136  -0.000000
   56        9.740987  -0.000000
   57       10.370090  -0.000000
   58       10.370091  -0.000000
   59       10.543876  -0.000000
   60       10.544444  -0.000000
   61       10.544446  -0.000000
   62       11.598614  -0.000000
   63       11.604022  -0.000000
   64       11.604036  -0.000000

  0.3742002E-15  0.3742002E-15  0.1111111E+00  0.2743484E-02
    1       -5.725458   1.000000
    2       -3.902556   1.000000
    3       -2.537414   1.000000
    4       -2.537408   1.000000
    5       -2.537406   1.000000
    6       -1.816042   1.000000
    7       -1.816040   1.000000
    8       -1.816036   1.000000
    9       -1.318564   1.000000
   10       -1.318558   1.000000
   11       -1.318556   1.000000
   12        0.026237   1.000000
   13        0.185328   1.000000
   14        0.185331   1.000000
   15        0.185334   1.000000
   16        2.601959   1.000000
   17        2.601960   1.000000
   18        2.601961   1.000000
   19        2.840316   1.000000
   20        2.840317   1.000000
   21        2.840319   1.000000
   22        3.199686   1.000000
   23        3.199691   1.000000
   24        3.199693   1.000000
   25        3.845576   1.000000
   26        4.017758   1.000000
   27        4.017759   1.000000
   28        4.017761   1.000000
   29        4.506076   1.000000
   30        4.506080   1.000000
   31        4.542849   1.000000
   32        4.542851   1.000000
   33        4.542853   1.000000
   34        5.012054   1.000000
   35        5.012058   1.000000
   36        5.012060   1.000000
   37        5.460866   1.000000
   38        6.528400   1.000000
   39        6.528404   1.000000
   40        6.798893   1.000000
   41        6.798896   1.000000
   42        7.646671   1.000000
   43        7.646676   1.000000
   44        8.109900   1.000000
   45        8.358628   1.000000
   46        8.358630   1.000000
   47        8.358631   1.000000
   48        8.903006   0.892711
   49        8.903007   0.892704
   50        9.520298  -0.000000
   51        9.520301  -0.000000
   52        9.520306  -0.000000
   53       10.376470  -0.000000
   54       10.376477  -0.000000
   55       10.376512  -0.000000
   56       10.384956  -0.000000
   57       10.385145  -0.000000
   58       10.386085  -0.000000
   59       10.593804  -0.000000
   60       11.097918  -0.000000
   61       11.099679  -0.000000
   62       13.123399   0.000000
   63       13.148971   0.000000
   64       13.500090   0.000000

  0.1111111E+00  0.3899915E-15  0.1111111E+00  0.1646091E-01
    1       -5.665171   1.000000
    2       -3.878115   1.000000
    3       -2.622841   1.000000
    4       -2.526614   1.000000
    5       -2.526609   1.000000
    6       -2.374038   1.000000
    7       -1.984389   1.000000
    8       -1.984387   1.000000
    9       -1.068792   1.000000
   10       -1.068788   1.000000
   11       -0.723496   1.000000
   12        0.110054   1.000000
   13        0.183097   1.000000
   14        0.183101   1.000000
   15        0.349485   1.000000
   16        2.567208   1.000000
   17        2.567209   1.000000
   18        2.659493   1.000000
   19        2.821550   1.000000
   20        2.903651   1.000000
   21        2.903652   1.000000
   22        3.233034   1.000000
   23        3.245393   1.000000
   24        3.245398   1.000000
   25        3.590693   1.000000
   26        3.590694   1.000000
   27        3.883337   1.000000
   28        4.072212   1.000000
   29        4.349806   1.000000
   30        4.529178   1.000000
   31        4.560636   1.000000
   32        4.920935   1.000000
   33        4.934014   1.000000
   34        4.934015   1.000000
   35        4.941338   1.000000
   36        4.941342   1.000000
   37        5.343109   1.000000
   38        5.935347   1.000000
   39        6.021972   1.000000
   40        6.760162   1.000000
   41        6.939806   1.000000
   42        8.005875   1.000000
   43        8.032343   1.000000
   44        8.032345   1.000000