    3    3    1    1
  0.8604740E+01  0.3002604E-09  0.3002604E-09  0.3306224E-09  0.5000000E-15
   1.0000000000000000E-004
  CAR 
 Name                                    
     12   4913     18

  0.3742002E-15  0.3742002E-15  0.3742002E-15  0.2035416E-03
    1       -5.674147   1.000000
    2        4.220171   1.000000
    3        4.629612   1.000000
    4        4.629619   1.000000
    5        5.501578   1.000000
    6        9.331584   0.159124
    7        9.331590   0.014933
    8       11.556138   0.000000
    9       11.556145   0.000000
   10       14.084256   0.000000
   11       14.084265   0.000000
   12       15.024262   0.000000
   13       17.601064   0.000000
   14       17.847784   0.000000
   15       26.640229   0.000000
   16       26.640239   0.000000
   17       28.707086   0.000000
   18       31.093157   0.000000

  0.5882353E-01  0.3706497E-15  0.3742002E-15  0.2035416E-03
    1       -5.604822   1.000000
    2        4.276966   1.000000
    3        4.458437   1.000000
    4        4.660004   1.000000
    5        5.353365   1.000000
    6        9.299102   0.587606
    7        9.544186  -0.009852
    8       11.213604   0.000000
    9       11.281654   0.000000
   10       14.343378   0.000000
   11       14.535916   0.000000
   12       15.267360   0.000000
   13       17.340060   0.000000
   14       17.949007   0.000000
   15       26.773831   0.000000
   16       27.091744   0.000000
   17       28.774250   0.000000
   18       31.156843   0.000000

  0.1176471E+00  0.3767996E-15  0.3742002E-15  0.2035416E-03
    1       -5.399239   1.000000
    2        3.980405   1.000000
    3        4.438515   1.000000
    4        4.739590   1.000000
    5        4.995917   1.000000
    6        9.207487   0.994132
    7       10.076646   0.000000
    8       10.526448   0.000000
    9       10.788590   0.000000
   10       14.777766   0.000000
   11       15.564611   0.000000
   12       15.975355   0.000000
   13       16.720529   0.000000
   14       18.218876   0.000000
   15       27.163131   0.000000
   16       28.273862   0.000000
   17       28.951214   0.000000
   18       31.289707   0.000000

  0.1764706E+00  0.3607731E-15  0.3742002E-15  0.2035416E-03
    1       -5.064285   1.000000
    2        3.307830   1.000000
    3        4.569589   1.000000
    4        4.625539   1.000000
    5        4.836940   1.000000
    6        9.072621   1.000000
    7        9.896088   0.000000
    8       10.389749   0.000000
    9       10.724374   0.000000
   10       15.096218   0.000000
   11       16.055916   0.000000
   12       16.866363   0.000000
   13       17.035316   0.000000
   14       18.539192   0.000000
   15       27.776880   0.000000
   16       29.097428   0.000000
   17       29.787173   0.000000
   18       31.278665   0.000000

  0.2352941E+00  0.3655633E-15  0.3742002E-15  0.2035416E-03
    1       -4.610475   1.000000
    2        2.520844   1.000000
    3        4.161376   1.000000
    4        4.734097   1.000000
    5        4.912402   1.000000
    6        8.915992   1.000000
    7        9.568608   0.000000
    8       10.188863   0.000000
    9       11.264503   0.000000
   10       15.286036   0.000000
   11       15.641295   0.000000
   12       18.257510   0.000000
   13       18.334101   0.000000
   14       18.755237   0.000000
   15       28.563214   0.000000
   16       28.771178   0.000000
   17       30.508704   0.000000
   18       31.122867   0.000000

  0.2941176E+00  0.3668569E-15  0.3742002E-15  0.2035416E-03
    1       -4.050993   1.000000
    2        1.675141   1.000000
    3        3.813134   1.000000
    4        4.675360   1.000000
    5        4.939575   1.000000
    6        8.760002   1.000000
    7        9.680785   0.000000
    8       10.197582   0.000000
    9       11.493827   0.000000
   10       15.388968   0.000000
   11       15.698719   0.000000
   12       18.531381   0.000000
   13       19.683035   0.000000
   14       19.911287   0.000000
   15       27.891814   0.000000
   16       29.379377   0.000000
   17       29.448124   0.000000
   18       29.501790   0.000000

  0.3529412E+00  0.3820644E-15  0.3742002E-15  0.2035416E-03
    1       -3.401468   1.000000
    2        0.803772   1.000000
    3        3.543964   1.000000
    4        4.486151   1.000000
    5        4.922055   1.000000
    6        8.624725   1.000000
    7       10.184536   0.000000
    8       10.359360   0.000000
    9       11.422089   0.000000
   10       15.436009   0.000000
   11       16.185046   0.000000
   12       18.057288   0.000000
   13       20.959597   0.000000
   14       21.532591   0.000000
   15       27.020187   0.000000
   16       27.934110   0.000000
   17       28.193771   0.000000
   18       30.329796   0.000000

  0.4117647E+00  0.3552411E-15  0.3742002E-15  0.2035416E-03
    1       -2.683114   1.000000
    2       -0.065663   1.000000
    3        3.362176   1.000000
    4        4.284144   1.000000
    5        4.886084   1.000000
    6        8.525776   1.000000
    7       10.569258   0.000000
    8       10.868244   0.000000
    9       11.249950   0.000000
   10       15.440508   0.000000
   11       16.802282   0.000000
   12       17.375818   0.000000
   13       22.055240   0.000000
   14       23.064469   0.000000
   15       26.378132   0.000000
   16       26.881701   0.000000
   17       27.091536   0.000000
   18       31.085216   0.000000

  0.4705882E+00  0.3565347E-15  0.3742002E-15  0.2035416E-03
    1       -1.959928   1.000000
    2       -0.865466   1.000000
    3        3.270810   1.000000
    4        4.162160   1.000000
    5        4.859906   1.000000
    6        8.473668   1.000000
    7       10.712476   0.000000
    8       11.132015   0.000000
    9       11.400118   0.000000
   10       15.413232   0.000000
   11       16.851136   0.000000
   12       17.226558   0.000000
   13       22.742228   0.000000
   14       24.153764   0.000000
   15       26.004401   0.000000
   16       26.322320   0.000000
   17       26.444714   0.000000
   18       30.879209   0.000000

 -0.4705882E+00  0.3925045E-15  0.3742002E-15  0.2035416E-03
    1       -1.959928   1.000000
    2       -0.865466   1.000000
    3        3.270810   1.000000
    4        4.162160   1.000000
    5        4.859906   1.000000
    6        8.473668   1.000000
    7       10.712476   0.000000
    8       11.132015   0.000000
    9       11.400118   0.000000
   10       15.413232   0.000000
   11       16.851136   0.000000
   12       17.226558   0.000000
   13       22.742228   0.000000
   14       24.153775   0.000000
   15       26.004408   0.000000
   16       26.322326   0.000000
   17       26.444715   0.000000
   18       30.863409   0.000000

 -0.4117647E+00  0.4077120E-15  0.3742002E-15  0.2035416E-03
    1       -2.683114   1.000000
    2       -0.065663   1.000000
    3        3.362176   1.000000
    4        4.284144   1.000000
    5        4.886084   1.000000
    6        8.525776   1.000000
    7       10.569258   0.000000
    8       10.868244   0.000000
    9       11.249950   0.000000
   10       15.440508   0.000000
   11       16.802282   0.000000
   12       17.375818   0.000000
   13       22.055240   0.000000
   14       23.064469   0.000000
   15       26.378139   0.000000
   16       26.881710   0.000000
   17       27.091536   0.000000
   18       31.071561   0.000000

 -0.3529412E+00  0.3600539E-15  0.3742002E-15  0.2035416E-03
    1       -3.401468   1.000000
    2        0.803772   1.000000
    3        3.543964   1.000000
    4        4.486151   1.000000
    5        4.922055   1.000000
    6        8.624725   1.000000
    7       10.184536   0.000000
    8       10.359360   0.000000
    9       11.422089   0.000000
   10       15.436009   0.000000
   11       16.185046   0.000000
   12       18.057288   0.000000
   13       20.959597   0.000000
   14       21.532591   0.000000
   15       27.020190   0.000000
   16       27.934097   0.000000
   17       28.193772   0.000000
   18       30.339068   0.000000

 -0.2941176E+00  0.3821823E-15  0.3742002E-15  0.2035416E-03
    1       -4.050993   1.000000
    2        1.675141   1.000000
    3        3.813134   1.000000
    4        4.675360   1.000000
    5        4.939575   1.000000
    6        8.760002   1.000000
    7        9.680785   0.000000
    8       10.197582   0.000000
    9       11.493827   0.000000
   10       15.388968   0.000000
   11       15.698719   0.000000
   12       18.531381   0.000000
   13       19.683035   0.000000
   14       19.911287   0.000000
   15       27.891816   0.000000
   16       29.379478   0.000000
   17       29.448319   0.000000
   18       29.501838   0.000000

 -0.2352941E+00  0.3765912E-15  0.3742002E-15  0.2035416E-03
    1       -4.610475   1.000000
    2        2.520844   1.000000
    3        4.161376   1.000000
    4        4.734097   1.000000
    5        4.912402   1.000000
    6        8.915992   1.000000
    7        9.568608   0.000000
    8       10.188863   0.000000
    9       11.264503   0.000000
   10       15.286036   0.000000
   11       15.641295   0.000000
   12       18.257510   0.000000
   13       18.334101   0.000000
   14       18.755237   0.000000
   15       28.563275   0.000000
   16       28.771192   0.000000
   17       30.512618   0.000000
   18       31.178152   0.000000

 -0.1764706E+00  0.3813814E-15  0.3742002E-15  0.2035416E-03
    1       -5.064285   1.000000
    2        3.307830   1.000000
    3        4.569589   1.000000
    4        4.625539   1.000000
    5        4.836940   1.000000
    6        9.072621   1.000000
    7        9.896088   0.000000
    8       10.389749   0.000000
    9       10.724374   0.000000
   10       15.096218   0.000000
   11       16.055916   0.000000
   12       16.866363   0.000000
   13       17.035316   0.000000
   14       18.539192   0.000000
   15       27.776877   0.000000
   16       29.097445   0.000000
   17       29.787310   0.000000
   18       31.280510   0.000000

 -0.1176471E+00  0.3718962E-15  0.3742002E-15  0.2035416E-03
    1       -5.399239   1.000000
    2        3.980405   1.000000
    3        4.438515   1.000000
    4        4.739590   1.000000
    5        4.995917   1.000000
    6        9.207487   0.994132
    7       10.076646   0.000000
    8       10.526448   0.000000
    9       10.788590   0.000000
   10       14.777766   0.000000
   11       15.564611   0.000000
   12       15.975355   0.000000
   13       16.720529   0.000000
   14       18.218876   0.000000
   15       27.163132   0.000000
   16       28.273863   0.000000
   17       28.951224   0.000000
   18       31.289837   0.000000

 -0.5882353E-01  0.3766864E-15  0.3742002E-15  0.2035416E-03
    1       -5.604822   1.000000
    2        4.276966   1.000000
    3        4.458437   1.000000
    4        4.660004   1.000000
    5        5.353365   1.000000
    6        9.299102   0.587606
    7        9.544186  -0.009852
    8       11.213604   0.000000
    9       11.281654   0.000000
   10       14.343378   0.000000
   11       14.535916   0.000000
   12       15.267360   0.000000
   13       17.340060   0.000000
   14       17.949007   0.000000
   15       26.773809   0.000000
   16       27.091737   0.000000
   17       28.774257   0.000000
   18       31.156986   0.000000

  0.3742002E-15  0.5882353E-01  0.3742002E-15  0.2035416E-03
    1       -5.604822   1.000000
    2        4.276966   1.000000
    3        4.458436   1.000000
    4        4.660005   1.000000
    5        5.353365   1.000000
    6        9.299102   0.587609
    7        9.544186  -0.009852
    8       11.213603   0.000000
    9       11.281655   0.000000
   10       14.343380   0.000000
   11       14.535913   0.000000
   12       15.267360   0.000000
   13       17.340060   0.000000
   14       17.949007   0.000000
   15       26.773812   0.000000
   16       27.091746   0.000000
   17       28.774255   0.000000
   18       31.156893   0.000000

  0.5882353E-01  0.5882353E-01  0.3742002E-15  0.2035416E-03
    1       -5.467348   1.000000
    2        4.144891   1.000000
    3        4.374310   1.000000
    4        4.715783   1.000000
    5        5.104307   1.000000
    6        9.222719   0.979094
    7        9.928492   0.000000
    8       10.748414   0.000000
    9       10.885205   0.000000
   10       14.737561   0.000000
   11       15.159972   0.000000
   12       15.771957   0.000000
   13       16.902964   0.000000
   14       18.137141   0.000000
   15       27.025490   0.000000
   16       27.915129   0.000000
   17       28.897143   0.000000
   18       31.255715   0.000000

  0.1176471E+00  0.5882353E-01  0.3742002E-15  0.2035416E-03
    1       -5.196990   1.000000
    2        3.595253   1.000000
    3        4.482320   1.000000
    4        4.726690   1.000000
    5        4.846240   1.000000
    6        9.070205   1.000000
    7       10.111492   0.000000
    8       10.487692   0.000000
    9       10.554444   0.000000
   10       15.145792   0.000000
   11       16.080379   0.000000
   12       16.267724   0.000000
   13       16.785137   0.000000
   14       18.445133   0.000000
   15       27.489113   0.000000
   16       29.069452   0.000000
   17       29.312270   0.000000
   18       31.295316   0.000000

  0.1764706E+00  0.5882353E-01  0.3742002E-15  0.2035416E-03
    1       -4.802287   1.000000
    2        2.891749   1.000000
    3        4.329558   1.000000
    4        4.480394   1.000000
    5        5.064185   1.000000
    6        8.866698   1.000000
    7        9.581032  -0.006358
    8       10.291841   0.000000
    9       11.220434   0.000000
   10       15.387306   0.000000
   11       15.718868   0.000000
   12       17.222801   0.000000
   13       18.109171   0.000000
   14       18.726010   0.000000
   15       28.079745   0.000000
   16       28.990081   0.000000
   17       30.774265   0.000000
   18       31.087084   0.000000

  0.2352941E+00  0.5882353E-01  0.3742002E-15  0.2035416E-03
    1       -4.294909   1.000000
    2        2.098978   1.000000
    3        3.972637   1.000000
    4        4.350145   1.000000
    5        5.263460   1.000000
    6        8.639881   1.000000
    7        9.355593   0.058087
    8       10.340510   0.000000
    9       11.700921   0.000000
   10       15.513165   0.000000
   11       15.522488   0.000000
   12       18.371396   0.000000
   13       18.924977   0.000000
   14       19.582561   0.000000
   15       28.269226   0.000000
   16       28.518790   0.000000
   17       29.952285   0.000000
   18       30.797621   0.000000

  0.2941176E+00  0.5882353E-01  0.3742002E-15  0.2035416E-03
    1       -3.688931   1.000000
    2        1.256945   1.000000
    3        3.683754   1.000000
    4        4.137311   1.000000
    5        5.350092   1.000000
    6        8.419268   1.000000
    7        9.507947  -0.012176
    8       10.594857   0.000000
    9       11.843848   0.000000
   10       15.572838   0.000000
   11       15.819113   0.000000
   12       18.380842   0.000000
   13       19.986801   0.000000
   14       21.104988   0.000000
   15       27.337072   0.000000
   16       28.094428   0.000000
   17       28.480939   0.000000
   18       30.768015   0.000000

  0.3529412E+00  0.5882353E-01  0.3742002E-15  0.2035416E-03
    1       -3.001542   1.000000
    2        0.394008   1.000000
    3        3.474476   1.000000
    4        3.915072   1.000000
    5        5.337405   1.000000
    6        8.234225   1.000000
    7        9.930068  -0.014646
    8       10.952146   0.000000
    9       11.759202   0.000000
   10       15.602781   0.000000
   11       16.427367   0.000000
   12       17.839653   0.000000
   13       21.252291   0.000000
   14       22.566523   0.000000
   15       26.602359   0.000000
   16       27.087023   0.000000
   17       27.256035   0.000000
   18       31.300219   0.000000

  0.4117647E+00  0.5882353E-01  0.3742002E-15  0.2035416E-03
    1       -2.262144   1.000000
    2       -0.453926   1.000000
    3        3.348639   1.000000
    4        3.752968   1.000000
    5        5.295539   1.000000
    6        8.110822   1.000000
    7       10.373644   0.000000
    8       11.274199   0.000000
    9       11.641353   0.000000
   10       15.633392   0.000000
   11       17.004728   0.000000
   12       17.241190   0.000000
   13       22.271308   0.000000
   14       23.730863   0.000000
   15       26.172603   0.000000
   16       26.242466   0.000000
   17       26.450966   0.000000
   18       30.473496   0.000000

  0.4705882E+00  0.5882353E-01  0.3742002E-15  0.2035416E-03
    1       -1.704524   1.000000
    2       -1.048355   1.000000
    3        3.306700   1.000000
    4        3.694269   1.000000
    5        5.276066   1.000000
    6        8.067456   1.000000
    7       10.563839   0.000000
    8       11.409549   0.000000
    9       11.592933   0.000000
   10       15.657633   0.000000
   11       16.964134   0.000000
   12       17.243702   0.000000
   13       22.698973   0.000000
   14       24.167444   0.000000
   15       25.914729   0.000000
   16       26.095164   0.000000
   17       26.160143   0.000000
   18       29.966797   0.000000

 -0.4705882E+00  0.5882353E-01  0.3742002E-15  0.2035416E-03
    1       -2.262144   1.000000
    2       -0.453925   1.000000
    3        3.348638   1.000000
    4        3.752966   1.000000
    5        5.295540   1.000000
    6        8.110823   1.000000
    7       10.373647   0.000000
    8       11.274196   0.000000
    9       11.641353   0.000000
   10       15.633392   0.000000
   11       17.004729   0.000000
   12       17.241189   0.000000
   13       22.271305   0.000000
   14       23.730862   0.000000
   15       26.172593   0.000000
   16       26.242458   0.000000
   17       26.450969   0.000000
   18       30.473581   0.000000

 -0.4117647E+00  0.5882353E-01  0.3742002E-15  0.2035416E-03
    1       -3.001542   1.000000
    2        0.394009   1.000000
    3        3.474475   1.000000
    4        3.915070   1.000000
    5        5.337405   1.000000
    6        8.234226   1.000000
    7        9.930073  -0.017085
    8       10.952142   0.000000
    9       11.759201   0.000000
   10       15.602781   0.000000
   11       16.427369   0.000000
   12       17.839652   0.000000
   13       21.252287   0.000000
   14       22.566527   0.000000
   15       26.602357   0.000000
   16       27.087010   0.000000
   17       27.256038   0.000000
   18       31.341138   0.000000

 -0.3529412E+00  0.5882353E-01  0.3742002E-15  0.2035416E-03
    1       -3.688931   1.000000
    2        1.256947   1.000000
    3        3.683752   1.000000
    4        4.137307   1.000000
    5        5.350093   1.000000
    6        8.419271   1.000000
    7        9.507953  -0.008226
    8       10.594852   0.000000
    9       11.843847   0.000000
   10       15.572840   0.000000
   11       15.819115   0.000000
   12       18.380840   0.000000
   13       19.986794   0.000000
   14       21.104995   0.000000
   15       27.337070   0.000000
   16       28.094419   0.000000
   17       28.481045   0.000000
   18       30.808838   0.000000

 -0.2941176E+00  0.5882353E-01  0.3742002E-15  0.2035416E-03
    1       -4.294909   1.000000
    2        2.098981   1.000000
    3        3.972636   1.000000
    4        4.350140   1.000000
    5        5.263461   1.000000
    6        8.639884   1.000000
    7        9.355599   0.054593
    8       10.340504   0.000000
    9       11.700920   0.000000
   10       15.513166   0.000000
   11       15.522489   0.000000
   12       18.371394   0.000000
   13       18.924969   0.000000
   14       19.582570   0.000000
   15       28.269217   0.000000
   16       28.518846   0.000000
   17       29.944972   0.000000
   18       30.769039   0.000000

 -0.2352941E+00  0.5882353E-01  0.3742002E-15  0.2035416E-03
    1       -4.802287   1.000000
    2        2.891753   1.000000
    3        4.329557   1.000000
    4        4.480390   1.000000
    5        5.064185   1.000000
    6        8.866702   1.000000
    7        9.581038  -0.005533
    8       10.291835   0.000000
    9       11.220432   0.000000
   10       15.387309   0.000000
   11       15.718869   0.000000
   12       17.222795   0.000000
   13       18.109181   0.000000
   14       18.726006   0.000000
   15       28.079731   0.000000
   16       28.990071   0.000000
   17       30.805977   0.000000
   18       31.041238   0.000000

 -0.1764706E+00  0.5882353E-01  0.3742002E-15  0.2035416E-03
    1       -5.196990   1.000000
    2        3.595258   1.000000
    3        4.482317   1.000000
    4        4.726688   1.000000
    5        4.846237   1.000000
    6        9.070209   1.000000
    7       10.111497   0.000000
    8       10.487685   0.000000
    9       10.554442   0.000000
   10       15.145793   0.000000
   11       16.080373   0.000000
   12       16.267725   0.000000
   13       16.785147   0.000000
   14       18.445129   0.000000
   15       27.489106   0.000000
   16       29.069447   0.000000
   17       29.312284   0.000000
   18       31.294636   0.000000

 -0.1176471E+00  0.5882353E-01  0.3742002E-15  0.2035416E-03
    1       -5.467348   1.000000
    2        4.144898   1.000000
    3        4.374310   1.000000
    4        4.715777   1.000000
    5        5.104305   1.000000
    6        9.222724   0.981360
    7        9.928489   0.000000
    8       10.748419   0.000000
    9       10.885197   0.000000
   10       14.737559   0.000000
   11       15.159973   0.000000
   12       15.771963   0.000000
   13       16.902964   0.000000
   14       18.137139   0.000000
   15       27.025486   0.000000
   16       27.915136   0.000000
   17       28.897133   0.000000
   18       31.255570   0.000000

 -0.5882353E-01  0.5882353E-01  0.3742002E-15  0.2035416E-03
    1       -5.604822   1.000000
    2        4.276966   1.000000
    3        4.458442   1.000000
    4        4.659999   1.000000
    5        5.353365   1.000000
    6        9.299106   0.591843
    7        9.544182  -0.011343
    8       11.213606   0.000000
    9       11.281651   0.000000
   10       14.343374   0.000000
   11       14.535920   0.000000
   12       15.267361   0.000000
   13       17.340061   0.000000
   14       17.949006   0.000000
   15       26.773800   0.000000
   16       27.091741   0.000000
   17       28.774249   0.000000
   18       31.157103   0.000000

  0.3742002E-15  0.1176471E+00  0.3742002E-15  0.2035416E-03
    1       -5.399239   1.000000
    2        3.980404   1.000000
    3        4.438515   1.000000
    4        4.739591   1.000000
    5        4.995917   1.000000
    6        9.207487   0.994133
    7       10.076646   0.000000
    8       10.526447   0.000000
    9       10.788591   0.000000
   10       14.777767   0.000000
   11       15.564609   0.000000
   12       15.975355   0.000000
   13       16.720529   0.000000
   14       18.218877   0.000000
   15       27.163135   0.000000
   16       28.273869   0.000000
   17       28.951223   0.000000
   18       31.289804   0.000000

  0.5882353E-01  0.1176471E+00  0.3742002E-15  0.2035416E-03
    1       -5.196990   1.000000
    2        3.595252   1.000000
    3        4.482320   1.000000
    4        4.726690   1.000000
    5        4.846240   1.000000
    6        9.070205   1.000000
    7       10.111492   0.000000
    8       10.487692   0.000000
    9       10.554444   0.000000
   10       15.145792   0.000000
   11       16.080378   0.000000
   12       16.267724   0.000000
   13       16.785137   0.000000
   14       18.445133   0.000000
   15       27.489112   0.000000
   16       29.069450   0.000000
   17       29.312294   0.000000
   18       31.294773   0.000000

  0.1176471E+00  0.1176471E+00  0.3742002E-15  0.2035416E-03
    1       -4.866633   1.000000
    2        3.062037   1.000000
    3        4.337230   1.000000
    4        4.398863   1.000000
    5        5.119580   1.000000
    6        8.794787   1.000000
    7        9.590248  -0.018091
    8       10.340300   0.000000
    9       11.260304   0.000000
   10       15.609271   0.000000
   11       15.745503   0.000000
   12       16.665579   0.000000
   13       18.020596   0.000000
   14       18.731948   0.000000
   15       27.864254   0.000000
   16       29.040851   0.000000
   17       30.844977   0.000000
   18       30.933714   0.000000

  0.1764706E+00  0.1176471E+00  0.3742002E-15  0.2035416E-03
    1       -4.417567   1.000000
    2        2.417360   1.000000
    3        4.042568   1.000000
    4        4.086436   1.000000
    5        5.475215   1.000000
    6        8.438511   1.000000
    7        9.130990   0.522243
    8       10.470682   0.000000
    9       12.000737   0.000000
   10       15.370777   0.000000
   11       15.860353   0.000000
   12       17.561354   0.000000
   13       18.944860   0.000000
   14       19.432978   0.000000
   15       28.019535   0.000000
   16       28.451883   0.000000
   17       30.037673   0.000000
   18       31.557763   0.000000

  0.2352941E+00  0.1176471E+00  0.3742002E-15  0.2035416E-03
    1       -3.861875   1.000000
    2        1.684878   1.000000
    3        3.686783   1.000000
    4        3.827477   1.000000
    5        5.786299   1.000000
    6        8.059029   1.000000
    7        8.934270   1.051063
    8       10.788107   0.000000
    9       12.528074   0.000000
   10       15.382136   0.000000
   11       15.951054   0.000000
   12       18.438966   0.000000
   13       19.177817   0.000000
   14       20.902196   0.000000
   15       27.497186   0.000000
   16       27.569258   0.000000
   17       28.811690   0.000000
   18       31.301688   0.000000

  0.2941176E+00  0.1176471E+00  0.3742002E-15  0.2035416E-03
    1       -3.214142   1.000000
    2        0.886501   1.000000
    3        3.355697   1.000000
    4        3.636397   1.000000
    5        5.941738   1.000000
    6        7.711707   1.000000
    7        9.112809   0.659524
    8       11.127789   0.000000
    9       12.692786   0.000000
   10       15.873752   0.000000
   11       16.001782   0.000000
   12       18.382899   0.000000
   13       20.176229   0.000000
   14       22.296031   0.000000
   15       26.621458   0.000000
   16       26.669776   0.000000
   17       27.583286   0.000000
   18       30.769177   0.000000

  0.3529412E+00  0.1176471E+00  0.3742002E-15  0.2035416E-03
    1       -2.493652   1.000000
    2        0.053321   1.000000
    3        3.109611   1.000000
    4        3.514101   1.000000
    5        5.956931   1.000000
    6        7.446804   1.000000
    7        9.584247   0.011623
    8       11.296719   0.000000
    9       12.658305   0.000000
   10       16.110249   0.000000
   11       16.560139   0.000000
   12       17.961294   0.000000
   13       21.334130   0.000000
   14       23.376222   0.000000
   15       25.642059   0.000000
   16       26.126862   0.000000
   17       26.677523   0.000000
   18       29.892901   0.000000

  0.4117647E+00  0.1176471E+00  0.3742002E-15  0.2035416E-03
    1       -1.751240   1.000000
    2       -0.749983   1.000000
    3        2.980308   1.000000
    4        3.455355   1.000000
    5        5.932773   1.000000
    6        7.303443   1.000000
    7       10.063941   0.000000
    8       11.228753   0.000000
    9       12.606681   0.000000
   10       16.280197   0.000000
   11       17.048579   0.000000
   12       17.581104   0.000000
   13       22.187234   0.000000
   14       23.791942   0.000000
   15       25.014304   0.000000
   16       25.851890   0.000000
   17       26.406801   0.000000
   18       29.122862   0.000000

  0.4705882E+00  0.1176471E+00  0.3742002E-15  0.2035416E-03
    1       -1.751240   1.000000
    2       -0.749982   1.000000
    3        2.980307   1.000000
    4        3.455355   1.000000
    5        5.932773   1.000000
    6        7.303444   1.000000
    7       10.063943   0.000000
    8       11.228751   0.000000
    9       12.606681   0.000000
   10       16.280197   0.000000
   11       17.048579   0.000000
   12       17.581103   0.000000
   13       22.187233   0.000000
   14       23.791945   0.000000
   15       25.014303   0.000000
   16       25.851888   0.000000
   17       26.406807   0.000000
   18       29.122888   0.000000

 -0.4705882E+00  0.1176471E+00  0.3742002E-15  0.2035416E-03
    1       -2.493652   1.000000
    2        0.053323   1.000000
    3        3.109608   1.000000
    4        3.514099   1.000000
    5        5.956932   1.000000
    6        7.446807   1.000000
    7        9.584252   0.019960
    8       11.296716   0.000000
    9       12.658304   0.000000
   10       16.110249   0.000000
   11       16.560141   0.000000
   12       17.961293   0.000000
   13       21.334126   0.000000
   14       23.376226   0.000000
   15       25.642059   0.000000
   16       26.126863   0.000000
   17       26.677532   0.000000
   18       29.892968   0.000000

 -0.4117647E+00  0.1176471E+00  0.3742002E-15  0.2035416E-03
    1       -3.214142   1.000000
    2        0.886505   1.000000
    3        3.355691   1.000000
    4        3.636395   1.000000
    5        5.941738   1.000000
    6        7.711710   1.000000
    7        9.112814   0.648145
    8       11.127784   0.000000
    9       12.692785   0.000000
   10       15.873754   0.000000
   11       16.001783   0.000000
   12       18.382896   0.000000
   13       20.176223   0.000000
   14       22.296037   0.000000
   15       26.621454   0.000000
   16       26.669773   0.000000
   17       27.583298   0.000000
   18       30.767905   0.000000

 -0.3529412E+00  0.1176471E+00  0.3742002E-15  0.2035416E-03
    1       -3.861875   1.000000
    2        1.684883   1.000000
    3        3.686776   1.000000
    4        3.827474   1.000000
    5        5.786299   1.000000
    6        8.059033   1.000000