   49   49    1    1
  0.2411350E+02  0.8645320E-09  0.6085000E-09  0.2593596E-08  0.5000000E-15
   1.0000000000000000E-004
  CAR 
 Name                                    
    179    149    114

  0.3742002E-15  0.3742002E-15  0.3742002E-15  0.3367003E-02
    1      -13.957187   1.000000
    2      -12.753282   1.000000
    3      -12.412933   1.000000
    4      -11.952382   1.000000
    5      -11.591117   1.000000
    6      -11.211479   1.000000
    7      -11.174049   1.000000
    8      -10.862225   1.000000
    9      -10.726836   1.000000
   10      -10.705075   1.000000
   11      -10.589106   1.000000
   12      -10.466189   1.000000
   13      -10.328441   1.000000
   14      -10.180853   1.000000
   15       -9.778369   1.000000
   16       -9.280433   1.000000
   17       -9.140404   1.000000
   18       -9.075318   1.000000
   19       -8.918099   1.000000
   20       -8.561421   1.000000
   21       -8.377772   1.000000
   22       -8.222159   1.000000
   23       -8.022537   1.000000
   24       -7.963650   1.000000
   25       -7.562436   1.000000
   26       -7.485161   1.000000
   27       -7.461901   1.000000
   28       -7.204632   1.000000
   29       -7.121257   1.000000
   30       -6.538814   1.000000
   31       -6.283511   1.000000
   32       -6.202637   1.000000
   33       -6.160637   1.000000
   34       -6.013448   1.000000
   35       -5.899982   1.000000
   36       -5.824275   1.000000
   37       -5.520605   1.000000
   38       -5.387423   1.000000
   39       -5.369578   1.000000
   40       -5.284642   1.000000
   41       -5.231503   1.000000
   42       -4.978261   1.000000
   43       -4.943089   1.000000
   44       -4.884287   1.000000
   45       -4.758377   1.000000
   46       -4.742214   1.000000
   47       -4.705567   1.000000
   48       -4.544380   1.000000
   49       -4.521053   1.000000
   50       -4.370172   1.000000
   51       -4.259352   1.000000
   52       -4.191088   1.000000
   53       -4.103077   1.000000
   54       -3.971899   1.000000
   55       -3.933347   1.000000
   56       -3.914511   1.000000
   57       -3.896145   1.000000
   58       -3.765683   1.000000
   59       -3.728671   1.000000
   60       -3.660731   1.000000
   61       -3.620632   1.000000
   62       -3.444279   1.000000
   63       -3.414999   1.000000
   64       -3.275912   1.000000
   65       -3.263614   1.000000
   66       -3.120328   1.000000
   67       -2.972671   1.000000
   68       -2.921620   1.000000
   69       -2.760892   1.000000
   70       -2.696063   1.000000
   71       -2.508749   1.000000
   72       -2.357641   1.000000
   73       -2.320092   1.000000
   74       -2.168477   1.000000
   75       -2.052138   1.000000
   76       -1.764250   1.000000
   77       -1.657202   1.000000
   78       -1.602257   1.000000
   79       -1.430922   1.000000
   80       -1.391030   1.000000
   81       -1.357148   1.000000
   82       -1.101717   1.000000
   83       -1.061840   1.000000
   84       -0.795198   1.000037
   85       -0.569471   1.007155
   86       -0.420321   1.034891
   87       -0.296040   0.947715
   88       -0.211795   0.700977
   89       -0.009029   0.018504
   90        0.020248  -0.013864
   91        0.096282  -0.034770
   92        0.120084  -0.031253
   93        0.213039  -0.011596
   94        0.261279  -0.005325
   95        0.476366  -0.000030
   96        0.491661  -0.000019
   97        0.520631  -0.000008
   98        0.564781  -0.000002
   99        0.682459  -0.000000
  100        0.724417  -0.000000
  101        0.797718  -0.000000
  102        0.824315  -0.000000
  103        0.961551  -0.000000
  104        1.101204  -0.000000
  105        1.188496  -0.000000
  106        1.214784  -0.000000
  107        1.260815  -0.000000
  108        1.285574  -0.000000
  109        1.386027  -0.000000
  110        1.460283  -0.000000
  111        1.611234  -0.000000
  112        1.737276  -0.000000
  113        1.817923  -0.000000
  114        3.707691  -0.000000

  0.1111111E+00  0.3729374E-15  0.3860503E-15  0.6734007E-02
    1      -13.933434   1.000000
    2      -12.745038   1.000000
    3      -12.515819   1.000000
    4      -11.889613   1.000000
    5      -11.574002   1.000000
    6      -11.248797   1.000000
    7      -11.178420   1.000000
    8      -10.867922   1.000000
    9      -10.725982   1.000000
   10      -10.702923   1.000000
   11      -10.581430   1.000000
   12      -10.456300   1.000000
   13      -10.295075   1.000000
   14      -10.149448   1.000000
   15       -9.782289   1.000000
   16       -9.311183   1.000000
   17       -9.138880   1.000000
   18       -9.077457   1.000000
   19       -8.908088   1.000000
   20       -8.607193   1.000000
   21       -8.408596   1.000000
   22       -8.210218   1.000000
   23       -8.008441   1.000000
   24       -7.940656   1.000000
   25       -7.577461   1.000000
   26       -7.555254   1.000000
   27       -7.484978   1.000000
   28       -7.262896   1.000000
   29       -7.028875   1.000000
   30       -6.528668   1.000000
   31       -6.240390   1.000000
   32       -6.189425   1.000000
   33       -6.117238   1.000000
   34       -5.998107   1.000000
   35       -5.910602   1.000000
   36       -5.801332   1.000000
   37       -5.548865   1.000000
   38       -5.428842   1.000000
   39       -5.326878   1.000000
   40       -5.246114   1.000000
   41       -5.180103   1.000000
   42       -5.088234   1.000000
   43       -4.956650   1.000000
   44       -4.884344   1.000000
   45       -4.802705   1.000000
   46       -4.738610   1.000000
   47       -4.615397   1.000000
   48       -4.544738   1.000000
   49       -4.484875   1.000000
   50       -4.368387   1.000000
   51       -4.263568   1.000000
   52       -4.188001   1.000000
   53       -4.089710   1.000000
   54       -3.999861   1.000000
   55       -3.937479   1.000000
   56       -3.913257   1.000000
   57       -3.888104   1.000000
   58       -3.787153   1.000000
   59       -3.719673   1.000000
   60       -3.674280   1.000000
   61       -3.603792   1.000000
   62       -3.498834   1.000000
   63       -3.382594   1.000000
   64       -3.326686   1.000000
   65       -3.265611   1.000000
   66       -3.136575   1.000000
   67       -2.939857   1.000000
   68       -2.902416   1.000000
   69       -2.760268   1.000000
   70       -2.685604   1.000000
   71       -2.523017   1.000000
   72       -2.338872   1.000000
   73       -2.309654   1.000000
   74       -2.168890   1.000000
   75       -2.063579   1.000000
   76       -1.786413   1.000000
   77       -1.667655   1.000000
   78       -1.576161   1.000000
   79       -1.431377   1.000000
   80       -1.366703   1.000000
   81       -1.294394   1.000000
   82       -1.124239   1.000000
   83       -1.058365   1.000000
   84       -0.834134   1.000011
   85       -0.552603   1.009378
   86       -0.406723   1.035455
   87       -0.325051   0.992999
   88       -0.197756   0.645854
   89       -0.030247   0.054006
   90       -0.008616   0.017918
   91        0.107702  -0.033372
   92        0.138007  -0.027495
   93        0.247963  -0.006705
   94        0.273043  -0.004304
   95        0.405734  -0.000220
   96        0.485909  -0.000023
   97        0.525889  -0.000006
   98        0.564015  -0.000002
   99        0.658155  -0.000000
  100        0.729226  -0.000000
  101        0.806428  -0.000000
  102        0.876729  -0.000000
  103        0.980266  -0.000000
  104        1.143459  -0.000000
  105        1.206922  -0.000000
  106        1.230597  -0.000000
  107        1.252588  -0.000000
  108        1.293302  -0.000000
  109        1.390298  -0.000000
  110        1.461850  -0.000000
  111        1.528702  -0.000000
  112        1.651471  -0.000000
  113        1.773307  -0.000000
  114        3.850703  -0.000000

  0.2222222E+00  0.3922785E-15  0.3630220E-15  0.6734007E-02
    1      -13.864272   1.000000
    2      -12.815320   1.000000
    3      -12.612024   1.000000
    4      -11.829788   1.000000
    5      -11.547938   1.000000
    6      -11.311543   1.000000
    7      -11.169437   1.000000
    8      -10.883396   1.000000
    9      -10.726741   1.000000
   10      -10.693252   1.000000
   11      -10.563205   1.000000
   12      -10.430622   1.000000
   13      -10.225142   1.000000
   14      -10.065833   1.000000
   15       -9.796144   1.000000
   16       -9.391917   1.000000
   17       -9.126164   1.000000
   18       -9.072490   1.000000
   19       -8.868743   1.000000
   20       -8.721241   1.000000
   21       -8.509205   1.000000
   22       -8.195007   1.000000
   23       -8.027869   1.000000
   24       -7.883628   1.000000
   25       -7.682731   1.000000
   26       -7.547521   1.000000
   27       -7.505725   1.000000
   28       -7.314009   1.000000
   29       -6.959417   1.000000
   30       -6.509871   1.000000
   31       -6.192854   1.000000
   32       -6.146248   1.000000
   33       -6.049891   1.000000
   34       -5.947405   1.000000
   35       -5.879006   1.000000
   36       -5.785209   1.000000
   37       -5.566190   1.000000
   38       -5.466271   1.000000
   39       -5.327934   1.000000
   40       -5.203947   1.000000
   41       -5.130112   1.000000
   42       -5.070125   1.000000
   43       -4.947825   1.000000
   44       -4.904977   1.000000
   45       -4.861937   1.000000
   46       -4.758534   1.000000
   47       -4.578182   1.000000
   48       -4.501341   1.000000
   49       -4.440205   1.000000
   50       -4.361467   1.000000
   51       -4.262231   1.000000
   52       -4.167356   1.000000
   53       -4.087822   1.000000
   54       -4.047820   1.000000
   55       -3.960729   1.000000
   56       -3.913868   1.000000
   57       -3.888328   1.000000
   58       -3.782242   1.000000
   59       -3.704684   1.000000
   60       -3.682918   1.000000
   61       -3.578414   1.000000
   62       -3.549331   1.000000
   63       -3.469189   1.000000
   64       -3.361705   1.000000
   65       -3.262741   1.000000
   66       -3.157019   1.000000
   67       -2.905104   1.000000
   68       -2.866723   1.000000
   69       -2.765561   1.000000
   70       -2.657175   1.000000
   71       -2.553745   1.000000
   72       -2.333969   1.000000
   73       -2.262342   1.000000
   74       -2.188625   1.000000
   75       -2.045834   1.000000
   76       -1.842232   1.000000
   77       -1.657838   1.000000
   78       -1.529921   1.000000
   79       -1.439236   1.000000
   80       -1.353511   1.000000
   81       -1.159146   1.000000
   82       -1.110559   1.000000
   83       -1.008667   1.000000
   84       -0.934948   1.000000
   85       -0.561900   1.008098
   86       -0.389009   1.033944
   87       -0.368033   1.027680
   88       -0.170526   0.533107
   89       -0.074662   0.164511
   90       -0.011129   0.021541
   91        0.075886  -0.035295
   92        0.177348  -0.018538
   93        0.210541  -0.012020
   94        0.300756  -0.002519
   95        0.367304  -0.000577
   96        0.456457  -0.000054
   97        0.502818  -0.000013
   98        0.611575  -0.000000
   99        0.692583  -0.000000
  100        0.723117  -0.000000
  101        0.805297  -0.000000
  102        0.964113  -0.000000
  103        1.055244  -0.000000
  104        1.161834  -0.000000
  105        1.213078  -0.000000
  106        1.250716  -0.000000
  107        1.297512  -0.000000
  108        1.322057  -0.000000
  109        1.430487  -0.000000
  110        1.446669  -0.000000
  111        1.491952  -0.000000
  112        1.657732  -0.000000
  113        1.747630  -0.000000
  114        1.969178  -0.000000

  0.3333333E+00  0.3713828E-15  0.3468587E-15  0.6734007E-02
    1      -13.758672   1.000000
    2      -13.022262   1.000000
    3      -12.552667   1.000000
    4      -11.872438   1.000000
    5      -11.535391   1.000000
    6      -11.309821   1.000000
    7      -11.156325   1.000000
    8      -10.901101   1.000000
    9      -10.729445   1.000000
   10      -10.676332   1.000000
   11      -10.544851   1.000000
   12      -10.405674   1.000000
   13      -10.158258   1.000000
   14       -9.939968   1.000000
   15       -9.823569   1.000000
   16       -9.501874   1.000000
   17       -9.088678   1.000000
   18       -9.048734   1.000000
   19       -8.871486   1.000000
   20       -8.773380   1.000000
   21       -8.658754   1.000000
   22       -8.209788   1.000000
   23       -8.097211   1.000000
   24       -7.960396   1.000000
   25       -7.597065   1.000000
   26       -7.561419   1.000000
   27       -7.430507   1.000000
   28       -7.314225   1.000000
   29       -6.972848   1.000000
   30       -6.494127   1.000000
   31       -6.315550   1.000000
   32       -6.148793   1.000000
   33       -5.952154   1.000000
   34       -5.865139   1.000000
   35       -5.817000   1.000000
   36       -5.732361   1.000000
   37       -5.571513   1.000000
   38       -5.409039   1.000000
   39       -5.325181   1.000000
   40       -5.191908   1.000000
   41       -5.108548   1.000000
   42       -5.064288   1.000000
   43       -4.961313   1.000000
   44       -4.918892   1.000000
   45       -4.817943   1.000000
   46       -4.723276   1.000000
   47       -4.555134   1.000000
   48       -4.487702   1.000000
   49       -4.422098   1.000000
   50       -4.383083   1.000000
   51       -4.243678   1.000000
   52       -4.182923   1.000000
   53       -4.135803   1.000000
   54       -4.071397   1.000000
   55       -3.975453   1.000000
   56       -3.965158   1.000000
   57       -3.849474   1.000000
   58       -3.762569   1.000000
   59       -3.708168   1.000000
   60       -3.645667   1.000000
   61       -3.568547   1.000000
   62       -3.558821   1.000000
   63       -3.538991   1.000000
   64       -3.385889   1.000000
   65       -3.254021   1.000000
   66       -3.163285   1.000000
   67       -2.939692   1.000000
   68       -2.836415   1.000000
   69       -2.808648   1.000000
   70       -2.663357   1.000000
   71       -2.549998   1.000000
   72       -2.383112   1.000000
   73       -2.225265   1.000000
   74       -2.143240   1.000000
   75       -2.005365   1.000000
   76       -1.852343   1.000000
   77       -1.658187   1.000000
   78       -1.504841   1.000000
   79       -1.437806   1.000000
   80       -1.342445   1.000000
   81       -1.161022   1.000000
   82       -1.051348   1.000000
   83       -1.003054   1.000000
   84       -0.801662   1.000030
   85       -0.566476   1.007517
   86       -0.426502   1.034257
   87       -0.402691   1.035360
   88       -0.188903   0.609845
   89       -0.131214   0.368602
   90       -0.088714   0.209437
   91        0.006839  -0.001258
   92        0.154281  -0.023766
   93        0.265464  -0.004942
   94        0.365908  -0.000597
   95        0.395356  -0.000287
   96        0.421266  -0.000145
   97        0.491880  -0.000019
   98        0.662044  -0.000000
   99        0.727527  -0.000000
  100        0.781569  -0.000000
  101        0.823774  -0.000000
  102        1.036688  -0.000000
  103        1.108293  -0.000000
  104        1.145518  -0.000000
  105        1.211977  -0.000000
  106        1.251499  -0.000000
  107        1.324446  -0.000000
  108        1.383118  -0.000000
  109        1.482844  -0.000000
  110        1.534072  -0.000000
  111        1.583464  -0.000000
  112        1.603277  -0.000000
  113        1.743480  -0.000000
  114        2.062656  -0.000000

  0.4444444E+00  0.3870091E-15  0.3932070E-15  0.6734007E-02
    1      -13.651037   1.000000
    2      -13.193387   1.000000
    3      -12.481855   1.000000
    4      -11.956635   1.000000
    5      -11.515389   1.000000
    6      -11.294115   1.000000
    7      -11.147575   1.000000
    8      -10.912163   1.000000
    9      -10.731208   1.000000
   10      -10.663256   1.000000
   11      -10.534292   1.000000
   12      -10.393125   1.000000
   13      -10.110349   1.000000
   14       -9.854253   1.000000
   15       -9.794555   1.000000
   16       -9.626493   1.000000
   17       -9.038715   1.000000
   18       -9.005727   1.000000
   19       -8.963757   1.000000
   20       -8.809628   1.000000
   21       -8.669405   1.000000
   22       -8.304190   1.000000
   23       -8.164980   1.000000
   24       -7.961668   1.000000
   25       -7.589592   1.000000
   26       -7.521738   1.000000
   27       -7.415510   1.000000
   28       -7.147352   1.000000
   29       -7.018730   1.000000
   30       -6.565331   1.000000
   31       -6.460826   1.000000
   32       -6.156909   1.000000
   33       -5.911477   1.000000
   34       -5.772865   1.000000
   35       -5.716290   1.000000
   36       -5.686434   1.000000
   37       -5.549798   1.000000
   38       -5.408827   1.000000
   39       -5.301867   1.000000
   40       -5.223155   1.000000
   41       -5.125939   1.000000
   42       -5.076976   1.000000
   43       -4.954003   1.000000
   44       -4.894324   1.000000
   45       -4.771064   1.000000
   46       -4.641170   1.000000
   47       -4.551121   1.000000
   48       -4.492841   1.000000
   49       -4.429873   1.000000
   50       -4.338509   1.000000
   51       -4.267995   1.000000
   52       -4.255915   1.000000
   53       -4.204347   1.000000
   54       -4.056484   1.000000
   55       -4.007931   1.000000
   56       -3.983845   1.000000
   57       -3.819064   1.000000
   58       -3.781312   1.000000
   59       -3.700733   1.000000
   60       -3.608348   1.000000
   61       -3.562028   1.000000
   62       -3.538306   1.000000
   63       -3.513598   1.000000
   64       -3.398935   1.000000
   65       -3.268689   1.000000
   66       -3.146288   1.000000
   67       -2.978836   1.000000
   68       -2.900051   1.000000
   69       -2.836606   1.000000
   70       -2.663472   1.000000
   71       -2.535132   1.000000
   72       -2.429468   1.000000
   73       -2.203747   1.000000
   74       -2.102838   1.000000
   75       -1.975449   1.000000
   76       -1.791796   1.000000
   77       -1.689483   1.000000
   78       -1.501048   1.000000
   79       -1.442931   1.000000
   80       -1.322176   1.000000
   81       -1.231669   1.000000
   82       -1.018203   1.000000
   83       -0.892889   1.000002
   84       -0.688105   1.000644
   85       -0.585307   1.005455
   86       -0.509819   1.017023
   87       -0.363875   1.025728
   88       -0.282921   0.920521
   89       -0.179397   0.570399
   90       -0.095898   0.234073
   91        0.006633  -0.001036
   92        0.148287  -0.025152
   93        0.204630  -0.013064
   94        0.321940  -0.001621
   95        0.357353  -0.000731
   96        0.489558  -0.000020
   97        0.557884  -0.000002
   98        0.676220  -0.000000
   99        0.777429  -0.000000
  100        0.872808  -0.000000
  101        0.942152  -0.000000
  102        1.020217  -0.000000
  103        1.089770  -0.000000
  104        1.161822  -0.000000
  105        1.234074  -0.000000
  106        1.277473  -0.000000
  107        1.339913  -0.000000
  108        1.382936  -0.000000
  109        1.490206  -0.000000
  110        1.563971  -0.000000
  111        1.626418  -0.000000
  112        1.713474  -0.000000
  113        1.833260  -0.000000
  114        1.893402  -0.000000

  0.3742002E-15  0.9090909E-01  0.3596334E-15  0.6734007E-02
    1      -13.924544   1.000000
    2      -12.727144   1.000000
    3      -12.416577   1.000000
    4      -11.921061   1.000000
    5      -11.568891   1.000000
    6      -11.352491   1.000000
    7      -11.199263   1.000000
    8      -11.089457   1.000000
    9      -10.847591   1.000000
   10      -10.587402   1.000000
   11      -10.523382   1.000000
   12      -10.345288   1.000000
   13      -10.274696   1.000000
   14      -10.230815   1.000000
   15       -9.676582   1.000000
   16       -9.459603   1.000000
   17       -9.114613   1.000000
   18       -9.005912   1.000000
   19       -8.816181   1.000000
   20       -8.548139   1.000000
   21       -8.420558   1.000000
   22       -8.152748   1.000000
   23       -8.023332   1.000000
   24       -7.911267   1.000000
   25       -7.588030   1.000000
   26       -7.495075   1.000000
   27       -7.279759   1.000000
   28       -7.142697   1.000000
   29       -7.094433   1.000000
   30       -6.545307   1.000000
   31       -6.297874   1.000000
   32       -6.221026   1.000000
   33       -6.121893   1.000000
   34       -6.015213   1.000000
   35       -5.927262   1.000000
   36       -5.785375   1.000000
   37       -5.571121   1.000000
   38       -5.412219   1.000000
   39       -5.345505   1.000000
   40       -5.260540   1.000000
   41       -5.235077   1.000000
   42       -5.035595   1.000000
   43       -4.990683   1.000000
   44       -4.890018   1.000000
   45       -4.837496   1.000000
   46       -4.757130   1.000000
   47       -4.689360   1.000000
   48       -4.627072   1.000000
   49       -4.502893   1.000000
   50       -4.369579   1.000000
   51       -4.326823   1.000000
   52       -4.222895   1.000000
   53       -4.163305   1.000000
   54       -4.069609   1.000000
   55       -3.961560   1.000000
   56       -3.944566   1.000000
   57       -3.861345   1.000000
   58       -3.787724   1.000000
   59       -3.678698   1.000000
   60       -3.633511   1.000000
   61       -3.531684   1.000000
   62       -3.481822   1.000000
   63       -3.419630   1.000000
   64       -3.296449   1.000000
   65       -3.218452   1.000000
   66       -3.134419   1.000000
   67       -2.965877   1.000000
   68       -2.932069   1.000000
   69       -2.776159   1.000000
   70       -2.711278   1.000000
   71       -2.480000   1.000000
   72       -2.392429   1.000000
   73       -2.319553   1.000000
   74       -2.145236   1.000000
   75       -1.963709   1.000000
   76       -1.782752   1.000000
   77       -1.664645   1.000000
   78       -1.624962   1.000000
   79       -1.496628   1.000000
   80       -1.411289   1.000000
   81       -1.315488   1.000000
   82       -1.113212   1.000000
   83       -1.038815   1.000000
   84       -0.798334   1.000033
   85       -0.677432   1.000828
   86       -0.452585   1.029835
   87       -0.371746   1.029208
   88       -0.254858   0.847822
   89       -0.126352   0.348997
   90        0.000638   0.005810
   91        0.063991  -0.034008
   92        0.094967  -0.034887
   93        0.201093  -0.013714
   94        0.314341  -0.001904
   95        0.412245  -0.000185
   96        0.489795  -0.000020
   97        0.598262  -0.000001
   98        0.619670  -0.000000
   99        0.728887  -0.000000
  100        0.759339  -0.000000
  101        0.833359  -0.000000
  102        0.871085  -0.000000
  103        0.983710  -0.000000
  104        1.135705  -0.000000
  105        1.169439  -0.000000
  106        1.216529  -0.000000
  107        1.276361  -0.000000
  108        1.308228  -0.000000
  109        1.390672  -0.000000
  110        1.443754  -0.000000
  111        1.597192  -0.000000
  112        1.682332  -0.000000
  113        1.770468  -0.000000
  114        1.987410  -0.000000

  0.1111111E+00  0.9090909E-01  0.4822234E-15  0.6734007E-02
    1      -13.881900   1.000000
    2      -12.726197   1.000000
    3      -12.557790   1.000000
    4      -11.839627   1.000000
    5      -11.542937   1.000000
    6      -11.363227   1.000000
    7      -11.265589   1.000000
    8      -11.092046   1.000000
    9      -10.814110   1.000000
   10      -10.568832   1.000000
   11      -10.525931   1.000000
   12      -10.337050   1.000000
   13      -10.233575   1.000000
   14      -10.190126   1.000000
   15       -9.690352   1.000000
   16       -9.478834   1.000000
   17       -9.133330   1.000000
   18       -8.984773   1.000000
   19       -8.814047   1.000000
   20       -8.613345   1.000000
   21       -8.433207   1.000000
   22       -8.202696   1.000000
   23       -8.011301   1.000000
   24       -7.875177   1.000000
   25       -7.644471   1.000000
   26       -7.543317   1.000000
   27       -7.338961   1.000000
   28       -7.148596   1.000000
   29       -7.001765   1.000000
   30       -6.563084   1.000000
   31       -6.251165   1.000000
   32       -6.180277   1.000000
   33       -6.061643   1.000000
   34       -5.987486   1.000000
   35       -5.895606   1.000000
   36       -5.772242   1.000000
   37       -5.624144   1.000000
   38       -5.404616   1.000000
   39       -5.310054   1.000000
   40       -5.254310   1.000000
   41       -5.178383   1.000000
   42       -5.106257   1.000000
   43       -4.981328   1.000000
   44       -4.914888   1.000000
   45       -4.876497   1.000000
   46       -4.759835   1.000000
   47       -4.669479   1.000000
   48       -4.570975   1.000000
   49       -4.462839   1.000000
   50       -4.373988   1.000000
   51       -4.281080   1.000000
   52       -4.245632   1.000000
   53       -4.148690   1.000000
   54       -4.080330   1.000000
   55       -3.996222   1.000000
   56       -3.918169   1.000000
   57       -3.871165   1.000000
   58       -3.788821   1.000000
   59       -3.693006   1.000000
   60       -3.636243   1.000000
   61       -3.545356   1.000000
   62       -3.525595   1.000000
   63       -3.424833   1.000000
   64       -3.367425   1.000000
   65       -3.229515   1.000000
   66       -3.119582   1.000000
   67       -2.949768   1.000000
   68       -2.867322   1.000000
   69       -2.760624   1.000000
   70       -2.712901   1.000000
   71       -2.533734   1.000000
   72       -2.379417   1.000000
   73       -2.292670   1.000000
   74       -2.142253   1.000000
   75       -2.044951   1.000000
   76       -1.792563   1.000000
   77       -1.655553   1.000000
   78       -1.574103   1.000000
   79       -1.467659   1.000000
   80       -1.373251   1.000000
   81       -1.248248   1.000000
   82       -1.137183   1.000000
   83       -1.022438   1.000000
   84       -0.863130   1.000004
   85       -0.647149   1.001627
   86       -0.417163   1.035131
   87       -0.391151   1.034288
   88       -0.253748   0.844547
   89       -0.114102   0.300960
   90       -0.024525   0.043361
   91        0.053064  -0.031490
   92        0.088822  -0.035299
   93        0.217349  -0.010887
   94        0.315986  -0.001840
   95        0.381752  -0.000405
   96        0.470000  -0.000036
   97        0.581098  -0.000001
   98        0.646793  -0.000000
   99        0.716857  -0.000000
  100        0.773649  -0.000000
  101        0.838604  -0.000000
  102        0.897804  -0.000000
  103        1.028961  -0.000000
  104        1.157280  -0.000000
  105        1.209978  -0.000000
  106        1.232720  -0.000000
  107        1.292919  -0.000000
  108        1.314215  -0.000000
  109        1.392437  -0.000000
  110        1.455585  -0.000000
  111        1.515515  -0.000000
  112        1.626240  -0.000000
  113        1.785472  -0.000000
  114        1.836198  -0.000000

  0.2222222E+00  0.9090909E-01  0.3065600E-15  0.6734007E-02
    1      -13.796472   1.000000
    2      -12.873808   1.000000
    3      -12.572453   1.000000
    4      -11.818262   1.000000
    5      -11.527681   1.000000
    6      -11.379742   1.000000
    7      -11.298560   1.000000
    8      -11.097410   1.000000
    9      -10.755331   1.000000
   10      -10.551452   1.000000
   11      -10.512894   1.000000
   12      -10.334461   1.000000
   13      -10.168481   1.000000
   14      -10.139907   1.000000
   15       -9.715412   1.000000
   16       -9.490280   1.000000
   17       -9.174119   1.000000
   18       -8.959870   1.000000
   19       -8.787307   1.000000
   20       -8.694141   1.000000
   21       -8.487692   1.000000
   22       -8.272981   1.000000
   23       -8.048854   1.000000
   24       -7.919890   1.000000
   25       -7.638510   1.000000
   26       -7.503291   1.000000
   27       -7.357660   1.000000
   28       -7.165302   1.000000
   29       -6.965594   1.000000
   30       -6.577579   1.000000
   31       -6.250580   1.000000
   32       -6.137107   1.000000
   33       -6.017547   1.000000
   34       -5.920812   1.000000
   35       -5.860591   1.000000
   36       -5.735604   1.000000
   37       -5.593600   1.000000
   38       -5.432625   1.000000
   39       -5.312922   1.000000
   40       -5.235990   1.000000
   41       -5.156181   1.000000
   42       -5.069437   1.000000
   43       -4.967485   1.000000
   44       -4.957104   1.000000
   45       -4.859366   1.000000
   46       -4.756804   1.000000
   47       -4.631243   1.000000
   48       -4.545284   1.000000
   49       -4.415959   1.000000
   50       -4.367618   1.000000
   51       -4.311592   1.000000
   52       -4.229576   1.000000
   53       -4.162150   1.000000
   54       -4.100862   1.000000
   55       -3.965632   1.000000
   56       -3.914430   1.000000
   57       -3.879829   1.000000
   58       -3.788240   1.000000
   59       -3.705471   1.000000
   60       -3.633827   1.000000
   61       -3.585201   1.000000
   62       -3.541706   1.000000
   63       -3.475408   1.000000
   64       -3.410555   1.000000
   65       -3.244789   1.000000
   66       -3.114266   1.000000
   67       -2.968459   1.000000
   68       -2.823836   1.000000
   69       -2.766625   1.000000
   70       -2.673974   1.000000
   71       -2.601159   1.000000
   72       -2.337042   1.000000
   73       -2.307704   1.000000
   74       -2.149693   1.000000
   75       -2.048650   1.000000
   76       -1.818697   1.000000
   77       -1.647712   1.000000
   78       -1.542233   1.000000
   79       -1.500328   1.000000
   80       -1.315416   1.000000
   81       -1.142087   1.000000
   82       -1.080247   1.000000
   83       -0.987602   1.000000
   84       -0.909639   1.000001
   85       -0.639701   1.001906
   86       -0.461136   1.027998
   87       -0.399653   1.035198
   88       -0.252495   0.840814
   89       -0.142153   0.413583
   90       -0.006639   0.015170