 running on   48 total cores
 distrk:  each k-point on   48 cores,    1 groups
 distr:  one band on    8 cores,    6 groups
 using from now: INCAR     
 vasp.5.4.4.18Apr17-6-g9f103f2a35 (build Dec  7 2020 12:43:57) complex           
 POSCAR found type information on POSCAR  Mo V  B  H 
 POSCAR found :  4 types and      49 ions
 scaLAPACK will be used

 ----------------------------------------------------------------------------- 
|                                                                             |
|  ADVICE TO THIS USER RUNNING 'VASP/VAMP'   (HEAR YOUR MASTER'S VOICE ...):  |
|                                                                             |
|      You enforced a specific xc-type in the INCAR file,                     |
|      a different type was found on the POTCAR file                          |
|          I HOPE YOU KNOW, WHAT YOU ARE  DOING                               |
|                                                                             |
 ----------------------------------------------------------------------------- 

 LDA part: xc-table for Pade appr. of Perdew
 POSCAR, INCAR and KPOINTS ok, starting setup
 resort distribution
 resort distribution
 resort distribution
 resort distribution
 resort distribution
 resort distribution
 resort distribution
 resort distribution
 resort distribution
 resort distribution
 resort distribution
 resort distribution
 resort distribution
 resort distribution
 resort distribution
 resort distribution
 resort distribution
 resort distribution
 resort distribution
 resort distribution
 resort distribution
 resort distribution
 resort distribution
 resort distribution
 resort distribution
 resort distribution
 resort distribution
 resort distribution
 resort distribution
 resort distribution
 resort distribution
 resort distribution
 resort distribution
 resort distribution
 resort distribution
 resort distribution
 resort distribution
 resort distribution
 resort distribution
 resort distribution
 resort distribution
 resort distribution
 resort distribution
 resort distribution
 resort distribution
 resort distribution
 resort distribution
 resort distribution
 FFT: planning ...
 WAVECAR not read
 augmentation electrons   179.07798118623100     
 soft         electrons   0.0000000000000000     
 augmentation electrons   179.07798118623100     
 soft         electrons   0.0000000000000000     
 augmentation electrons   179.07798118623100     
 soft         electrons   0.0000000000000000     
 augmentation electrons   179.07798118623100     
 soft         electrons   0.0000000000000000     
 augmentation electrons   179.07798118623100     
 soft         electrons   0.0000000000000000     
 augmentation electrons   179.07798118623100     
 soft         electrons   0.0000000000000000     
 augmentation electrons   179.07798118623100     
 soft         electrons   0.0000000000000000     
 augmentation electrons   179.07798118623100     
 soft         electrons   0.0000000000000000     
 augmentation electrons   179.07798118623100     
 soft         electrons   0.0000000000000000     
 augmentation electrons   179.07798118623100     
 soft         electrons   0.0000000000000000     
 augmentation electrons   179.07798118623100     
 soft         electrons   0.0000000000000000     
 augmentation electrons   179.07798118623100     
 soft         electrons   0.0000000000000000     
 augmentation electrons   179.07798118623100     
 soft         electrons   0.0000000000000000     
 augmentation electrons   179.07798118623100     
 soft         electrons   0.0000000000000000     
 augmentation electrons   179.07798118623100     
 soft         electrons   0.0000000000000000     
 augmentation electrons   179.07798118623100     
 soft         electrons   0.0000000000000000     
 augmentation electrons   179.07798118623100     
 soft         electrons   0.0000000000000000     
 augmentation electrons   179.07798118623100     
 soft         electrons   0.0000000000000000     
 augmentation electrons   179.07798118623100     
 soft         electrons   0.0000000000000000     
 augmentation electrons   179.07798118623100     
 soft         electrons   0.0000000000000000     
 augmentation electrons   179.07798118623100     
 soft         electrons   0.0000000000000000     
 augmentation electrons   179.07798118623100     
 soft         electrons   0.0000000000000000     
 augmentation electrons   179.07798118623100     
 soft         electrons   0.0000000000000000     
 augmentation electrons   179.07798118623100     
 soft         electrons   0.0000000000000000     
 augmentation electrons   179.07798118623100     
 soft         electrons   0.0000000000000000     
 augmentation electrons   179.07798118623100     
 soft         electrons   0.0000000000000000     
 augmentation electrons   179.07798118623100     
 soft         electrons   0.0000000000000000     
 augmentation electrons   179.07798118623100     
 soft         electrons   0.0000000000000000     
 augmentation electrons   179.07798118623100     
 soft         electrons   0.0000000000000000     
 augmentation electrons   179.07798118623100     
 soft         electrons   0.0000000000000000     
 augmentation electrons   179.07798118623100     
 soft         electrons   0.0000000000000000     
 augmentation electrons   179.07798118623100     
 soft         electrons   0.0000000000000000     
 augmentation electrons   179.07798118623100     
 soft         electrons   0.0000000000000000     
 augmentation electrons   179.07798118623100     
 augmentation electrons   179.07798118623100     
 soft         electrons   0.0000000000000000     
 augmentation electrons   179.07798118623100     
 soft         electrons   0.0000000000000000     
 augmentation electrons   179.07798118623100     
 soft         electrons   0.0000000000000000     
 augmentation electrons   179.07798118623100     
 soft         electrons   0.0000000000000000     
 augmentation electrons   179.07798118623100     
 soft         electrons   0.0000000000000000     
 augmentation electrons   179.07798118623100     
 soft         electrons   0.0000000000000000     
 augmentation electrons   179.07798118623100     
 soft         electrons   0.0000000000000000     
 augmentation electrons   179.07798118623100     
 soft         electrons   0.0000000000000000     
 augmentation electrons   179.07798118623100     
 soft         electrons   0.0000000000000000     
 augmentation electrons   179.07798118623100     
 soft         electrons   0.0000000000000000     
 augmentation electrons   179.07798118623100     
 soft         electrons   0.0000000000000000     
 augmentation electrons   179.07798118623100     
 soft         electrons   0.0000000000000000     
 soft         electrons   0.0000000000000000     
 augmentation electrons   179.07798118623100     
 soft         electrons   0.0000000000000000     
 augmentation electrons   179.07798118623100     
 soft         electrons   0.0000000000000000     
 total        electrons   179.07798118623100     
 total        electrons   179.07798118623100     
 total        electrons   179.07798118623100     
 total        electrons   179.07798118623100     
 total        electrons   179.07798118623100     
 total        electrons   179.07798118623100     
 total        electrons   179.07798118623100     
 total        electrons   179.07798118623100     
 total        electrons   179.07798118623100     
 total        electrons   179.07798118623100     
 total        electrons   179.07798118623100     
 total        electrons   179.07798118623100     
 total        electrons   179.07798118623100     
 total        electrons   179.07798118623100     
 total        electrons   179.07798118623100     
 total        electrons   179.07798118623100     
 total        electrons   179.07798118623100     
 total        electrons   179.07798118623100     
 total        electrons   179.07798118623100     
 total        electrons   179.07798118623100     
 total        electrons   179.07798118623100     
 total        electrons   179.07798118623100     
 total        electrons   179.07798118623100     
 total        electrons   179.07798118623100     
 total        electrons   179.07798118623100     
 total        electrons   179.07798118623100     
 total        electrons   179.07798118623100     
 total        electrons   179.07798118623100     
 total        electrons   179.07798118623100     
 total        electrons   179.07798118623100     
 total        electrons   179.07798118623100     
 total        electrons   179.07798118623100     
 total        electrons   179.07798118623100     
 total        electrons   179.07798118623100     
 total        electrons   179.07798118623100     
 total        electrons   179.07798118623100     
 total        electrons   179.07798118623100     
 total        electrons   179.07798118623100     
 total        electrons   179.07798118623100     
 total        electrons   179.07798118623100     
 total        electrons   179.07798118623100     
 total        electrons   179.07798118623100     
 total        electrons   179.07798118623100     
 total        electrons   179.07798118623100     
 total        electrons   179.07798118623100     
 total        electrons   179.07798118623100     
 total        electrons   179.07798118623100     
 total        electrons   179.07798118623100     
 augmentation electrons   1106.0944788596130     
 soft         electrons   0.0000000000000000     
 augmentation electrons   1106.0944788596130     
 soft         electrons   0.0000000000000000     
 augmentation electrons   1106.0944788596130     
 soft         electrons   0.0000000000000000     
 augmentation electrons   1106.0944788596130     
 soft         electrons   0.0000000000000000     
 augmentation electrons   1106.0944788596130     
 soft         electrons   0.0000000000000000     
 augmentation electrons   1106.0944788596130     
 soft         electrons   0.0000000000000000     
 augmentation electrons   1106.0944788596130     
 soft         electrons   0.0000000000000000     
 augmentation electrons   1106.0944788596130     
 soft         electrons   0.0000000000000000     
 augmentation electrons   1106.0944788596130     
 soft         electrons   0.0000000000000000     
 augmentation electrons   1106.0944788596130     
 soft         electrons   0.0000000000000000     
 augmentation electrons   1106.0944788596130     
 soft         electrons   0.0000000000000000     
 augmentation electrons   1106.0944788596130     
 soft         electrons   0.0000000000000000     
 augmentation electrons   1106.0944788596130     
 soft         electrons   0.0000000000000000     
 augmentation electrons   1106.0944788596130     
 soft         electrons   0.0000000000000000     
 augmentation electrons   1106.0944788596130     
 soft         electrons   0.0000000000000000     
 augmentation electrons   1106.0944788596130     
 soft         electrons   0.0000000000000000     
 augmentation electrons   1106.0944788596130     
 soft         electrons   0.0000000000000000     
 augmentation electrons   1106.0944788596130     
 soft         electrons   0.0000000000000000     
 augmentation electrons   1106.0944788596130     
 soft         electrons   0.0000000000000000     
 augmentation electrons   1106.0944788596130     
 soft         electrons   0.0000000000000000     
 augmentation electrons   1106.0944788596130     
 soft         electrons   0.0000000000000000     
 augmentation electrons   1106.0944788596130     
 soft         electrons   0.0000000000000000     
 augmentation electrons   1106.0944788596130     
 soft         electrons   0.0000000000000000     
 augmentation electrons   1106.0944788596130     
 soft         electrons   0.0000000000000000     
 augmentation electrons   1106.0944788596130     
 soft         electrons   0.0000000000000000     
 augmentation electrons   1106.0944788596130     
 soft         electrons   0.0000000000000000     
 augmentation electrons   1106.0944788596130     
 soft         electrons   0.0000000000000000     
 augmentation electrons   1106.0944788596130     
 soft         electrons   0.0000000000000000     
 augmentation electrons   1106.0944788596130     
 soft         electrons   0.0000000000000000     
 augmentation electrons   1106.0944788596130     
 soft         electrons   0.0000000000000000     
 augmentation electrons   1106.0944788596130     
 soft         electrons   0.0000000000000000     
 augmentation electrons   1106.0944788596130     
 soft         electrons   0.0000000000000000     
 augmentation electrons   1106.0944788596130     
 soft         electrons   0.0000000000000000     
 augmentation electrons   1106.0944788596130     
 soft         electrons   0.0000000000000000     
 augmentation electrons   1106.0944788596130     
 soft         electrons   0.0000000000000000     
 augmentation electrons   1106.0944788596130     
 soft         electrons   0.0000000000000000     
 augmentation electrons   1106.0944788596130     
 soft         electrons   0.0000000000000000     
 augmentation electrons   1106.0944788596130     
 soft         electrons   0.0000000000000000     
 augmentation electrons   1106.0944788596130     
 soft         electrons   0.0000000000000000     
 augmentation electrons   1106.0944788596130     
 soft         electrons   0.0000000000000000     
 augmentation electrons   1106.0944788596130     
 soft         electrons   0.0000000000000000     
 augmentation electrons   1106.0944788596130     
 soft         electrons   0.0000000000000000     
 augmentation electrons   1106.0944788596130     
 soft         electrons   0.0000000000000000     
 augmentation electrons   1106.0944788596130     
 soft         electrons   0.0000000000000000     
 augmentation electrons   1106.0944788596130     
 soft         electrons   0.0000000000000000     
 augmentation electrons   1106.0944788596130     
 soft         electrons   0.0000000000000000     
 augmentation electrons   1106.0944788596130     
 soft         electrons   0.0000000000000000     
 augmentation electrons   1106.0944788596130     
 soft         electrons   0.0000000000000000     
 total        electrons   1106.0944788596130     
 total        electrons   1106.0944788596130     
 total        electrons   1106.0944788596130     
 total        electrons   1106.0944788596130     
 total        electrons   1106.0944788596130     
 total        electrons   1106.0944788596130     
 total        electrons   1106.0944788596130     
 total        electrons   1106.0944788596130     
 total        electrons   1106.0944788596130     
 total        electrons   1106.0944788596130     
 total        electrons   1106.0944788596130     
 total        electrons   1106.0944788596130     
 total        electrons   1106.0944788596130     
 total        electrons   1106.0944788596130     
 total        electrons   1106.0944788596130     
 total        electrons   1106.0944788596130     
 total        electrons   1106.0944788596130     
 total        electrons   1106.0944788596130     
 total        electrons   1106.0944788596130     
 total        electrons   1106.0944788596130     
 total        electrons   1106.0944788596130     
 total        electrons   1106.0944788596130     
 total        electrons   1106.0944788596130     
 total        electrons   1106.0944788596130     
 total        electrons   1106.0944788596130     
 total        electrons   1106.0944788596130     
 total        electrons   1106.0944788596130     
 total        electrons   1106.0944788596130     
 total        electrons   1106.0944788596130     
 total        electrons   1106.0944788596130     
 total        electrons   1106.0944788596130     
 total        electrons   1106.0944788596130     
 total        electrons   1106.0944788596130     
 total        electrons   1106.0944788596130     
 total        electrons   1106.0944788596130     
 total        electrons   1106.0944788596130     
 total        electrons   1106.0944788596130     
 total        electrons   1106.0944788596130     
 total        electrons   1106.0944788596130     
 total        electrons   1106.0944788596130     
 total        electrons   1106.0944788596130     
 total        electrons   1106.0944788596130     
 total        electrons   1106.0944788596130     
 total        electrons   1106.0944788596130     
 total        electrons   1106.0944788596130     
 total        electrons   1106.0944788596130     
 total        electrons   1106.0944788596130     
 total        electrons   1106.0944788596130     
 entering main loop
       N       E                     dE             d eps       ncg     rms          rms(c)
DAV:   1     0.152565922701E+04    0.15257E+04   -0.63831E+04 33972   0.125E+03
DAV:   2    -0.151487248173E+03   -0.16771E+04   -0.15906E+04 41760   0.295E+02
DAV:   3    -0.408650137029E+03   -0.25716E+03   -0.24780E+03 47316   0.136E+02
DAV:   4    -0.429043210453E+03   -0.20393E+02   -0.19764E+02 55452   0.425E+01
DAV:   5    -0.430041559482E+03   -0.99835E+00   -0.97670E+00 57204   0.861E+00    0.109E+02
RMM:   6    -0.388928409606E+03    0.41113E+02   -0.75546E+02 54889   0.929E+01    0.501E+01
RMM:   7    -0.405293341044E+03   -0.16365E+02   -0.26755E+02 36137   0.862E+01    0.370E+01
RMM:   8    -0.369058989791E+03    0.36234E+02   -0.81410E+01 45103   0.264E+01    0.241E+01
RMM:   9    -0.367525259011E+03    0.15337E+01   -0.62533E+01 49241   0.178E+01    0.190E+01
RMM:  10    -0.359614545599E+03    0.79107E+01   -0.11201E+01 42093   0.129E+01    0.131E+01
RMM:  11    -0.359694612476E+03   -0.80067E-01   -0.38281E+00 40706   0.856E+00    0.119E+01
RMM:  12    -0.359574167860E+03    0.12044E+00   -0.21111E+00 52110   0.298E+00    0.104E+01
RMM:  13    -0.359296858955E+03    0.27731E+00   -0.95771E-01 39087   0.362E+00    0.868E+00
RMM:  14    -0.358761824940E+03    0.53503E+00   -0.28558E+00 38604   0.713E+00    0.413E+00
RMM:  15    -0.358685170450E+03    0.76654E-01   -0.12298E+00 52824   0.203E+00    0.250E+00
RMM:  16    -0.358633903513E+03    0.51267E-01   -0.25778E-01 41148   0.204E+00    0.165E+00
RMM:  17    -0.358622944395E+03    0.10959E-01   -0.17260E-01 49424   0.125E+00    0.130E+00
RMM:  18    -0.358614236749E+03    0.87076E-02   -0.13788E-01 38895   0.157E+00    0.124E+00
RMM:  19    -0.358595544136E+03    0.18693E-01   -0.43514E-02 39855   0.876E-01    0.471E-01
RMM:  20    -0.358596300927E+03   -0.75679E-03   -0.44544E-02 50977   0.454E-01    0.463E-01
RMM:  21    -0.358593338090E+03    0.29628E-02   -0.85570E-03 40582   0.337E-01    0.169E-01
RMM:  22    -0.358594398705E+03   -0.10606E-02   -0.82206E-03 52206   0.208E-01    0.181E-01
RMM:  23    -0.358594907039E+03   -0.50833E-03   -0.15960E-03 51745   0.902E-02    0.143E-01
RMM:  24    -0.358595245867E+03   -0.33883E-03   -0.77428E-04 43200   0.859E-02    0.774E-02
RMM:  25    -0.358596244083E+03   -0.99822E-03   -0.63010E-04 39798   0.623E-02    0.753E-02
RMM:  26    -0.358596788921E+03   -0.54484E-03   -0.39464E-04 42000   0.708E-02    0.261E-02
RMM:  27    -0.358597213198E+03   -0.42428E-03   -0.19346E-04 48018   0.286E-02    0.170E-02
RMM:  28    -0.358597394015E+03   -0.18082E-03   -0.12310E-04 46303   0.260E-02    0.195E-02
RMM:  29    -0.358597480199E+03   -0.86184E-04   -0.28426E-05 36695   0.141E-02    0.986E-03
RMM:  30    -0.358597556627E+03   -0.76427E-04   -0.24236E-05 38229   0.990E-03    0.102E-02
RMM:  31    -0.358597589891E+03   -0.33264E-04   -0.70214E-06 31339   0.987E-03    0.351E-03
RMM:  32    -0.358597638071E+03   -0.48181E-04   -0.73948E-06 31086   0.518E-03    0.501E-03
RMM:  33    -0.358597699335E+03   -0.61263E-04   -0.50971E-06 30915   0.596E-03    0.349E-03
RMM:  34    -0.358597722262E+03   -0.22927E-04   -0.23328E-06 28871   0.617E-03    0.369E-03
RMM:  35    -0.358597742450E+03   -0.20188E-04   -0.20871E-06 29016   0.248E-03    0.276E-03
RMM:  36    -0.358597757696E+03   -0.15246E-04   -0.12114E-06 26691   0.273E-03    0.136E-03
RMM:  37    -0.358597762234E+03   -0.45375E-05   -0.44734E-07 22141   0.229E-03    0.932E-04
RMM:  38    -0.358597765751E+03   -0.35171E-05   -0.34974E-07 19281   0.162E-03    0.605E-04
RMM:  39    -0.358597768259E+03   -0.25082E-05   -0.28216E-07 18458   0.170E-03    0.400E-04
RMM:  40    -0.358597769545E+03   -0.12861E-05   -0.21945E-07 15552   0.127E-03    0.239E-04
RMM:  41    -0.358597770169E+03   -0.62332E-06   -0.15337E-07 14581   0.127E-03
   1 F= -.35859777E+03 E0= -.35859963E+03  d E =0.558408E-02
 augmentation electrons   18.660037748372922     
 soft         electrons   160.47220502406157     
 augmentation electrons   18.660037748372922     
 soft         electrons   160.47220502406157     
 total        electrons   179.13224277243449     
 augmentation electrons   18.660037748372922     
 soft         electrons   160.47220502406157     
 total        electrons   179.13224277243449     
 augmentation electrons   18.660037748372922     
 soft         electrons   160.47220502406157     
 total        electrons   179.13224277243449     
 augmentation electrons   18.660037748372922     
 soft         electrons   160.47220502406157     
 total        electrons   179.13224277243449     
 augmentation electrons   18.660037748372922     
 soft         electrons   160.47220502406157     
 total        electrons   179.13224277243449     
 augmentation electrons   18.660037748372922     
 soft         electrons   160.47220502406157     
 total        electrons   179.13224277243449     
 augmentation electrons   18.660037748372922     
 soft         electrons   160.47220502406157     
 total        electrons   179.13224277243449     
 augmentation electrons   18.660037748372922     
 soft         electrons   160.47220502406157     
 total        electrons   179.13224277243449     
 augmentation electrons   18.660037748372922     
 soft         electrons   160.47220502406157     
 total        electrons   179.13224277243449     
 augmentation electrons   18.660037748372922     
 soft         electrons   160.47220502406157     
 total        electrons   179.13224277243449     
 augmentation electrons   18.660037748372922     
 soft         electrons   160.47220502406157     
 total        electrons   179.13224277243449     
 augmentation electrons   18.660037748372922     
 soft         electrons   160.47220502406157     
 total        electrons   179.13224277243449     
 augmentation electrons   18.660037748372922     
 soft         electrons   160.47220502406157     
 total        electrons   179.13224277243449     
 augmentation electrons   18.660037748372922     
 soft         electrons   160.47220502406157     
 total        electrons   179.13224277243449     
 augmentation electrons   18.660037748372922     
 soft         electrons   160.47220502406157     
 total        electrons   179.13224277243449     
 augmentation electrons   18.660037748372922     
 soft         electrons   160.47220502406157     
 total        electrons   179.13224277243449     
 augmentation electrons   18.660037748372922     
 soft         electrons   160.47220502406157     
 total        electrons   179.13224277243449     
 augmentation electrons   18.660037748372922     
 soft         electrons   160.47220502406157     
 total        electrons   179.13224277243449     
 augmentation electrons   18.660037748372922     
 soft         electrons   160.47220502406157     
 total        electrons   179.13224277243449     
 augmentation electrons   18.660037748372922     
 soft         electrons   160.47220502406157     
 total        electrons   179.13224277243449     
 augmentation electrons   18.660037748372922     
 soft         electrons   160.47220502406157     
 total        electrons   179.13224277243449     
 augmentation electrons   18.660037748372922     
 soft         electrons   160.47220502406157     
 total        electrons   179.13224277243449     
 augmentation electrons   18.660037748372922     
 soft         electrons   160.47220502406157     
 total        electrons   179.13224277243449     
 augmentation electrons   18.660037748372922     
 soft         electrons   160.47220502406157     
 total        electrons   179.13224277243449     
 augmentation electrons   18.660037748372922     
 soft         electrons   160.47220502406157     
 total        electrons   179.13224277243449     
 augmentation electrons   18.660037748372922     
 soft         electrons   160.47220502406157     
 total        electrons   179.13224277243449     
 augmentation electrons   18.660037748372922     
 soft         electrons   160.47220502406157     
 total        electrons   179.13224277243449     
 augmentation electrons   18.660037748372922     
 soft         electrons   160.47220502406157     
 total        electrons   179.13224277243449     
 augmentation electrons   18.660037748372922     
 soft         electrons   160.47220502406157     
 total        electrons   179.13224277243449     
 augmentation electrons   18.660037748372922     
 soft         electrons   160.47220502406157     
 total        electrons   179.13224277243449     
 augmentation electrons   18.660037748372922     
 soft         electrons   160.47220502406157     
 total        electrons   179.13224277243449     
 augmentation electrons   18.660037748372922     
 soft         electrons   160.47220502406157     
 total        electrons   179.13224277243449     
 augmentation electrons   18.660037748372922     
 soft         electrons   160.47220502406157     
 total        electrons   179.13224277243449     
 augmentation electrons   18.660037748372922     
 soft         electrons   160.47220502406157     
 total        electrons   179.13224277243449     
 augmentation electrons   18.660037748372922     
 soft         electrons   160.47220502406157     
 total        electrons   179.13224277243449     
 augmentation electrons   18.660037748372922     
 soft         electrons   160.47220502406157     
 total        electrons   179.13224277243449     
 augmentation electrons   18.660037748372922     
 soft         electrons   160.47220502406157     
 total        electrons   179.13224277243449     
 augmentation electrons   18.660037748372922     
 soft         electrons   160.47220502406157     
 total        electrons   179.13224277243449     
 augmentation electrons   18.660037748372922     
 soft         electrons   160.47220502406157     
 total        electrons   179.13224277243449     
 augmentation electrons   18.660037748372922     
 soft         electrons   160.47220502406157     
 total        electrons   179.13224277243449     
 augmentation electrons   18.660037748372922     
 soft         electrons   160.47220502406157     
 augmentation electrons   18.660037748372922     
 soft         electrons   160.47220502406157     
 total        electrons   179.13224277243449     
 augmentation electrons   18.660037748372922     
 soft         electrons   160.47220502406157     
 total        electrons   179.13224277243449     
 augmentation electrons   18.660037748372922     
 soft         electrons   160.47220502406157     
 total        electrons   179.13224277243449     
 augmentation electrons   18.660037748372922     
 soft         electrons   160.47220502406157     
 total        electrons   179.13224277243449     
 augmentation electrons   18.660037748372922     
 soft         electrons   160.47220502406157     
 total        electrons   179.13224277243449     
 total        electrons   179.13224277243449     
 augmentation electrons   18.660037748372922     
 soft         electrons   160.47220502406157     
 total        electrons   179.13224277243449     
 total        electrons   179.13224277243449     
Note: The following floating-point exceptions are signalling: IEEE_OVERFLOW_FLAG
Note: The following floating-point exceptions are signalling: IEEE_OVERFLOW_FLAG
Note: The following floating-point exceptions are signalling: IEEE_OVERFLOW_FLAG
Note: The following floating-point exceptions are signalling: IEEE_OVERFLOW_FLAG
Note: The following floating-point exceptions are signalling: IEEE_OVERFLOW_FLAG
Note: The following floating-point exceptions are signalling: IEEE_OVERFLOW_FLAG
Note: The following floating-point exceptions are signalling: IEEE_OVERFLOW_FLAG
Note: The following floating-point exceptions are signalling: IEEE_OVERFLOW_FLAG
Note: The following floating-point exceptions are signalling: IEEE_OVERFLOW_FLAG
Note: The following floating-point exceptions are signalling: IEEE_OVERFLOW_FLAG
Note: The following floating-point exceptions are signalling: IEEE_OVERFLOW_FLAG
Note: The following floating-point exceptions are signalling: IEEE_OVERFLOW_FLAG
Note: The following floating-point exceptions are signalling: IEEE_OVERFLOW_FLAG
Note: The following floating-point exceptions are signalling: IEEE_OVERFLOW_FLAG
Note: The following floating-point exceptions are signalling: IEEE_OVERFLOW_FLAG
Note: The following floating-point exceptions are signalling: IEEE_OVERFLOW_FLAG
Note: The following floating-point exceptions are signalling: IEEE_OVERFLOW_FLAG
Note: The following floating-point exceptions are signalling: IEEE_OVERFLOW_FLAG
Note: The following floating-point exceptions are signalling: IEEE_OVERFLOW_FLAG
Note: The following floating-point exceptions are signalling: IEEE_OVERFLOW_FLAG
Note: The following floating-point exceptions are signalling: IEEE_OVERFLOW_FLAG
Note: The following floating-point exceptions are signalling: IEEE_OVERFLOW_FLAG
Note: The following floating-point exceptions are signalling: IEEE_OVERFLOW_FLAG
Note: The following floating-point exceptions are signalling: IEEE_OVERFLOW_FLAG
Note: The following floating-point exceptions are signalling: IEEE_OVERFLOW_FLAG
Note: The following floating-point exceptions are signalling: IEEE_OVERFLOW_FLAG
Note: The following floating-point exceptions are signalling: IEEE_OVERFLOW_FLAG
Note: The following floating-point exceptions are signalling: IEEE_OVERFLOW_FLAG
Note: The following floating-point exceptions are signalling: IEEE_OVERFLOW_FLAG
Note: The following floating-point exceptions are signalling: IEEE_OVERFLOW_FLAG
Note: The following floating-point exceptions are signalling: IEEE_OVERFLOW_FLAG
Note: The following floating-point exceptions are signalling: IEEE_OVERFLOW_FLAG
Note: The following floating-point exceptions are signalling: IEEE_OVERFLOW_FLAG
Note: The following floating-point exceptions are signalling: IEEE_OVERFLOW_FLAG
Note: The following floating-point exceptions are signalling: IEEE_OVERFLOW_FLAG
Note: The following floating-point exceptions are signalling: IEEE_OVERFLOW_FLAG
Note: The following floating-point exceptions are signalling: IEEE_OVERFLOW_FLAG
Note: The following floating-point exceptions are signalling: IEEE_OVERFLOW_FLAG
Note: The following floating-point exceptions are signalling: IEEE_OVERFLOW_FLAG
Note: The following floating-point exceptions are signalling: IEEE_OVERFLOW_FLAG
Note: The following floating-point exceptions are signalling: IEEE_OVERFLOW_FLAG
Note: The following floating-point exceptions are signalling: IEEE_OVERFLOW_FLAG
Note: The following floating-point exceptions are signalling: IEEE_OVERFLOW_FLAG
Note: The following floating-point exceptions are signalling: IEEE_OVERFLOW_FLAG
Note: The following floating-point exceptions are signalling: IEEE_OVERFLOW_FLAG
Note: The following floating-point exceptions are signalling: IEEE_OVERFLOW_FLAG
Note: The following floating-point exceptions are signalling: IEEE_OVERFLOW_FLAG
Note: The following floating-point exceptions are signalling: IEEE_OVERFLOW_FLAG
