   51   51   85    1
  0.1619339E+02  0.6071501E-09  0.6071501E-09  0.2586333E-08  0.5000000E-15
   1.0000000000000000E-004
  CAR 
 Name                                    
    195     41    126

  0.3742002E-15  0.3742002E-15  0.1262379E-14  0.1234568E-01
    1      -12.681983   1.000000
    2      -11.995232   1.000000
    3      -11.244577   1.000000
    4      -10.065388   1.000000
    5       -9.581545   1.000000
    6       -9.486811   1.000000
    7       -9.382438   1.000000
    8       -9.068207   1.000000
    9       -8.986854   1.000000
   10       -8.943399   1.000000
   11       -8.801803   1.000000
   12       -8.767887   1.000000
   13       -8.756195   1.000000
   14       -8.667506   1.000000
   15       -8.664101   1.000000
   16       -8.654686   1.000000
   17       -8.103702   1.000000
   18       -8.085838   1.000000
   19       -8.022814   1.000000
   20       -7.790499   1.000000
   21       -7.400324   1.000000
   22       -7.265498   1.000000
   23       -7.210979   1.000000
   24       -6.799234   1.000000
   25       -6.751590   1.000000
   26       -6.726680   1.000000
   27       -6.027203   1.000000
   28       -5.678820   1.000000
   29       -5.622176   1.000000
   30       -5.575547   1.000000
   31       -4.650729   1.000000
   32       -4.577552   1.000000
   33       -4.522472   1.000000
   34       -4.402138   1.000000
   35       -3.921480   1.000000
   36       -3.879952   1.000000
   37       -3.861834   1.000000
   38       -3.823173   1.000000
   39       -3.788785   1.000000
   40       -3.718366   1.000000
   41       -3.654839   1.000000
   42       -3.642006   1.000000
   43       -3.338840   1.000000
   44       -3.199625   1.000000
   45       -3.154497   1.000000
   46       -3.136543   1.000000
   47       -3.099638   1.000000
   48       -3.080435   1.000000
   49       -3.025215   1.000000
   50       -3.002127   1.000000
   51       -2.962367   1.000000
   52       -2.818698   1.000000
   53       -2.679497   1.000000
   54       -2.651093   1.000000
   55       -2.577828   1.000000
   56       -2.556375   1.000000
   57       -2.545940   1.000000
   58       -2.500662   1.000000
   59       -2.461961   1.000000
   60       -2.387868   1.000000
   61       -2.254919   1.000000
   62       -2.237344   1.000000
   63       -2.236631   1.000000
   64       -2.201409   1.000000
   65       -2.146310   1.000000
   66       -2.121943   1.000000
   67       -1.846433   1.000000
   68       -1.829485   1.000000
   69       -1.638366   1.000000
   70       -1.357798   1.000000
   71       -1.218896   1.000000
   72       -1.185674   1.000000
   73       -1.138259   1.000000
   74       -1.019518   1.000000
   75       -0.424565   1.000000
   76       -0.255019   1.000000
   77       -0.225360   1.000000
   78       -0.017130   1.000000
   79       -0.002495   1.000000
   80        0.161564   1.000000
   81        0.401387   1.000000
   82        0.419297   1.000000
   83        0.467441   1.000000
   84        0.488452   1.000000
   85        0.626554   1.000000
   86        0.646466   1.000000
   87        1.007308   1.000000
   88        1.087540   1.000000
   89        1.152726   1.000000
   90        1.347953   1.000198
   91        1.387464   1.000538
   92        1.532670   1.009700
   93        1.566279   1.015590
   94        1.743850   1.008281
   95        1.797154   0.927131
   96        1.844783   0.795967
   97        1.957895   0.344334
   98        2.219780  -0.027786
   99        2.270305  -0.016441
  100        2.369854  -0.003320
  101        2.452454  -0.000549
  102        2.476757  -0.000300
  103        2.531904  -0.000067
  104        2.575814  -0.000018
  105        2.716537  -0.000000
  106        2.744630  -0.000000
  107        2.800400  -0.000000
  108        2.820512  -0.000000
  109        2.872380  -0.000000
  110        2.947351  -0.000000
  111        2.970343  -0.000000
  112        3.056696  -0.000000
  113        3.075687  -0.000000
  114        3.102618  -0.000000
  115        3.122176  -0.000000
  116        3.137981  -0.000000
  117        3.144811  -0.000000
  118        3.239754  -0.000000
  119        3.249238  -0.000000
  120        3.305825  -0.000000
  121        3.366350  -0.000000
  122        3.386632  -0.000000
  123        3.437256  -0.000000
  124        3.519050  -0.000000
  125        3.538455  -0.000000
  126        3.670285  -0.000000

  0.1111111E+00  0.3762813E-15  0.1262379E-14  0.2469136E-01
    1      -12.624069   1.000000
    2      -11.944129   1.000000
    3      -11.208228   1.000000
    4      -10.032837   1.000000
    5       -9.662203   1.000000
    6       -9.497279   1.000000
    7       -9.479905   1.000000
    8       -9.400394   1.000000
    9       -9.282776   1.000000
   10       -9.123953   1.000000
   11       -9.041083   1.000000
   12       -9.034727   1.000000
   13       -8.985173   1.000000
   14       -8.356669   1.000000
   15       -8.317217   1.000000
   16       -8.146297   1.000000
   17       -7.961075   1.000000
   18       -7.929545   1.000000
   19       -7.836442   1.000000
   20       -7.599642   1.000000
   21       -7.323157   1.000000
   22       -7.256171   1.000000
   23       -7.102346   1.000000
   24       -6.832214   1.000000
   25       -6.776576   1.000000
   26       -6.645794   1.000000
   27       -5.992174   1.000000
   28       -5.583330   1.000000
   29       -5.552808   1.000000
   30       -5.359521   1.000000
   31       -4.643786   1.000000
   32       -4.563121   1.000000
   33       -4.547401   1.000000
   34       -4.376775   1.000000
   35       -3.981145   1.000000
   36       -3.966515   1.000000
   37       -3.906529   1.000000
   38       -3.866576   1.000000
   39       -3.763320   1.000000
   40       -3.707462   1.000000
   41       -3.673199   1.000000
   42       -3.656723   1.000000
   43       -3.585760   1.000000
   44       -3.545185   1.000000
   45       -3.313801   1.000000
   46       -3.173336   1.000000
   47       -3.108132   1.000000
   48       -3.073508   1.000000
   49       -3.009552   1.000000
   50       -2.925424   1.000000
   51       -2.878589   1.000000
   52       -2.783845   1.000000
   53       -2.689773   1.000000
   54       -2.672294   1.000000
   55       -2.624671   1.000000
   56       -2.574274   1.000000
   57       -2.515227   1.000000
   58       -2.466898   1.000000
   59       -2.448823   1.000000
   60       -2.330510   1.000000
   61       -2.296372   1.000000
   62       -2.259415   1.000000
   63       -2.244770   1.000000
   64       -2.157320   1.000000
   65       -2.065454   1.000000
   66       -2.010261   1.000000
   67       -1.902666   1.000000
   68       -1.848991   1.000000
   69       -1.600748   1.000000
   70       -1.563971   1.000000
   71       -1.435825   1.000000
   72       -1.259013   1.000000
   73       -1.192574   1.000000
   74       -1.019264   1.000000
   75       -0.541834   1.000000
   76       -0.418746   1.000000
   77       -0.314448   1.000000
   78       -0.051755   1.000000
   79        0.027291   1.000000
   80        0.131300   1.000000
   81        0.171163   1.000000
   82        0.370861   1.000000
   83        0.430588   1.000000
   84        0.481040   1.000000
   85        0.535785   1.000000
   86        0.714431   1.000000
   87        1.014954   1.000000
   88        1.086442   1.000000
   89        1.246388   1.000010
   90        1.405154   1.000818
   91        1.457773   1.002562
   92        1.561290   1.014606
   93        1.591850   1.021106
   94        1.626234   1.028934
   95        1.782253   0.956571
   96        1.848938   0.781992
   97        1.962413   0.326444
   98        2.207556  -0.030391
   99        2.298058  -0.011273
  100        2.364795  -0.003658
  101        2.462309  -0.000432
  102        2.477341  -0.000296
  103        2.524517  -0.000083
  104        2.564671  -0.000026
  105        2.641426  -0.000002
  106        2.699016  -0.000000
  107        2.744071  -0.000000
  108        2.810524  -0.000000
  109        2.837648  -0.000000
  110        2.878032  -0.000000
  111        2.892857  -0.000000
  112        2.971077  -0.000000
  113        3.027918  -0.000000
  114        3.071555  -0.000000
  115        3.080035  -0.000000
  116        3.122217  -0.000000
  117        3.151539  -0.000000
  118        3.259164  -0.000000
  119        3.271407  -0.000000
  120        3.297107  -0.000000
  121        3.317711  -0.000000
  122        3.397528  -0.000000
  123        3.462120  -0.000000
  124        3.532225  -0.000000
  125        3.563473  -0.000000
  126        3.712023  -0.000000

  0.2222222E+00  0.3499357E-15  0.1262379E-14  0.2469136E-01
    1      -12.452184   1.000000
    2      -11.793047   1.000000
    3      -11.101640   1.000000
    4      -10.163206   1.000000
    5       -9.939460   1.000000
    6       -9.867864   1.000000
    7       -9.768562   1.000000
    8       -9.520888   1.000000
    9       -9.512386   1.000000
   10       -9.298918   1.000000
   11       -9.257538   1.000000
   12       -9.158003   1.000000
   13       -9.142853   1.000000
   14       -8.351483   1.000000
   15       -7.878334   1.000000
   16       -7.867984   1.000000
   17       -7.684802   1.000000
   18       -7.630642   1.000000
   19       -7.319655   1.000000
   20       -7.210489   1.000000
   21       -7.144169   1.000000
   22       -7.076105   1.000000
   23       -6.865342   1.000000
   24       -6.796753   1.000000
   25       -6.531200   1.000000
   26       -6.394902   1.000000
   27       -5.848041   1.000000
   28       -5.443488   1.000000
   29       -5.356669   1.000000
   30       -4.888170   1.000000
   31       -4.687477   1.000000
   32       -4.662898   1.000000
   33       -4.478950   1.000000
   34       -4.351791   1.000000
   35       -4.284005   1.000000
   36       -4.254987   1.000000
   37       -4.221054   1.000000
   38       -4.191247   1.000000
   39       -3.958583   1.000000
   40       -3.852843   1.000000
   41       -3.705982   1.000000
   42       -3.644368   1.000000
   43       -3.605079   1.000000
   44       -3.548723   1.000000
   45       -3.299361   1.000000
   46       -3.240332   1.000000
   47       -3.179335   1.000000
   48       -3.159195   1.000000
   49       -3.063166   1.000000
   50       -2.999957   1.000000
   51       -2.949909   1.000000
   52       -2.828025   1.000000
   53       -2.774578   1.000000
   54       -2.686299   1.000000
   55       -2.648105   1.000000
   56       -2.596829   1.000000
   57       -2.519492   1.000000
   58       -2.472073   1.000000
   59       -2.435735   1.000000
   60       -2.404954   1.000000
   61       -2.367630   1.000000
   62       -2.326107   1.000000
   63       -2.282896   1.000000
   64       -2.203553   1.000000
   65       -2.155676   1.000000
   66       -2.023980   1.000000
   67       -1.968605   1.000000
   68       -1.883474   1.000000
   69       -1.750518   1.000000
   70       -1.615721   1.000000
   71       -1.386350   1.000000
   72       -1.218353   1.000000
   73       -1.150550   1.000000
   74       -1.025768   1.000000
   75       -0.866468   1.000000
   76       -0.694167   1.000000
   77       -0.446532   1.000000
   78       -0.351654   1.000000
   79       -0.220598   1.000000
   80        0.146015   1.000000
   81        0.283243   1.000000
   82        0.293044   1.000000
   83        0.347911   1.000000
   84        0.359571   1.000000
   85        0.474625   1.000000
   86        0.643793   1.000000
   87        0.744618   1.000000
   88        0.946715   1.000000
   89        1.097860   1.000000
   90        1.197077   1.000002
   91        1.435002   1.001595
   92        1.570859   1.016523
   93        1.620898   1.027766
   94        1.713865   1.028188
   95        1.874302   0.689371
   96        2.001996   0.184489
   97        2.106265  -0.016164
   98        2.140897  -0.032758
   99        2.213164  -0.029227
  100        2.249168  -0.021049
  101        2.327608  -0.007102
  102        2.370467  -0.003281
  103        2.409675  -0.001466
  104        2.496305  -0.000180
  105        2.546134  -0.000045
  106        2.599118  -0.000009
  107        2.644506  -0.000002
  108        2.724487  -0.000000
  109        2.764876  -0.000000
  110        2.822578  -0.000000
  111        2.867938  -0.000000
  112        2.909083  -0.000000
  113        2.979513  -0.000000
  114        2.994605  -0.000000
  115        3.072217  -0.000000
  116        3.097557  -0.000000
  117        3.144430  -0.000000
  118        3.183542  -0.000000
  119        3.208730  -0.000000
  120        3.280817  -0.000000
  121        3.365522  -0.000000
  122        3.395631  -0.000000
  123        3.506622  -0.000000
  124        3.535487  -0.000000
  125        3.598243  -0.000000
  126        3.660562  -0.000000

  0.3333333E+00  0.3916643E-15  0.1262379E-14  0.2469136E-01
    1      -12.171720   1.000000
    2      -11.548769   1.000000
    3      -10.933193   1.000000
    4      -10.766005   1.000000
    5      -10.346400   1.000000
    6      -10.118931   1.000000
    7       -9.793990   1.000000
    8       -9.595255   1.000000
    9       -9.579837   1.000000
   10       -9.381161   1.000000
   11       -9.375481   1.000000
   12       -9.254310   1.000000
   13       -9.244781   1.000000
   14       -8.615414   1.000000
   15       -7.703197   1.000000
   16       -7.494830   1.000000
   17       -7.348862   1.000000
   18       -7.293671   1.000000
   19       -7.066557   1.000000
   20       -7.022271   1.000000
   21       -6.950666   1.000000
   22       -6.789641   1.000000
   23       -6.359798   1.000000
   24       -6.213616   1.000000
   25       -6.095055   1.000000
   26       -5.874468   1.000000
   27       -5.624205   1.000000
   28       -5.263892   1.000000
   29       -5.121009   1.000000
   30       -4.977321   1.000000
   31       -4.921293   1.000000
   32       -4.823487   1.000000
   33       -4.759853   1.000000
   34       -4.709577   1.000000
   35       -4.656778   1.000000
   36       -4.536014   1.000000
   37       -4.294639   1.000000
   38       -4.114081   1.000000
   39       -4.001237   1.000000
   40       -3.926466   1.000000
   41       -3.888925   1.000000
   42       -3.614118   1.000000
   43       -3.517142   1.000000
   44       -3.483242   1.000000
   45       -3.409434   1.000000
   46       -3.394178   1.000000
   47       -3.377216   1.000000
   48       -3.270292   1.000000
   49       -3.189410   1.000000
   50       -3.107966   1.000000
   51       -3.047292   1.000000
   52       -2.969054   1.000000
   53       -2.912603   1.000000
   54       -2.806528   1.000000
   55       -2.760285   1.000000
   56       -2.697009   1.000000
   57       -2.641332   1.000000
   58       -2.582270   1.000000
   59       -2.529453   1.000000
   60       -2.441724   1.000000
   61       -2.398783   1.000000
   62       -2.354392   1.000000
   63       -2.317350   1.000000
   64       -2.218812   1.000000
   65       -2.144010   1.000000
   66       -2.071939   1.000000
   67       -2.044637   1.000000
   68       -1.883877   1.000000
   69       -1.609245   1.000000
   70       -1.559518   1.000000
   71       -1.445923   1.000000
   72       -1.262202   1.000000
   73       -1.082059   1.000000
   74       -0.893125   1.000000
   75       -0.813137   1.000000
   76       -0.707379   1.000000
   77       -0.636676   1.000000
   78       -0.559435   1.000000
   79       -0.483732   1.000000
   80        0.047472   1.000000
   81        0.090719   1.000000
   82        0.156542   1.000000
   83        0.219942   1.000000
   84        0.464520   1.000000
   85        0.478496   1.000000
   86        0.531652   1.000000
   87        0.683569   1.000000
   88        0.824905   1.000000
   89        0.923532   1.000000
   90        1.097562   1.000000
   91        1.212236   1.000003
   92        1.423844   1.001251
   93        1.468323   1.003157
   94        1.619632   1.027483
   95        1.720036   1.025307
   96        1.762766   0.986938
   97        1.867407   0.715684
   98        1.974816   0.278869
   99        2.007556   0.167136
  100        2.115690  -0.022517
  101        2.188951  -0.033637
  102        2.232583  -0.024871
  103        2.256583  -0.019383
  104        2.353015  -0.004557
  105        2.471072  -0.000347
  106        2.541191  -0.000052
  107        2.597844  -0.000009
  108        2.649344  -0.000002
  109        2.708056  -0.000000
  110        2.748528  -0.000000
  111        2.831949  -0.000000
  112        2.897422  -0.000000
  113        2.922401  -0.000000
  114        2.976798  -0.000000
  115        3.047127  -0.000000
  116        3.123914  -0.000000
  117        3.235687  -0.000000
  118        3.257199  -0.000000
  119        3.331739  -0.000000
  120        3.410423  -0.000000
  121        3.471302  -0.000000
  122        3.484705  -0.000000
  123        3.539872  -0.000000
  124        3.616642  -0.000000
  125        3.658187  -0.000000
  126        3.748096  -0.000000

  0.4444444E+00  0.3830161E-15  0.1262379E-14  0.2469136E-01
    1      -11.791274   1.000000
    2      -11.330759   1.000000
    3      -11.207388   1.000000
    4      -10.812732   1.000000
    5      -10.696113   1.000000
    6      -10.428175   1.000000
    7       -9.663338   1.000000
    8       -9.648167   1.000000
    9       -9.631679   1.000000
   10       -9.426211   1.000000
   11       -9.399129   1.000000
   12       -9.312453   1.000000
   13       -9.282375   1.000000
   14       -8.836561   1.000000
   15       -7.716800   1.000000
   16       -7.358335   1.000000
   17       -7.071087   1.000000
   18       -7.052196   1.000000
   19       -6.799150   1.000000
   20       -6.747040   1.000000
   21       -6.710082   1.000000
   22       -6.695000   1.000000
   23       -5.740003   1.000000
   24       -5.601728   1.000000
   25       -5.539623   1.000000
   26       -5.478279   1.000000
   27       -5.466890   1.000000
   28       -5.422666   1.000000
   29       -5.258800   1.000000
   30       -5.203402   1.000000
   31       -5.131825   1.000000
   32       -4.978642   1.000000
   33       -4.899679   1.000000
   34       -4.873582   1.000000
   35       -4.802744   1.000000
   36       -4.680627   1.000000
   37       -4.642355   1.000000
   38       -4.394093   1.000000
   39       -4.220075   1.000000
   40       -3.978052   1.000000
   41       -3.877038   1.000000
   42       -3.741354   1.000000
   43       -3.671273   1.000000
   44       -3.625018   1.000000
   45       -3.447250   1.000000
   46       -3.374739   1.000000
   47       -3.324739   1.000000
   48       -3.236627   1.000000
   49       -3.199447   1.000000
   50       -3.111339   1.000000
   51       -3.047357   1.000000
   52       -3.012325   1.000000
   53       -2.947813   1.000000
   54       -2.872185   1.000000
   55       -2.819885   1.000000
   56       -2.775779   1.000000
   57       -2.749476   1.000000
   58       -2.679450   1.000000
   59       -2.575682   1.000000
   60       -2.525652   1.000000
   61       -2.495350   1.000000
   62       -2.398750   1.000000
   63       -2.364695   1.000000
   64       -2.216408   1.000000
   65       -2.139296   1.000000
   66       -2.032662   1.000000
   67       -1.990188   1.000000
   68       -1.893997   1.000000
   69       -1.646046   1.000000
   70       -1.422084   1.000000
   71       -1.336440   1.000000
   72       -1.242065   1.000000
   73       -1.151866   1.000000
   74       -1.062602   1.000000
   75       -0.797423   1.000000
   76       -0.780478   1.000000
   77       -0.684984   1.000000
   78       -0.328580   1.000000
   79       -0.310248   1.000000
   80       -0.129631   1.000000
   81       -0.103128   1.000000
   82       -0.014900   1.000000
   83        0.076485   1.000000
   84        0.374917   1.000000
   85        0.522527   1.000000
   86        0.590455   1.000000
   87        0.748875   1.000000
   88        0.915483   1.000000
   89        1.007695   1.000000
   90        1.056068   1.000000
   91        1.090014   1.000000
   92        1.139054   1.000000
   93        1.341223   1.000165
   94        1.446308   1.002026
   95        1.496928   1.005374
   96        1.578432   1.018124
   97        1.657117   1.034320
   98        1.764097   0.985146
   99        1.820862   0.868784
  100        1.853788   0.765222
  101        2.006814   0.169410
  102        2.046236   0.067290
  103        2.170641  -0.035353
  104        2.210592  -0.029769
  105        2.327321  -0.007136
  106        2.385835  -0.002419
  107        2.528287  -0.000075
  108        2.556148  -0.000033
  109        2.625861  -0.000004
  110        2.686682  -0.000000
  111        2.817981  -0.000000
  112        2.835599  -0.000000
  113        2.935839  -0.000000
  114        3.092435  -0.000000
  115        3.148643  -0.000000
  116        3.259546  -0.000000
  117        3.316313  -0.000000
  118        3.358367  -0.000000
  119        3.479751  -0.000000
  120        3.519824  -0.000000
  121        3.594248  -0.000000
  122        3.622000  -0.000000
  123        3.673212  -0.000000
  124        3.732911  -0.000000
  125        3.759396  -0.000000
  126        3.812676  -0.000000

  0.3742002E-15  0.1111111E+00  0.1262379E-14  0.2469136E-01
    1      -12.624069   1.000000
    2      -11.944129   1.000000
    3      -11.208228   1.000000
    4      -10.032837   1.000000
    5       -9.662205   1.000000
    6       -9.497279   1.000000
    7       -9.479900   1.000000
    8       -9.400398   1.000000
    9       -9.282779   1.000000
   10       -9.123944   1.000000
   11       -9.041081   1.000000
   12       -9.034725   1.000000
   13       -8.985177   1.000000
   14       -8.356677   1.000000
   15       -8.317213   1.000000
   16       -8.146289   1.000000
   17       -7.961086   1.000000
   18       -7.929557   1.000000
   19       -7.836441   1.000000
   20       -7.599633   1.000000
   21       -7.323164   1.000000
   22       -7.256170   1.000000
   23       -7.102344   1.000000
   24       -6.832194   1.000000
   25       -6.776589   1.000000
   26       -6.645794   1.000000
   27       -5.992168   1.000000
   28       -5.583347   1.000000
   29       -5.552837   1.000000
   30       -5.359486   1.000000
   31       -4.643788   1.000000
   32       -4.563120   1.000000
   33       -4.547400   1.000000
   34       -4.376776   1.000000
   35       -3.981136   1.000000
   36       -3.966517   1.000000
   37       -3.906527   1.000000
   38       -3.866577   1.000000
   39       -3.763319   1.000000
   40       -3.707459   1.000000
   41       -3.673202   1.000000
   42       -3.656734   1.000000
   43       -3.585763   1.000000
   44       -3.545172   1.000000
   45       -3.313793   1.000000
   46       -3.173327   1.000000
   47       -3.108135   1.000000
   48       -3.073521   1.000000
   49       -3.009552   1.000000
   50       -2.925426   1.000000
   51       -2.878588   1.000000
   52       -2.783857   1.000000
   53       -2.689758   1.000000
   54       -2.672296   1.000000
   55       -2.624676   1.000000
   56       -2.574268   1.000000
   57       -2.515233   1.000000
   58       -2.466883   1.000000
   59       -2.448830   1.000000
   60       -2.330505   1.000000
   61       -2.296374   1.000000
   62       -2.259412   1.000000
   63       -2.244770   1.000000
   64       -2.157312   1.000000
   65       -2.065457   1.000000
   66       -2.010262   1.000000
   67       -1.902663   1.000000
   68       -1.849008   1.000000
   69       -1.600741   1.000000
   70       -1.563971   1.000000
   71       -1.435833   1.000000
   72       -1.259011   1.000000
   73       -1.192576   1.000000
   74       -1.019272   1.000000
   75       -0.541829   1.000000
   76       -0.418744   1.000000
   77       -0.314450   1.000000
   78       -0.051755   1.000000
   79        0.027280   1.000000
   80        0.131295   1.000000
   81        0.171164   1.000000
   82        0.370875   1.000000
   83        0.430591   1.000000
   84        0.481040   1.000000
   85        0.535788   1.000000
   86        0.714422   1.000000
   87        1.014950   1.000000
   88        1.086446   1.000000
   89        1.246396   1.000010
   90        1.405155   1.000819
   91        1.457779   1.002562
   92        1.561290   1.014606
   93        1.591845   1.021105
   94        1.626252   1.028938
   95        1.782217   0.956634
   96        1.848955   0.781936
   97        1.962410   0.326455
   98        2.207550  -0.030392
   99        2.298057  -0.011274
  100        2.364812  -0.003657
  101        2.462286  -0.000432
  102        2.477341  -0.000296
  103        2.524534  -0.000083
  104        2.564668  -0.000026
  105        2.641440  -0.000002
  106        2.699031  -0.000000
  107        2.744056  -0.000000
  108        2.810519  -0.000000
  109        2.837683  -0.000000
  110        2.878011  -0.000000
  111        2.892835  -0.000000
  112        2.971071  -0.000000
  113        3.027907  -0.000000
  114        3.071565  -0.000000
  115        3.080030  -0.000000
  116        3.122230  -0.000000
  117        3.151543  -0.000000
  118        3.259164  -0.000000
  119        3.271402  -0.000000
  120        3.297115  -0.000000
  121        3.317709  -0.000000
  122        3.397524  -0.000000
  123        3.462130  -0.000000
  124        3.532223  -0.000000
  125        3.563464  -0.000000
  126        3.712802  -0.000000

  0.1111111E+00  0.1111111E+00  0.1262379E-14  0.2469136E-01
    1      -12.509187   1.000000
    2      -11.843010   1.000000
    3      -11.136319   1.000000
    4       -9.970523   1.000000
    5       -9.831788   1.000000
    6       -9.822358   1.000000
    7       -9.665608   1.000000
    8       -9.598291   1.000000
    9       -9.538785   1.000000
   10       -9.484920   1.000000
   11       -9.334477   1.000000
   12       -8.877054   1.000000
   13       -8.590831   1.000000
   14       -8.571641   1.000000
   15       -8.272645   1.000000
   16       -7.930512   1.000000
   17       -7.752654   1.000000
   18       -7.508528   1.000000
   19       -7.492050   1.000000
   20       -7.349468   1.000000
   21       -7.225776   1.000000
   22       -7.122950   1.000000
   23       -6.855188   1.000000
   24       -6.739211   1.000000
   25       -6.685580   1.000000
   26       -6.493092   1.000000
   27       -6.117442   1.000000
   28       -5.510696   1.000000
   29       -5.154501   1.000000
   30       -5.105031   1.000000
   31       -4.707043   1.000000
   32       -4.613373   1.000000
   33       -4.476522   1.000000
   34       -4.342419   1.000000
   35       -4.303441   1.000000
   36       -4.275394   1.000000
   37       -3.953662   1.000000
   38       -3.913562   1.000000
   39       -3.839325   1.000000
   40       -3.795435   1.000000
   41       -3.706668   1.000000
   42       -3.657301   1.000000
   43       -3.604719   1.000000
   44       -3.526201   1.000000
   45       -3.482122   1.000000
   46       -3.290282   1.000000
   47       -3.196085   1.000000
   48       -3.114273   1.000000
   49       -3.069515   1.000000
   50       -2.990607   1.000000
   51       -2.949576   1.000000
   52       -2.827374   1.000000
   53       -2.747794   1.000000
   54       -2.659760   1.000000
   55       -2.622727   1.000000
   56       -2.577348   1.000000
   57       -2.535227   1.000000
   58       -2.422343   1.000000
   59       -2.402309   1.000000
   60       -2.372280   1.000000
   61       -2.284104   1.000000
   62       -2.270904   1.000000
   63       -2.213770   1.000000
   64       -2.167673   1.000000
   65       -2.133178   1.000000
   66       -2.063092   1.000000
   67       -1.947704   1.000000
   68       -1.814929   1.000000
   69       -1.803962   1.000000
   70       -1.716341   1.000000
   71       -1.411771   1.000000
   72       -1.227439   1.000000
   73       -1.166127   1.000000
   74       -1.037293   1.000000
   75       -0.753742   1.000000
   76       -0.665769   1.000000
   77       -0.460860   1.000000
   78       -0.120745   1.000000
   79       -0.118082   1.000000
   80        0.140883   1.000000
   81        0.145642   1.000000
   82        0.299180   1.000000
   83        0.356776   1.000000
   84        0.388058   1.000000
   85        0.444140   1.000000
   86        0.741263   1.000000
   87        0.855685   1.000000
   88        0.948926   1.000000
   89        1.189345   1.000002
   90        1.383662   1.000490
   91        1.445425   1.001989
   92        1.503784   1.006058
   93        1.587020   1.020015
   94        1.710548   1.029507
   95        1.893305   0.613427
   96        2.002126   0.184074
   97        2.048461   0.062687
   98        2.113337  -0.021073
   99        2.187854  -0.033789
  100        2.243914  -0.022252
  101        2.349300  -0.004875
  102        2.378688  -0.002792
  103        2.543937  -0.000048
  104        2.583120  -0.000015
  105        2.651285  -0.000002
  106        2.664981  -0.000001
  107        2.695632  -0.000000
  108        2.731793  -0.000000
  109        2.764896  -0.000000
  110        2.844161  -0.000000
  111        2.867307  -0.000000
  112        2.935737  -0.000000
  113        2.980558  -0.000000
  114        3.024252  -0.000000
  115        3.049451  -0.000000
  116        3.083635  -0.000000
  117        3.146164  -0.000000
  118        3.191484  -0.000000
  119        3.261708  -0.000000
  120        3.281193  -0.000000
  121        3.291686  -0.000000
  122        3.358954  -0.000000
  123        3.452314  -0.000000
  124        3.566228  -0.000000
  125        3.590518  -0.000000
  126        3.662902  -0.000000

  0.2222222E+00  0.1111111E+00  0.1262379E-14  0.2469136E-01
    1      -12.282991   1.000000
    2      -11.645146   1.000000
    3      -10.997675   1.000000
    4      -10.433390   1.000000
    5      -10.074637   1.000000
    6      -10.021403   1.000000