 running on   54 total cores
 distrk:  each k-point on   54 cores,    1 groups
 distr:  one band on    9 cores,    6 groups
 using from now: INCAR     
 vasp.5.4.4.18Apr17-6-g9f103f2a35 (build Dec  7 2020 12:43:57) complex           
 POSCAR found type information on POSCAR  Mo V  B  H 
 POSCAR found :  4 types and      51 ions
 scaLAPACK will be used
 LDA part: xc-table for Pade appr. of Perdew
 POSCAR, INCAR and KPOINTS ok, starting setup
 resort distribution
 resort distribution
 resort distribution
 resort distribution
 resort distribution
 resort distribution
 resort distribution
 resort distribution
 resort distribution
 resort distribution
 resort distribution
 resort distribution
 resort distribution
 resort distribution
 resort distribution
 resort distribution
 resort distribution
 resort distribution
 resort distribution
 resort distribution
 resort distribution
 resort distribution
 resort distribution
 resort distribution
 resort distribution
 resort distribution
 resort distribution
 resort distribution
 resort distribution
 resort distribution
 resort distribution
 resort distribution
 resort distribution
 resort distribution
 resort distribution
 resort distribution
 resort distribution
 resort distribution
 resort distribution
 resort distribution
 resort distribution
 resort distribution
 resort distribution
 resort distribution
 resort distribution
 resort distribution
 resort distribution
 resort distribution
 resort distribution
 resort distribution
 resort distribution
 resort distribution
 resort distribution
 resort distribution
 FFT: planning ...
 WAVECAR not read
 augmentation electrons   195.01886917201094     
 soft         electrons   0.0000000000000000     
 augmentation electrons   195.01886917201094     
 soft         electrons   0.0000000000000000     
 augmentation electrons   195.01886917201094     
 soft         electrons   0.0000000000000000     
 augmentation electrons   195.01886917201094     
 soft         electrons   0.0000000000000000     
 augmentation electrons   195.01886917201094     
 soft         electrons   0.0000000000000000     
 augmentation electrons   195.01886917201094     
 soft         electrons   0.0000000000000000     
 augmentation electrons   195.01886917201094     
 soft         electrons   0.0000000000000000     
 augmentation electrons   195.01886917201094     
 soft         electrons   0.0000000000000000     
 augmentation electrons   195.01886917201094     
 soft         electrons   0.0000000000000000     
 augmentation electrons   195.01886917201094     
 soft         electrons   0.0000000000000000     
 augmentation electrons   195.01886917201094     
 soft         electrons   0.0000000000000000     
 augmentation electrons   195.01886917201094     
 soft         electrons   0.0000000000000000     
 augmentation electrons   195.01886917201094     
 soft         electrons   0.0000000000000000     
 augmentation electrons   195.01886917201094     
 soft         electrons   0.0000000000000000     
 augmentation electrons   195.01886917201094     
 soft         electrons   0.0000000000000000     
 augmentation electrons   195.01886917201094     
 soft         electrons   0.0000000000000000     
 augmentation electrons   195.01886917201094     
 soft         electrons   0.0000000000000000     
 augmentation electrons   195.01886917201094     
 soft         electrons   0.0000000000000000     
 augmentation electrons   195.01886917201094     
 soft         electrons   0.0000000000000000     
 augmentation electrons   195.01886917201094     
 soft         electrons   0.0000000000000000     
 augmentation electrons   195.01886917201094     
 soft         electrons   0.0000000000000000     
 augmentation electrons   195.01886917201094     
 soft         electrons   0.0000000000000000     
 augmentation electrons   195.01886917201094     
 soft         electrons   0.0000000000000000     
 augmentation electrons   195.01886917201094     
 soft         electrons   0.0000000000000000     
 augmentation electrons   195.01886917201094     
 soft         electrons   0.0000000000000000     
 augmentation electrons   195.01886917201094     
 soft         electrons   0.0000000000000000     
 augmentation electrons   195.01886917201094     
 soft         electrons   0.0000000000000000     
 augmentation electrons   195.01886917201094     
 soft         electrons   0.0000000000000000     
 augmentation electrons   195.01886917201094     
 soft         electrons   0.0000000000000000     
 augmentation electrons   195.01886917201094     
 soft         electrons   0.0000000000000000     
 augmentation electrons   195.01886917201094     
 soft         electrons   0.0000000000000000     
 augmentation electrons   195.01886917201094     
 soft         electrons   0.0000000000000000     
 augmentation electrons   195.01886917201094     
 soft         electrons   0.0000000000000000     
 augmentation electrons   195.01886917201094     
 soft         electrons   0.0000000000000000     
 augmentation electrons   195.01886917201094     
 soft         electrons   0.0000000000000000     
 augmentation electrons   195.01886917201094     
 soft         electrons   0.0000000000000000     
 augmentation electrons   195.01886917201094     
 soft         electrons   0.0000000000000000     
 augmentation electrons   195.01886917201094     
 soft         electrons   0.0000000000000000     
 augmentation electrons   195.01886917201094     
 soft         electrons   0.0000000000000000     
 augmentation electrons   195.01886917201094     
 soft         electrons   0.0000000000000000     
 augmentation electrons   195.01886917201094     
 soft         electrons   0.0000000000000000     
 augmentation electrons   195.01886917201094     
 soft         electrons   0.0000000000000000     
 augmentation electrons   195.01886917201094     
 soft         electrons   0.0000000000000000     
 augmentation electrons   195.01886917201094     
 soft         electrons   0.0000000000000000     
 augmentation electrons   195.01886917201094     
 soft         electrons   0.0000000000000000     
 augmentation electrons   195.01886917201094     
 soft         electrons   0.0000000000000000     
 augmentation electrons   195.01886917201094     
 soft         electrons   0.0000000000000000     
 augmentation electrons   195.01886917201094     
 soft         electrons   0.0000000000000000     
 augmentation electrons   195.01886917201094     
 soft         electrons   0.0000000000000000     
 augmentation electrons   195.01886917201094     
 soft         electrons   0.0000000000000000     
 augmentation electrons   195.01886917201094     
 soft         electrons   0.0000000000000000     
 augmentation electrons   195.01886917201094     
 soft         electrons   0.0000000000000000     
 augmentation electrons   195.01886917201094     
 soft         electrons   0.0000000000000000     
 augmentation electrons   195.01886917201094     
 soft         electrons   0.0000000000000000     
 total        electrons   195.01886917201094     
 total        electrons   195.01886917201094     
 total        electrons   195.01886917201094     
 total        electrons   195.01886917201094     
 total        electrons   195.01886917201094     
 total        electrons   195.01886917201094     
 total        electrons   195.01886917201094     
 total        electrons   195.01886917201094     
 total        electrons   195.01886917201094     
 total        electrons   195.01886917201094     
 total        electrons   195.01886917201094     
 total        electrons   195.01886917201094     
 total        electrons   195.01886917201094     
 total        electrons   195.01886917201094     
 total        electrons   195.01886917201094     
 total        electrons   195.01886917201094     
 total        electrons   195.01886917201094     
 total        electrons   195.01886917201094     
 total        electrons   195.01886917201094     
 total        electrons   195.01886917201094     
 total        electrons   195.01886917201094     
 total        electrons   195.01886917201094     
 total        electrons   195.01886917201094     
 total        electrons   195.01886917201094     
 total        electrons   195.01886917201094     
 total        electrons   195.01886917201094     
 total        electrons   195.01886917201094     
 total        electrons   195.01886917201094     
 total        electrons   195.01886917201094     
 total        electrons   195.01886917201094     
 total        electrons   195.01886917201094     
 total        electrons   195.01886917201094     
 total        electrons   195.01886917201094     
 total        electrons   195.01886917201094     
 total        electrons   195.01886917201094     
 total        electrons   195.01886917201094     
 total        electrons   195.01886917201094     
 total        electrons   195.01886917201094     
 total        electrons   195.01886917201094     
 total        electrons   195.01886917201094     
 total        electrons   195.01886917201094     
 total        electrons   195.01886917201094     
 total        electrons   195.01886917201094     
 total        electrons   195.01886917201094     
 total        electrons   195.01886917201094     
 total        electrons   195.01886917201094     
 total        electrons   195.01886917201094     
 total        electrons   195.01886917201094     
 total        electrons   195.01886917201094     
 total        electrons   195.01886917201094     
 total        electrons   195.01886917201094     
 total        electrons   195.01886917201094     
 total        electrons   195.01886917201094     
 total        electrons   195.01886917201094     
 augmentation electrons   637.50483029801512     
 soft         electrons   0.0000000000000000     
 augmentation electrons   637.50483029801512     
 soft         electrons   0.0000000000000000     
 augmentation electrons   637.50483029801512     
 soft         electrons   0.0000000000000000     
 augmentation electrons   637.50483029801512     
 soft         electrons   0.0000000000000000     
 augmentation electrons   637.50483029801512     
 soft         electrons   0.0000000000000000     
 augmentation electrons   637.50483029801512     
 soft         electrons   0.0000000000000000     
 augmentation electrons   637.50483029801512     
 soft         electrons   0.0000000000000000     
 augmentation electrons   637.50483029801512     
 soft         electrons   0.0000000000000000     
 augmentation electrons   637.50483029801512     
 soft         electrons   0.0000000000000000     
 augmentation electrons   637.50483029801512     
 soft         electrons   0.0000000000000000     
 augmentation electrons   637.50483029801512     
 soft         electrons   0.0000000000000000     
 augmentation electrons   637.50483029801512     
 soft         electrons   0.0000000000000000     
 augmentation electrons   637.50483029801512     
 soft         electrons   0.0000000000000000     
 augmentation electrons   637.50483029801512     
 soft         electrons   0.0000000000000000     
 augmentation electrons   637.50483029801512     
 soft         electrons   0.0000000000000000     
 augmentation electrons   637.50483029801512     
 soft         electrons   0.0000000000000000     
 augmentation electrons   637.50483029801512     
 soft         electrons   0.0000000000000000     
 augmentation electrons   637.50483029801512     
 soft         electrons   0.0000000000000000     
 augmentation electrons   637.50483029801512     
 soft         electrons   0.0000000000000000     
 augmentation electrons   637.50483029801512     
 soft         electrons   0.0000000000000000     
 augmentation electrons   637.50483029801512     
 soft         electrons   0.0000000000000000     
 augmentation electrons   637.50483029801512     
 soft         electrons   0.0000000000000000     
 augmentation electrons   637.50483029801512     
 soft         electrons   0.0000000000000000     
 augmentation electrons   637.50483029801512     
 soft         electrons   0.0000000000000000     
 augmentation electrons   637.50483029801512     
 soft         electrons   0.0000000000000000     
 augmentation electrons   637.50483029801512     
 soft         electrons   0.0000000000000000     
 augmentation electrons   637.50483029801512     
 soft         electrons   0.0000000000000000     
 augmentation electrons   637.50483029801512     
 soft         electrons   0.0000000000000000     
 augmentation electrons   637.50483029801512     
 soft         electrons   0.0000000000000000     
 augmentation electrons   637.50483029801512     
 soft         electrons   0.0000000000000000     
 augmentation electrons   637.50483029801512     
 soft         electrons   0.0000000000000000     
 augmentation electrons   637.50483029801512     
 soft         electrons   0.0000000000000000     
 augmentation electrons   637.50483029801512     
 soft         electrons   0.0000000000000000     
 augmentation electrons   637.50483029801512     
 soft         electrons   0.0000000000000000     
 augmentation electrons   637.50483029801512     
 soft         electrons   0.0000000000000000     
 augmentation electrons   637.50483029801512     
 soft         electrons   0.0000000000000000     
 augmentation electrons   637.50483029801512     
 soft         electrons   0.0000000000000000     
 augmentation electrons   637.50483029801512     
 soft         electrons   0.0000000000000000     
 augmentation electrons   637.50483029801512     
 soft         electrons   0.0000000000000000     
 augmentation electrons   637.50483029801512     
 soft         electrons   0.0000000000000000     
 augmentation electrons   637.50483029801512     
 soft         electrons   0.0000000000000000     
 augmentation electrons   637.50483029801512     
 soft         electrons   0.0000000000000000     
 augmentation electrons   637.50483029801512     
 soft         electrons   0.0000000000000000     
 augmentation electrons   637.50483029801512     
 soft         electrons   0.0000000000000000     
 augmentation electrons   637.50483029801512     
 soft         electrons   0.0000000000000000     
 augmentation electrons   637.50483029801512     
 augmentation electrons   637.50483029801512     
 soft         electrons   0.0000000000000000     
 augmentation electrons   637.50483029801512     
 soft         electrons   0.0000000000000000     
 augmentation electrons   637.50483029801512     
 soft         electrons   0.0000000000000000     
 augmentation electrons   637.50483029801512     
 soft         electrons   0.0000000000000000     
 augmentation electrons   637.50483029801512     
 soft         electrons   0.0000000000000000     
 augmentation electrons   637.50483029801512     
 soft         electrons   0.0000000000000000     
 augmentation electrons   637.50483029801512     
 soft         electrons   0.0000000000000000     
 augmentation electrons   637.50483029801512     
 soft         electrons   0.0000000000000000     
 soft         electrons   0.0000000000000000     
 total        electrons   637.50483029801512     
 total        electrons   637.50483029801512     
 total        electrons   637.50483029801512     
 total        electrons   637.50483029801512     
 total        electrons   637.50483029801512     
 total        electrons   637.50483029801512     
 total        electrons   637.50483029801512     
 total        electrons   637.50483029801512     
 total        electrons   637.50483029801512     
 total        electrons   637.50483029801512     
 total        electrons   637.50483029801512     
 total        electrons   637.50483029801512     
 total        electrons   637.50483029801512     
 total        electrons   637.50483029801512     
 total        electrons   637.50483029801512     
 total        electrons   637.50483029801512     
 total        electrons   637.50483029801512     
 total        electrons   637.50483029801512     
 total        electrons   637.50483029801512     
 total        electrons   637.50483029801512     
 total        electrons   637.50483029801512     
 total        electrons   637.50483029801512     
 total        electrons   637.50483029801512     
 total        electrons   637.50483029801512     
 total        electrons   637.50483029801512     
 total        electrons   637.50483029801512     
 total        electrons   637.50483029801512     
 total        electrons   637.50483029801512     
 total        electrons   637.50483029801512     
 total        electrons   637.50483029801512     
 total        electrons   637.50483029801512     
 total        electrons   637.50483029801512     
 total        electrons   637.50483029801512     
 total        electrons   637.50483029801512     
 total        electrons   637.50483029801512     
 total        electrons   637.50483029801512     
 total        electrons   637.50483029801512     
 total        electrons   637.50483029801512     
 total        electrons   637.50483029801512     
 total        electrons   637.50483029801512     
 total        electrons   637.50483029801512     
 total        electrons   637.50483029801512     
 total        electrons   637.50483029801512     
 total        electrons   637.50483029801512     
 total        electrons   637.50483029801512     
 total        electrons   637.50483029801512     
 total        electrons   637.50483029801512     
 total        electrons   637.50483029801512     
 total        electrons   637.50483029801512     
 total        electrons   637.50483029801512     
 total        electrons   637.50483029801512     
 total        electrons   637.50483029801512     
 total        electrons   637.50483029801512     
 total        electrons   637.50483029801512     
 entering main loop
       N       E                     dE             d eps       ncg     rms          rms(c)
DAV:   1     0.174561316910E+04    0.17456E+04   -0.72312E+04 10332   0.133E+03
DAV:   2    -0.138084067118E+03   -0.18837E+04   -0.17204E+04 11214   0.339E+02
DAV:   3    -0.453471438840E+03   -0.31539E+03   -0.30006E+03 15144   0.152E+02
DAV:   4    -0.478371342167E+03   -0.24900E+02   -0.23818E+02 16692   0.450E+01
DAV:   5    -0.479754312484E+03   -0.13830E+01   -0.13378E+01 17496   0.919E+00    0.117E+02
RMM:   6    -0.467291986390E+03    0.12462E+02   -0.82447E+02 14563   0.900E+01    0.658E+01
RMM:   7    -0.713417406059E+03   -0.24613E+03   -0.72256E+02 16055   0.103E+02    0.578E+01
RMM:   8    -0.532278363463E+03    0.18114E+03   -0.27575E+02 14774   0.410E+01    0.429E+01
RMM:   9    -0.436100146494E+03    0.96178E+02   -0.65969E+01 13392   0.257E+01    0.312E+01
RMM:  10    -0.410516964073E+03    0.25583E+02   -0.32710E+01 10993   0.234E+01    0.206E+01
RMM:  11    -0.411846736876E+03   -0.13298E+01   -0.25004E+01 14104   0.107E+01    0.181E+01
RMM:  12    -0.408068102598E+03    0.37786E+01   -0.44071E+00 14228   0.415E+00    0.141E+01
RMM:  13    -0.409062568479E+03   -0.99447E+00   -0.10493E+00 13125   0.284E+00    0.142E+01
RMM:  14    -0.408692323573E+03    0.37024E+00   -0.39786E-01 10854   0.256E+00    0.126E+01
RMM:  15    -0.407565413003E+03    0.11269E+01   -0.58041E+00 10355   0.103E+01    0.813E+00
RMM:  16    -0.407351962890E+03    0.21345E+00   -0.31214E+00 13488   0.427E+00    0.443E+00
RMM:  17    -0.407223728009E+03    0.12823E+00   -0.52757E-01 12457   0.214E+00    0.328E+00
RMM:  18    -0.407180599567E+03    0.43128E-01   -0.22364E-01 12728   0.115E+00    0.278E+00
RMM:  19    -0.407168307561E+03    0.12292E-01   -0.18508E-01 12836   0.121E+00    0.253E+00
RMM:  20    -0.407120726543E+03    0.47581E-01   -0.19159E-01 10773   0.167E+00    0.123E+00
RMM:  21    -0.407131548190E+03   -0.10822E-01   -0.87362E-02 12807   0.854E-01    0.133E+00
RMM:  22    -0.407119722890E+03    0.11825E-01   -0.40491E-02 14577   0.237E-01    0.104E+00
RMM:  23    -0.407101863089E+03    0.17860E-01   -0.93188E-03 11607   0.340E-01    0.372E-01
RMM:  24    -0.407100966190E+03    0.89690E-03   -0.77488E-03 14021   0.159E-01    0.235E-01
RMM:  25    -0.407100510890E+03    0.45530E-03   -0.28361E-03 11100   0.175E-01    0.156E-01
RMM:  26    -0.407100664020E+03   -0.15313E-03   -0.15237E-03 13452   0.933E-02    0.108E-01
RMM:  27    -0.407101424067E+03   -0.76005E-03   -0.14706E-03 11138   0.121E-01    0.221E-01
RMM:  28    -0.407100913121E+03    0.51095E-03   -0.39732E-04 10778   0.774E-02    0.797E-02
RMM:  29    -0.407101291425E+03   -0.37830E-03   -0.45939E-04 13240   0.519E-02    0.368E-02
RMM:  30    -0.407101475863E+03   -0.18444E-03   -0.98076E-05 12848   0.215E-02    0.460E-02
RMM:  31    -0.407101772555E+03   -0.29669E-03   -0.61061E-05 12997   0.166E-02    0.244E-02
RMM:  32    -0.407101968655E+03   -0.19610E-03   -0.34580E-05 10750   0.104E-02    0.203E-02
RMM:  33    -0.407102097787E+03   -0.12913E-03   -0.29279E-05  9718   0.208E-02    0.226E-02
RMM:  34    -0.407102191052E+03   -0.93265E-04   -0.13960E-05  9516   0.803E-03    0.136E-02
RMM:  35    -0.407102265249E+03   -0.74197E-04   -0.62372E-06  8122   0.841E-03    0.493E-03
RMM:  36    -0.407102317864E+03   -0.52616E-04   -0.53585E-06  8067   0.409E-03    0.586E-03
RMM:  37    -0.407102338900E+03   -0.21036E-04   -0.24272E-06  7305   0.508E-03    0.369E-03
RMM:  38    -0.407102350036E+03   -0.11136E-04   -0.12767E-06  6619   0.458E-03    0.298E-03
RMM:  39    -0.407102355717E+03   -0.56811E-05   -0.74149E-07  6039   0.290E-03    0.265E-03
RMM:  40    -0.407102359188E+03   -0.34715E-05   -0.55350E-07  5929   0.331E-03    0.245E-03
RMM:  41    -0.407102360017E+03   -0.82867E-06   -0.31489E-07  5738   0.230E-03
   1 F= -.40710236E+03 E0= -.40710943E+03  d E =-.407102E+03
 curvature:   0.00 expect dE= 0.000E+00 dE for cont linesearch  0.000E+00
 trial: gam= 0.00000 g(F)=  0.367E+00 g(S)=  0.000E+00 ort = 0.000E+00 (trialstep = 0.100E+01)
 search vector abs. value=  0.367E+00
 bond charge predicted
       N       E                     dE             d eps       ncg     rms          rms(c)
DAV:   1    -0.407187723544E+03   -0.85364E-01   -0.13787E+01 11136   0.907E+00    0.107E+00
RMM:   2    -0.407227807688E+03   -0.40084E-01   -0.60125E-01 12848   0.211E+00    0.108E+00
RMM:   3    -0.407238300631E+03   -0.10493E-01   -0.89340E-02 11367   0.118E+00    0.133E+00
RMM:   4    -0.407268007876E+03   -0.29707E-01   -0.57847E-02 14004   0.578E-01    0.133E+00
RMM:   5    -0.407221567972E+03    0.46440E-01   -0.29538E-02 12815   0.492E-01    0.606E-01
RMM:   6    -0.407219772327E+03    0.17956E-02   -0.17051E-02 12732   0.382E-01    0.527E-01
RMM:   7    -0.407217597623E+03    0.21747E-02   -0.90627E-03 11702   0.338E-01    0.416E-01
RMM:   8    -0.407215693084E+03    0.19045E-02   -0.34291E-03 11521   0.217E-01    0.149E-01
RMM:   9    -0.407215539880E+03    0.15320E-03   -0.14264E-03 12399   0.116E-01    0.887E-02
RMM:  10    -0.407215601661E+03   -0.61781E-04   -0.81551E-04 13007   0.726E-02    0.936E-02
RMM:  11    -0.407215474718E+03    0.12694E-03   -0.30988E-04 12584   0.474E-02    0.299E-02
RMM:  12    -0.407215478096E+03   -0.33778E-05   -0.15778E-04 12572   0.293E-02    0.236E-02
RMM:  13    -0.407215472438E+03    0.56582E-05   -0.55163E-05 11644   0.180E-02    0.835E-03
RMM:  14    -0.407215473113E+03   -0.67482E-06   -0.24338E-05 10213   0.746E-03    0.492E-03
RMM:  15    -0.407215472979E+03    0.13361E-06   -0.30458E-06  7508   0.537E-03
   2 F= -.40721547E+03 E0= -.40722282E+03  d E =-.113113E+00
 trial-energy change:   -0.113113  1 .order   -0.137044   -0.367095    0.093006
 step:   0.7374(harm=  0.7979)  dis= 0.07038  next Energy=  -407.228117 (dE=-0.126E+00)
 bond charge predicted
       N       E                     dE             d eps       ncg     rms          rms(c)
DAV:   1    -0.407226271215E+03   -0.10798E-01   -0.92803E-01 11304   0.233E+00    0.279E-01
RMM:   2    -0.407228949926E+03   -0.26787E-02   -0.35307E-02 11844   0.559E-01    0.342E-01
RMM:   3    -0.407229932721E+03   -0.98280E-03   -0.58179E-03 12045   0.284E-01    0.339E-01
RMM:   4    -0.407230621095E+03   -0.68837E-03   -0.40315E-03 14055   0.146E-01    0.351E-01
RMM:   5    -0.407228082321E+03    0.25388E-02   -0.22793E-03 12108   0.153E-01    0.144E-01
RMM:   6    -0.407228174532E+03   -0.92211E-04   -0.12707E-03 12683   0.104E-01    0.163E-01
RMM:   7    -0.407227900301E+03    0.27423E-03   -0.60304E-04 11497   0.900E-02    0.848E-02
RMM:   8    -0.407227816220E+03    0.84081E-04   -0.21640E-04 12076   0.476E-02    0.331E-02
RMM:   9    -0.407227810592E+03    0.56280E-05   -0.89051E-05 12412   0.274E-02    0.218E-02
RMM:  10    -0.407227812396E+03   -0.18037E-05   -0.42687E-05 11090   0.169E-02    0.213E-02
RMM:  11    -0.407227806225E+03    0.61704E-05   -0.16394E-05  8927   0.112E-02    0.750E-03
RMM:  12    -0.407227806442E+03   -0.21684E-06   -0.85739E-06  8057   0.839E-03
   3 F= -.40722781E+03 E0= -.40723510E+03  d E =-.125446E+00
 curvature:  -0.36 expect dE=-0.189E-01 dE for cont linesearch -0.266E-05
 trial: gam= 0.13720 g(F)=  0.520E-01 g(S)=  0.000E+00 ort = 0.164E-02 (trialstep = 0.947E+00)
 search vector abs. value=  0.594E-01
 bond charge predicted
       N       E                     dE             d eps       ncg     rms          rms(c)
DAV:   1    -0.407261917287E+03   -0.34111E-01   -0.24530E+00 10368   0.389E+00    0.377E-01
RMM:   2    -0.407264886310E+03   -0.29690E-02   -0.48425E-02 11736   0.795E-01    0.395E-01
RMM:   3    -0.407266998792E+03   -0.21125E-02   -0.14703E-02 13360   0.346E-01    0.461E-01
RMM:   4    -0.407270158292E+03   -0.31595E-02   -0.71682E-03 13198   0.244E-01    0.635E-01
RMM:   5    -0.407263718899E+03    0.64394E-02   -0.34241E-03 11928   0.195E-01    0.174E-01
RMM:   6    -0.407263816601E+03   -0.97703E-04   -0.25655E-03 12349   0.147E-01    0.190E-01
RMM:   7    -0.407263365013E+03    0.45159E-03   -0.79830E-04 12133   0.929E-02    0.646E-02
RMM:   8    -0.407263323363E+03    0.41651E-04   -0.38791E-04 13074   0.489E-02    0.400E-02
RMM:   9    -0.407263318006E+03    0.53565E-05   -0.11614E-04 12032   0.317E-02    0.279E-02
RMM:  10    -0.407263316503E+03    0.15032E-05   -0.65717E-05 11524   0.167E-02    0.182E-02
RMM:  11    -0.407263312962E+03    0.35412E-05   -0.22406E-05  8831   0.138E-02    0.699E-03
RMM:  12    -0.407263314746E+03   -0.17846E-05   -0.15775E-05  9555   0.666E-03    0.579E-03
RMM:  13    -0.407263314628E+03    0.11843E-06   -0.27987E-06  7123   0.587E-03
   4 F= -.40726331E+03 E0= -.40727046E+03  d E =-.355082E-01
 trial-energy change:   -0.035508  1 .order   -0.035437   -0.049487   -0.021386
 step:   1.6686(harm=  1.6686)  dis= 0.04413  next Energy=  -407.271381 (dE=-0.436E-01)
 bond charge predicted
       N       E                     dE             d eps       ncg     rms          rms(c)
DAV:   1    -0.407270595024E+03   -0.72803E-02   -0.14202E+00 10356   0.296E+00    0.283E-01
RMM:   2    -0.407272619550E+03   -0.20245E-02   -0.28081E-02 12127   0.589E-01    0.286E-01
RMM:   3    -0.407274753736E+03   -0.21342E-02   -0.79254E-03 13953   0.226E-01    0.384E-01
RMM:   4    -0.407273762920E+03    0.99082E-03   -0.35254E-03 12115   0.197E-01    0.417E-01
RMM:   5    -0.407271578239E+03    0.21847E-02   -0.21886E-03 11682   0.165E-01    0.118E-01
RMM:   6    -0.407271744469E+03   -0.16623E-03   -0.12429E-03 12280   0.111E-01    0.153E-01
RMM:   7    -0.407271454026E+03    0.29044E-03   -0.45670E-04 11732   0.757E-02    0.544E-02
RMM:   8    -0.407271428345E+03    0.25680E-04   -0.23769E-04 12772   0.408E-02    0.292E-02
RMM:   9    -0.407271424477E+03    0.38680E-05   -0.76336E-05 11971   0.228E-02    0.191E-02
RMM:  10    -0.407271426707E+03   -0.22297E-05   -0.40404E-05 10607   0.148E-02    0.177E-02
RMM:  11    -0.407271423591E+03    0.31163E-05   -0.11955E-05  8396   0.105E-02    0.439E-03
RMM:  12    -0.407271425687E+03   -0.20966E-05   -0.82107E-06  8586   0.480E-03    0.233E-03
RMM:  13    -0.407271426396E+03   -0.70887E-06   -0.88648E-07  6239   0.406E-03
   5 F= -.40727143E+03 E0= -.40727839E+03  d E =-.436200E-01
 curvature:  -0.95 expect dE=-0.224E-01 dE for cont linesearch -0.575E-06
 trial: gam= 0.47269 g(F)=  0.236E-01 g(S)=  0.000E+00 ort =-0.190E-03 (trialstep = 0.109E+01)
 search vector abs. value=  0.367E-01
 bond charge predicted
       N       E                     dE             d eps       ncg     rms          rms(c)
DAV:   1    -0.407288428537E+03   -0.17003E-01   -0.21921E+00 10332   0.371E+00    0.357E-01
RMM:   2    -0.407293124009E+03   -0.46955E-02   -0.41077E-02 11060   0.803E-01    0.432E-01
RMM:   3    -0.407294692636E+03   -0.15686E-02   -0.13332E-02 14219   0.294E-01    0.451E-01
RMM:   4    -0.407292095506E+03    0.25971E-02   -0.47208E-03 12273   0.222E-01    0.402E-01
RMM:   5    -0.407290577021E+03    0.15185E-02   -0.36489E-03 12056   0.199E-01    0.202E-01
RMM:   6    -0.407290248334E+03    0.32869E-03   -0.15913E-03 12890   0.117E-01    0.137E-01
RMM:   7    -0.407290192099E+03    0.56235E-04   -0.95604E-04 11782   0.108E-01    0.132E-01
RMM:   8    -0.407290028523E+03    0.16358E-03   -0.38000E-04 11336   0.686E-02    0.637E-02
RMM:   9    -0.407289981197E+03    0.47326E-04   -0.16519E-04 11528   0.407E-02    0.269E-02
RMM:  10    -0.407289987941E+03   -0.67447E-05   -0.10842E-04 12268   0.209E-02    0.229E-02
RMM:  11    -0.407289984310E+03    0.36312E-05   -0.28374E-05  9612   0.140E-02    0.770E-03
RMM:  12    -0.407289985355E+03   -0.10446E-05   -0.14842E-05  8893   0.767E-03    0.556E-03
RMM:  13    -0.407289985588E+03   -0.23367E-06   -0.42090E-06  7596   0.666E-03
   6 F= -.40728999E+03 E0= -.40729676E+03  d E =-.185592E-01
 trial-energy change:   -0.018559  1 .order   -0.018507   -0.025696   -0.011317
 step:   1.9191(harm=  1.9510)  dis= 0.03789  next Energy=  -407.294297 (dE=-0.229E-01)
 bond charge predicted
       N       E                     dE             d eps       ncg     rms          rms(c)
DAV:   1    -0.407293561348E+03   -0.35760E-02   -0.12574E+00 10332   0.281E+00    0.268E-01
RMM:   2    -0.407296595892E+03   -0.30345E-02   -0.23484E-02 11202   0.598E-01    0.332E-01
RMM:   3    -0.407297066308E+03   -0.47042E-03   -0.73698E-03 14251   0.213E-01    0.343E-01
RMM:   4    -0.407295513359E+03    0.15529E-02   -0.27309E-03 11944   0.176E-01    0.289E-01
RMM:   5    -0.407294789313E+03    0.72405E-03   -0.20419E-03 12067   0.150E-01    0.152E-01
RMM:   6    -0.407294573230E+03    0.21608E-03   -0.84176E-04 12804   0.876E-02    0.917E-02
RMM:   7    -0.407294590981E+03   -0.17750E-04   -0.53354E-04 11891   0.804E-02    0.103E-01
RMM:   8    -0.407294481359E+03    0.10962E-03   -0.21427E-04 11263   0.525E-02    0.475E-02
RMM:   9    -0.407294455694E+03    0.25665E-04   -0.96392E-05 11386   0.307E-02    0.192E-02
RMM:  10    -0.407294460842E+03   -0.51475E-05   -0.63471E-05 11233   0.159E-02    0.185E-02
RMM:  11    -0.407294458611E+03    0.22313E-05   -0.16312E-05  8619   0.109E-02    0.580E-03
RMM:  12    -0.407294459394E+03   -0.78347E-06   -0.83275E-06  8272   0.618E-03
   7 F= -.40729446E+03 E0= -.40730108E+03  d E =-.230330E-01
 curvature:  -1.52 expect dE=-0.111E-01 dE for cont linesearch -0.430E-05
 trial: gam= 0.28816 g(F)=  0.728E-02 g(S)=  0.000E+00 ort = 0.322E-03 (trialstep = 0.126E+01)
 search vector abs. value=  0.105E-01
 bond charge predicted
       N       E                     dE             d eps       ncg     rms          rms(c)
DAV:   1    -0.407299694244E+03   -0.52356E-02   -0.11730E+00 10416   0.263E+00    0.260E-01
RMM:   2    -0.407300679894E+03   -0.98565E-03   -0.19208E-02 11432   0.550E-01    0.219E-01
RMM:   3    -0.407302696048E+03   -0.20162E-02   -0.76529E-03 13299   0.270E-01    0.402E-01
RMM:   4    -0.407302801613E+03   -0.10556E-03   -0.31868E-03 13257   0.157E-01    0.359E-01
RMM:   5    -0.407300617724E+03    0.21839E-02   -0.13686E-03 12148   0.120E-01    0.874E-02
RMM:   6    -0.407300794456E+03   -0.17673E-03   -0.11656E-03 12902   0.875E-02    0.141E-01
RMM:   7    -0.407300526119E+03    0.26834E-03   -0.33981E-04 11383   0.653E-02    0.386E-02
RMM:   8    -0.407300532845E+03   -0.67258E-05   -0.20451E-04 13349   0.324E-02    0.377E-02
RMM:   9    -0.407300520577E+03    0.12267E-04   -0.68523E-05 11636   0.242E-02    0.186E-02
RMM:  10    -0.407300518047E+03    0.25304E-05   -0.29476E-05 10375   0.109E-02    0.663E-03
RMM:  11    -0.407300518732E+03   -0.68469E-06   -0.96526E-06  8114   0.897E-03
   8 F= -.40730052E+03 E0= -.40730696E+03  d E =-.605934E-02
 trial-energy change:   -0.006059  1 .order   -0.006027   -0.009265   -0.002789
 step:   1.7764(harm=  1.7985)  dis= 0.01886  next Energy=  -407.301097 (dE=-0.664E-02)
 bond charge predicted
       N       E                     dE             d eps       ncg     rms          rms(c)
DAV:   1    -0.407300974065E+03   -0.45602E-03   -0.20007E-01 10620   0.109E+00    0.108E-01
RMM:   2    -0.407301139693E+03   -0.16563E-03   -0.32780E-03 11334   0.229E-01    0.888E-02
RMM:   3    -0.407301409621E+03   -0.26993E-03   -0.13157E-03 13079   0.116E-01    0.161E-01
RMM:   4    -0.407301165135E+03    0.24449E-03   -0.45668E-04 11919   0.722E-02    0.687E-02
RMM:   5    -0.407301186886E+03   -0.21751E-04   -0.25509E-04 12488   0.442E-02    0.611E-02
RMM:   6    -0.407301192676E+03   -0.57899E-05   -0.14990E-04 13651   0.226E-02    0.551E-02
RMM:   7    -0.407301129467E+03    0.63208E-04   -0.59725E-05 11648   0.248E-02    0.187E-02
RMM:   8    -0.407301127130E+03    0.23373E-05   -0.37025E-05 11665   0.131E-02    0.131E-02
RMM:   9    -0.407301126465E+03    0.66517E-06   -0.12430E-05  8831   0.104E-02    0.107E-02
RMM:  10    -0.407301125461E+03    0.10036E-05   -0.38880E-06  7406   0.808E-03    0.398E-03
RMM:  11    -0.407301125518E+03   -0.56300E-07   -0.13905E-06  6946   0.400E-03
   9 F= -.40730113E+03 E0= -.40730750E+03  d E =-.666612E-02
 curvature:  -1.28 expect dE=-0.568E-02 dE for cont linesearch -0.596E-06
 trial: gam= 0.61454 g(F)=  0.444E-02 g(S)=  0.000E+00 ort = 0.699E-04 (trialstep = 0.136E+01)
 search vector abs. value=  0.849E-02
 bond charge predicted
       N       E                     dE             d eps       ncg     rms          rms(c)
DAV:   1    -0.407304526579E+03   -0.34011E-02   -0.12662E+00 10332   0.268E+00    0.221E-01
RMM:   2    -0.407305826187E+03   -0.12996E-02   -0.18029E-02 11354   0.560E-01    0.194E-01
RMM:   3    -0.407307927764E+03   -0.21016E-02   -0.78104E-03 14251   0.226E-01    0.371E-01
RMM:   4    -0.407306804882E+03    0.11229E-02   -0.20130E-03 13887   0.107E-01    0.187E-01
RMM:   5    -0.407306197365E+03    0.60752E-03   -0.14311E-03 12881   0.101E-01    0.163E-01
RMM:   6    -0.407305887894E+03    0.30947E-03   -0.74346E-04 11923   0.904E-02    0.777E-02
RMM:   7    -0.407305875845E+03    0.12049E-04   -0.37657E-04 11899   0.675E-02    0.649E-02
RMM:   8    -0.407305816030E+03    0.59815E-04   -0.12375E-04 11893   0.341E-02    0.271E-02
RMM:   9    -0.407305811431E+03    0.45991E-05   -0.65524E-05 11808   0.204E-02    0.144E-02
RMM:  10    -0.407305811117E+03    0.31434E-06   -0.22483E-05 10335   0.114E-02    0.834E-03
RMM:  11    -0.407305811352E+03   -0.23574E-06   -0.85515E-06  8074   0.856E-03
  10 F= -.40730581E+03 E0= -.40731193E+03  d E =-.468583E-02
 trial-energy change:   -0.004686  1 .order   -0.004646   -0.006099   -0.003193
 step:   2.6500(harm=  2.8569)  dis= 0.01434  next Energy=  -407.307357 (dE=-0.623E-02)
 bond charge predicted
       N       E                     dE             d eps       ncg     rms          rms(c)
DAV:   1    -0.407306333680E+03   -0.52256E-03   -0.11355E+00 10332   0.254E+00    0.209E-01
RMM:   2    -0.407307448948E+03   -0.11153E-02   -0.16146E-02 11357   0.530E-01    0.173E-01
RMM:   3    -0.407309135418E+03   -0.16865E-02   -0.70769E-03 14254   0.213E-01    0.341E-01
RMM:   4    -0.407308339076E+03    0.79634E-03   -0.17152E-03 13337   0.114E-01    0.167E-01
RMM:   5    -0.407307929024E+03    0.41005E-03   -0.14829E-03 13737   0.860E-02    0.166E-01
RMM:   6    -0.407307552287E+03    0.37674E-03   -0.66219E-04 11703   0.871E-02    0.730E-02
RMM:   7    -0.407307551887E+03    0.39949E-06   -0.36631E-04 12099   0.638E-02    0.643E-02
RMM:   8    -0.407307495676E+03    0.56211E-04   -0.11833E-04 11841   0.333E-02    0.268E-02
RMM:   9    -0.407307490663E+03    0.50135E-05   -0.60595E-05 11717   0.200E-02    0.141E-02
RMM:  10    -0.407307490139E+03    0.52360E-06   -0.20056E-05 10087   0.106E-02    0.636E-03
RMM:  11    -0.407307490362E+03   -0.22246E-06   -0.73680E-06  8119   0.726E-03
  11 F= -.40730749E+03 E0= -.40731337E+03  d E =-.636484E-02
 curvature:  -2.66 expect dE=-0.565E-02 dE for cont linesearch -0.108E-04
 trial: gam= 0.39187 g(F)=  0.213E-02 g(S)=  0.000E+00 ort = 0.186E-03 (trialstep = 0.162E+01)
 search vector abs. value=  0.358E-02
 bond charge predicted
       N       E                     dE             d eps       ncg     rms          rms(c)
DAV:   1    -0.407308793773E+03   -0.13036E-02   -0.67205E-01 10332   0.203E+00    0.201E-01
RMM:   2    -0.407310219681E+03   -0.14259E-02   -0.12989E-02 11080   0.493E-01    0.295E-01
RMM:   3    -0.407310240822E+03   -0.21141E-04   -0.44615E-03 13606   0.201E-01    0.223E-01
RMM:   4    -0.407310870844E+03   -0.63002E-03   -0.19497E-03 14186   0.788E-02    0.228E-01
RMM:   5    -0.407309667524E+03    0.12033E-02   -0.10840E-03 12392   0.103E-01    0.131E-01
RMM:   6    -0.407309533519E+03    0.13401E-03   -0.67682E-04 12061   0.875E-02    0.918E-02
RMM:   7    -0.407309481192E+03    0.52327E-04   -0.31935E-04 11818   0.618E-02    0.628E-02
RMM:   8    -0.407309446320E+03    0.34872E-04   -0.13778E-04 11260   0.408E-02    0.355E-02
RMM:   9    -0.407309432500E+03    0.13820E-04   -0.60523E-05 11561   0.219E-02    0.122E-02
RMM:  10    -0.407309436065E+03   -0.35649E-05   -0.40223E-05 10679   0.129E-02    0.168E-02
RMM:  11    -0.407309433201E+03    0.28645E-05   -0.10133E-05  7911   0.104E-02    0.502E-03
RMM:  12    -0.407309433786E+03   -0.58503E-06   -0.63075E-06  8016   0.490E-03
  12 F= -.40730943E+03 E0= -.40731530E+03  d E =-.194342E-02
 trial-energy change:   -0.001943  1 .order   -0.001922   -0.003561   -0.000283
 step:   1.7526(harm=  1.7584)  dis= 0.00440  next Energy=  -407.309445 (dE=-0.196E-02)
 bond charge predicted
       N       E                     dE             d eps       ncg     rms          rms(c)
DAV:   1    -0.407309442885E+03   -0.96846E-05   -0.46023E-03 11760   0.168E-01    0.170E-02
RMM:   2    -0.407309452598E+03   -0.97125E-05   -0.93490E-05 11271   0.406E-02    0.235E-02
RMM:   3    -0.407309454092E+03   -0.14941E-05   -0.31567E-05 11902   0.173E-02    0.197E-02
RMM:   4    -0.407309458163E+03   -0.40714E-05   -0.13314E-05  9998   0.775E-03    0.185E-02
RMM:   5    -0.407309450342E+03    0.78214E-05   -0.74162E-06  8389   0.929E-03    0.119E-02
RMM:   6    -0.407309449017E+03    0.13251E-05   -0.42747E-06  7415   0.869E-03    0.761E-03
RMM:   7    -0.407309448730E+03    0.28667E-06   -0.18666E-06  6655   0.626E-03
  13 F= -.40730945E+03 E0= -.40731531E+03  d E =-.195837E-02
 curvature:  -1.43 expect dE=-0.118E-02 dE for cont linesearch -0.141E-06
 trial: gam= 0.40940 g(F)=  0.825E-03 g(S)=  0.000E+00 ort = 0.188E-04 (trialstep = 0.165E+01)
 search vector abs. value=  0.144E-02
 bond charge predicted
       N       E                     dE             d eps       ncg     rms          rms(c)
DAV:   1    -0.407309837495E+03   -0.38848E-03   -0.27810E-01 10344   0.133E+00    0.143E-01
RMM:   2    -0.407310663106E+03   -0.82561E-03   -0.62749E-03 10885   0.356E-01    0.242E-01
RMM:   3    -0.407310189965E+03    0.47314E-03   -0.18149E-03 12880   0.154E-01    0.114E-01
RMM:   4    -0.407310263269E+03   -0.73304E-04   -0.83678E-04 13973   0.584E-02    0.101E-01
RMM:   5    -0.407310469736E+03   -0.20647E-03   -0.44837E-04 12743   0.641E-02    0.134E-01
RMM:   6    -0.407310227324E+03    0.24241E-03   -0.47162E-04 13748   0.511E-02    0.113E-01
RMM:   7    -0.407310096879E+03    0.13044E-03   -0.23659E-04 11149   0.573E-02    0.492E-02
RMM:   8    -0.407310071189E+03    0.25690E-04   -0.85322E-05 12786   0.247E-02    0.186E-02
RMM:   9    -0.407310066823E+03    0.43658E-05   -0.27003E-05 11040   0.131E-02    0.942E-03
RMM:  10    -0.407310067707E+03   -0.88392E-06   -0.88003E-06  8344   0.884E-03
  14 F= -.40731007E+03 E0= -.40731586E+03  d E =-.618977E-03
 trial-energy change:   -0.000619  1 .order   -0.000612   -0.001370    0.000145
 step:   1.4917(harm=  1.4881)  dis= 0.00242  next Energy=  -407.310074 (dE=-0.626E-03)
 bond charge predicted
       N       E                     dE             d eps       ncg     rms          rms(c)
DAV:   1    -0.407310069433E+03   -0.26099E-05   -0.24209E-03 10800   0.125E-01    0.144E-02
RMM:   2    -0.407310077683E+03   -0.82498E-05   -0.61709E-05 10746   0.348E-02    0.235E-02
RMM:   3    -0.407310074445E+03    0.32378E-05   -0.18306E-05 10857   0.154E-02    0.128E-02
RMM:   4    -0.407310079755E+03   -0.53100E-05   -0.87453E-06  8716   0.723E-03    0.174E-02
RMM:   5    -0.407310073293E+03    0.64625E-05   -0.33258E-06  7068   0.778E-03    0.741E-03
RMM:   6    -0.407310073578E+03   -0.28488E-06   -0.30322E-06  7122   0.632E-03
  15 F= -.40731007E+03 E0= -.40731587E+03  d E =-.624848E-03
 curvature:  -1.29 expect dE=-0.496E-03 dE for cont linesearch -0.217E-07
 trial: gam= 0.45779 g(F)=  0.386E-03 g(S)=  0.000E+00 ort = 0.493E-05 (trialstep = 0.161E+01)
 search vector abs. value=  0.692E-03
 bond charge predicted
       N       E                     dE             d eps       ncg     rms          rms(c)
DAV:   1    -0.407310309813E+03   -0.23652E-03   -0.11939E-01 10332   0.881E-01    0.107E-01
RMM:   2    -0.407310531043E+03   -0.22123E-03   -0.22114E-03 10494   0.221E-01    0.105E-01
RMM:   3    -0.407310787720E+03   -0.25668E-03   -0.10655E-03 13932   0.976E-02    0.136E-01
RMM:   4    -0.407310801343E+03   -0.13623E-04   -0.53609E-04 13539   0.585E-02    0.145E-01
RMM:   5    -0.407310445611E+03    0.35573E-03   -0.29549E-04 11692   0.602E-02    0.519E-02
RMM:   6    -0.407310426009E+03    0.19602E-04   -0.19496E-04 13157   0.356E-02    0.348E-02
RMM:   7    -0.407310431998E+03   -0.59890E-05   -0.70621E-05 11310   0.300E-02    0.423E-02
RMM:   8    -0.407310412868E+03    0.19130E-04   -0.29785E-05 10658   0.194E-02    0.146E-02
RMM:   9    -0.407310409833E+03    0.30348E-05   -0.10215E-05  8094   0.103E-02    0.573E-03
RMM:  10    -0.407310410274E+03   -0.44036E-06   -0.50457E-06  7757   0.658E-03
  16 F= -.40731041E+03 E0= -.40731619E+03  d E =-.336696E-03
 trial-energy change:   -0.000337  1 .order   -0.000344   -0.000626   -0.000063
 step:   1.8128(harm=  1.7944)  dis= 0.00194  next Energy=  -407.310414 (dE=-0.341E-03)
 bond charge predicted
       N       E                     dE             d eps       ncg     rms          rms(c)
DAV:   1    -0.407310412537E+03   -0.27033E-05   -0.18121E-03 10956   0.109E-01    0.139E-02
RMM:   2    -0.407310417982E+03   -0.54453E-05   -0.43081E-05 11056   0.281E-02    0.177E-02
RMM:   3    -0.407310416711E+03    0.12708E-05   -0.15000E-05 10415   0.138E-02    0.139E-02
RMM:   4    -0.407310420922E+03   -0.42115E-05   -0.83848E-06  8913   0.889E-03    0.172E-02
RMM:   5    -0.407310415347E+03    0.55750E-05   -0.32879E-06  7156   0.722E-03    0.945E-03
RMM:   6    -0.407310414156E+03    0.11914E-05   -0.21850E-06  6881   0.648E-03    0.531E-03
RMM:   7    -0.407310414204E+03   -0.48027E-07   -0.12238E-06  6443   0.492E-03
  17 F= -.40731041E+03 E0= -.40731619E+03  d E =-.340626E-03
 curvature:  -1.58 expect dE=-0.440E-03 dE for cont linesearch -0.121E-10
 trial: gam= 0.71117 g(F)=  0.278E-03 g(S)=  0.000E+00 ort =-0.726E-07 (trialstep = 0.165E+01)
 search vector abs. value=  0.627E-03
 bond charge predicted
       N       E                     dE             d eps       ncg     rms          rms(c)
DAV:   1    -0.407310607611E+03   -0.19346E-03   -0.11819E-01 10332   0.858E-01    0.903E-02
RMM:   2    -0.407310954398E+03   -0.34679E-03   -0.22902E-03 10521   0.229E-01    0.148E-01
RMM:   3    -0.407310833213E+03    0.12118E-03   -0.75357E-04 13186   0.952E-02    0.884E-02
RMM:   4    -0.407310976146E+03   -0.14293E-03   -0.35479E-04 13855   0.439E-02    0.108E-01
RMM:   5    -0.407310753331E+03    0.22281E-03   -0.14847E-04 12444   0.380E-02    0.494E-02
RMM:   6    -0.407310769085E+03   -0.15755E-04   -0.16605E-04 11634   0.432E-02    0.642E-02
RMM:   7    -0.407310736466E+03    0.32620E-04   -0.82548E-05 11583   0.324E-02    0.334E-02
RMM:   8    -0.407310724681E+03    0.11784E-04   -0.34755E-05 10394   0.227E-02    0.203E-02
RMM:   9    -0.407310720878E+03    0.38033E-05   -0.11684E-05  8986   0.117E-02    0.755E-03
RMM:  10    -0.407310721029E+03   -0.15165E-06   -0.76442E-06  8093   0.687E-03
  18 F= -.40731072E+03 E0= -.40731650E+03  d E =-.306825E-03
 trial-energy change:   -0.000307  1 .order   -0.000312   -0.000459   -0.000165
 step:   2.8048(harm=  2.5851)  dis= 0.00305  next Energy=  -407.310777 (dE=-0.362E-03)
 bond charge predicted
       N       E                     dE             d eps       ncg     rms          rms(c)
DAV:   1    -0.407310706805E+03    0.14073E-04   -0.57185E-02 10332   0.596E-01    0.646E-02
RMM:   2    -0.407310883990E+03   -0.17719E-03   -0.11388E-03 10522   0.160E-01    0.106E-01
RMM:   3    -0.407310839629E+03    0.44361E-04   -0.38605E-04 13258   0.669E-02    0.674E-02
RMM:   4    -0.407310881479E+03   -0.41850E-04   -0.18573E-04 13633   0.312E-02    0.754E-02
RMM:   5    -0.407310777736E+03    0.10374E-03   -0.77342E-05 12043   0.284E-02    0.328E-02
RMM:   6    -0.407310790370E+03   -0.12634E-04   -0.86063E-05 11791   0.294E-02    0.466E-02
RMM:   7    -0.407310771095E+03    0.19274E-04   -0.39040E-05 11073   0.231E-02    0.223E-02
RMM:   8    -0.407310766146E+03    0.49488E-05   -0.15765E-05  9333   0.153E-02    0.147E-02
RMM:   9    -0.407310764097E+03    0.20497E-05   -0.53774E-06  7604   0.881E-03    0.511E-03
RMM:  10    -0.407310764399E+03   -0.30276E-06   -0.37141E-06  7549   0.555E-03
  19 F= -.40731076E+03 E0= -.40731655E+03  d E =-.350195E-03
 curvature:  -2.76 expect dE=-0.623E-03 dE for cont linesearch -0.158E-05
 trial: gam= 0.85877 g(F)=  0.226E-03 g(S)=  0.000E+00 ort =-0.190E-04 (trialstep = 0.180E+01)
 search vector abs. value=  0.656E-03
 bond charge predicted
       N       E                     dE             d eps       ncg     rms          rms(c)
DAV:   1    -0.407310826706E+03   -0.62609E-04   -0.13112E-01 10332   0.915E-01    0.108E-01
RMM:   2    -0.407311122530E+03   -0.29582E-03   -0.23303E-03 10561   0.222E-01    0.119E-01
RMM:   3    -0.407311374638E+03   -0.25211E-03   -0.11166E-03 14091   0.933E-02    0.145E-01
RMM:   4    -0.407311310293E+03    0.64345E-04   -0.52796E-04 12982   0.648E-02    0.144E-01
RMM:   5    -0.407310977623E+03    0.33267E-03   -0.27203E-04 11602   0.593E-02    0.497E-02
RMM:   6    -0.407310972325E+03    0.52980E-05   -0.19468E-04 12226   0.404E-02    0.435E-02
RMM:   7    -0.407310973223E+03   -0.89866E-06   -0.89089E-05 11520   0.325E-02    0.452E-02
RMM:   8    -0.407310947915E+03    0.25308E-04   -0.33385E-05 10162   0.227E-02    0.119E-02
RMM:   9    -0.407310946983E+03    0.93156E-06   -0.13431E-05  8913   0.990E-03    0.644E-03
RMM:  10    -0.407310947289E+03   -0.30597E-06   -0.72434E-06  8088   0.751E-03
  20 F= -.40731095E+03 E0= -.40731672E+03  d E =-.182890E-03
 trial-energy change:   -0.000183  1 .order   -0.000189   -0.000378   -0.000000
 step:   1.8042(harm=  1.8041)  dis= 0.00301  next Energy=  -407.310947 (dE=-0.183E-03)
 reached required accuracy - stopping structural energy minimisation
 augmentation electrons   21.019437504925687     
 soft         electrons   174.03537023836162     
 augmentation electrons   21.019437504925687     
 soft         electrons   174.03537023836162     
 augmentation electrons   21.019437504925687     
 soft         electrons   174.03537023836162     
 augmentation electrons   21.019437504925687     
 soft         electrons   174.03537023836162     
 augmentation electrons   21.019437504925687     
 soft         electrons   174.03537023836162     
 augmentation electrons   21.019437504925687     
 soft         electrons   174.03537023836162     
 augmentation electrons   21.019437504925687     
 soft         electrons   174.03537023836162     
 augmentation electrons   21.019437504925687     
 soft         electrons   174.03537023836162     
 augmentation electrons   21.019437504925687     
 soft         electrons   174.03537023836162     
 augmentation electrons   21.019437504925687     
 soft         electrons   174.03537023836162     
 augmentation electrons   21.019437504925687     
 soft         electrons   174.03537023836162     
 augmentation electrons   21.019437504925687     
 soft         electrons   174.03537023836162     
 augmentation electrons   21.019437504925687     
 soft         electrons   174.03537023836162     
 augmentation electrons   21.019437504925687     
 soft         electrons   174.03537023836162     
 augmentation electrons   21.019437504925687     
 soft         electrons   174.03537023836162     
 augmentation electrons   21.019437504925687     
 soft         electrons   174.03537023836162     
 augmentation electrons   21.019437504925687     
 soft         electrons   174.03537023836162     
 augmentation electrons   21.019437504925687     
 soft         electrons   174.03537023836162     
 augmentation electrons   21.019437504925687     
 soft         electrons   174.03537023836162     
 augmentation electrons   21.019437504925687     
 soft         electrons   174.03537023836162     
 augmentation electrons   21.019437504925687     
 soft         electrons   174.03537023836162     
 augmentation electrons   21.019437504925687     
 soft         electrons   174.03537023836162     
 augmentation electrons   21.019437504925687     
 soft         electrons   174.03537023836162     
 augmentation electrons   21.019437504925687     
 soft         electrons   174.03537023836162     
 augmentation electrons   21.019437504925687     
 soft         electrons   174.03537023836162     
 augmentation electrons   21.019437504925687     
 soft         electrons   174.03537023836162     
 augmentation electrons   21.019437504925687     
 soft         electrons   174.03537023836162     
 augmentation electrons   21.019437504925687     
 soft         electrons   174.03537023836162     
 augmentation electrons   21.019437504925687     
 soft         electrons   174.03537023836162     
 augmentation electrons   21.019437504925687     
 soft         electrons   174.03537023836162     
 augmentation electrons   21.019437504925687     
 soft         electrons   174.03537023836162     
 augmentation electrons   21.019437504925687     
 soft         electrons   174.03537023836162     
 augmentation electrons   21.019437504925687     
 soft         electrons   174.03537023836162     
 augmentation electrons   21.019437504925687     
 soft         electrons   174.03537023836162     
 augmentation electrons   21.019437504925687     
 soft         electrons   174.03537023836162     
 augmentation electrons   21.019437504925687     
 soft         electrons   174.03537023836162     
 augmentation electrons   21.019437504925687     
 soft         electrons   174.03537023836162     
 augmentation electrons   21.019437504925687     
 soft         electrons   174.03537023836162     
 augmentation electrons   21.019437504925687     
 soft         electrons   174.03537023836162     
 augmentation electrons   21.019437504925687     
 soft         electrons   174.03537023836162     
 augmentation electrons   21.019437504925687     
 soft         electrons   174.03537023836162     
 augmentation electrons   21.019437504925687     
 soft         electrons   174.03537023836162     
 augmentation electrons   21.019437504925687     
 soft         electrons   174.03537023836162     
 augmentation electrons   21.019437504925687     
 soft         electrons   174.03537023836162     
 augmentation electrons   21.019437504925687     
 soft         electrons   174.03537023836162     
 augmentation electrons   21.019437504925687     
 soft         electrons   174.03537023836162     
 augmentation electrons   21.019437504925687     
 soft         electrons   174.03537023836162     
 augmentation electrons   21.019437504925687     
 soft         electrons   174.03537023836162     
 augmentation electrons   21.019437504925687     
 soft         electrons   174.03537023836162     
 augmentation electrons   21.019437504925687     
 soft         electrons   174.03537023836162     
 augmentation electrons   21.019437504925687     
 soft         electrons   174.03537023836162     
 augmentation electrons   21.019437504925687     
 soft         electrons   174.03537023836162     
 augmentation electrons   21.019437504925687     
 augmentation electrons   21.019437504925687     
 soft         electrons   174.03537023836162     
 soft         electrons   174.03537023836162     
 total        electrons   195.05480774328731     
 total        electrons   195.05480774328731     
 total        electrons   195.05480774328731     
 total        electrons   195.05480774328731     
 total        electrons   195.05480774328731     
 total        electrons   195.05480774328731     
 total        electrons   195.05480774328731     
 total        electrons   195.05480774328731     
 total        electrons   195.05480774328731     
 total        electrons   195.05480774328731     
 total        electrons   195.05480774328731     
 total        electrons   195.05480774328731     
 total        electrons   195.05480774328731     
 total        electrons   195.05480774328731     
 total        electrons   195.05480774328731     
 total        electrons   195.05480774328731     
 total        electrons   195.05480774328731     
 total        electrons   195.05480774328731     
 total        electrons   195.05480774328731     
 total        electrons   195.05480774328731     
 total        electrons   195.05480774328731     
 total        electrons   195.05480774328731     
 total        electrons   195.05480774328731     
 total        electrons   195.05480774328731     
 total        electrons   195.05480774328731     
 total        electrons   195.05480774328731     
 total        electrons   195.05480774328731     
 total        electrons   195.05480774328731     
 total        electrons   195.05480774328731     
 total        electrons   195.05480774328731     
 total        electrons   195.05480774328731     
 total        electrons   195.05480774328731     
 total        electrons   195.05480774328731     
 total        electrons   195.05480774328731     
 total        electrons   195.05480774328731     
 total        electrons   195.05480774328731     
 total        electrons   195.05480774328731     
 total        electrons   195.05480774328731     
 total        electrons   195.05480774328731     
 total        electrons   195.05480774328731     
 total        electrons   195.05480774328731     
 total        electrons   195.05480774328731     
 total        electrons   195.05480774328731     
 total        electrons   195.05480774328731     
 total        electrons   195.05480774328731     
 total        electrons   195.05480774328731     
 total        electrons   195.05480774328731     
 total        electrons   195.05480774328731     
 total        electrons   195.05480774328731     
 total        electrons   195.05480774328731     
 total        electrons   195.05480774328731     
 total        electrons   195.05480774328731     
 total        electrons   195.05480774328731     
 total        electrons   195.05480774328731     
Note: The following floating-point exceptions are signalling: IEEE_OVERFLOW_FLAG
Note: The following floating-point exceptions are signalling: IEEE_OVERFLOW_FLAG
Note: The following floating-point exceptions are signalling: IEEE_OVERFLOW_FLAG
Note: The following floating-point exceptions are signalling: IEEE_OVERFLOW_FLAG
Note: The following floating-point exceptions are signalling: IEEE_OVERFLOW_FLAG
Note: The following floating-point exceptions are signalling: IEEE_OVERFLOW_FLAG
Note: The following floating-point exceptions are signalling: IEEE_OVERFLOW_FLAG
Note: The following floating-point exceptions are signalling: IEEE_OVERFLOW_FLAG
Note: The following floating-point exceptions are signalling: IEEE_OVERFLOW_FLAG
Note: The following floating-point exceptions are signalling: IEEE_OVERFLOW_FLAG
Note: The following floating-point exceptions are signalling: IEEE_OVERFLOW_FLAG
Note: The following floating-point exceptions are signalling: IEEE_OVERFLOW_FLAG
Note: The following floating-point exceptions are signalling: IEEE_OVERFLOW_FLAG
Note: The following floating-point exceptions are signalling: IEEE_OVERFLOW_FLAG
Note: The following floating-point exceptions are signalling: IEEE_OVERFLOW_FLAG
Note: The following floating-point exceptions are signalling: IEEE_OVERFLOW_FLAG
Note: The following floating-point exceptions are signalling: IEEE_OVERFLOW_FLAG
Note: The following floating-point exceptions are signalling: IEEE_OVERFLOW_FLAG
Note: The following floating-point exceptions are signalling: IEEE_OVERFLOW_FLAG
Note: The following floating-point exceptions are signalling: IEEE_OVERFLOW_FLAG
Note: The following floating-point exceptions are signalling: IEEE_OVERFLOW_FLAG
Note: The following floating-point exceptions are signalling: IEEE_OVERFLOW_FLAG
Note: The following floating-point exceptions are signalling: IEEE_OVERFLOW_FLAG
Note: The following floating-point exceptions are signalling: IEEE_OVERFLOW_FLAG
Note: The following floating-point exceptions are signalling: IEEE_OVERFLOW_FLAG
Note: The following floating-point exceptions are signalling: IEEE_OVERFLOW_FLAG
Note: The following floating-point exceptions are signalling: IEEE_OVERFLOW_FLAG
Note: The following floating-point exceptions are signalling: IEEE_OVERFLOW_FLAG
Note: The following floating-point exceptions are signalling: IEEE_INVALID_FLAG IEEE_OVERFLOW_FLAG
Note: The following floating-point exceptions are signalling: IEEE_OVERFLOW_FLAG
Note: The following floating-point exceptions are signalling: IEEE_OVERFLOW_FLAG
Note: The following floating-point exceptions are signalling: IEEE_OVERFLOW_FLAG
Note: The following floating-point exceptions are signalling: IEEE_OVERFLOW_FLAG
Note: The following floating-point exceptions are signalling: IEEE_OVERFLOW_FLAG
Note: The following floating-point exceptions are signalling: IEEE_OVERFLOW_FLAG
Note: The following floating-point exceptions are signalling: IEEE_OVERFLOW_FLAG
Note: The following floating-point exceptions are signalling: IEEE_OVERFLOW_FLAG
Note: The following floating-point exceptions are signalling: IEEE_OVERFLOW_FLAG
Note: The following floating-point exceptions are signalling: IEEE_OVERFLOW_FLAG
Note: The following floating-point exceptions are signalling: IEEE_OVERFLOW_FLAG
Note: The following floating-point exceptions are signalling: IEEE_OVERFLOW_FLAG
Note: The following floating-point exceptions are signalling: IEEE_OVERFLOW_FLAG
Note: The following floating-point exceptions are signalling: IEEE_OVERFLOW_FLAG
Note: The following floating-point exceptions are signalling: IEEE_OVERFLOW_FLAG
Note: The following floating-point exceptions are signalling: IEEE_OVERFLOW_FLAG
Note: The following floating-point exceptions are signalling: IEEE_OVERFLOW_FLAG
Note: The following floating-point exceptions are signalling: IEEE_OVERFLOW_FLAG
Note: The following floating-point exceptions are signalling: IEEE_OVERFLOW_FLAG
Note: The following floating-point exceptions are signalling: IEEE_OVERFLOW_FLAG
Note: The following floating-point exceptions are signalling: IEEE_OVERFLOW_FLAG
Note: The following floating-point exceptions are signalling: IEEE_OVERFLOW_FLAG
Note: The following floating-point exceptions are signalling: IEEE_OVERFLOW_FLAG
Note: The following floating-point exceptions are signalling: IEEE_OVERFLOW_FLAG
Note: The following floating-point exceptions are signalling: IEEE_OVERFLOW_FLAG
