   71   71    1    1
  0.2199523E+02  0.1053953E-08  0.6141200E-09  0.2412750E-08  0.5000000E-15
   1.0000000000000000E-004
  CAR 
 Name                                    
    266     23    176

  0.3742002E-15  0.3742002E-15  0.1262379E-14  0.2222222E-01
    1      -13.878932   1.000000
    2      -12.823660   1.000000
    3      -12.594917   1.000000
    4      -12.438310   1.000000
    5      -11.880171   1.000000
    6      -11.641943   1.000000
    7      -11.593828   1.000000
    8      -11.339787   1.000000
    9      -11.307421   1.000000
   10      -11.198254   1.000000
   11      -11.073413   1.000000
   12      -10.921137   1.000000
   13      -10.679683   1.000000
   14      -10.335597   1.000000
   15      -10.184861   1.000000
   16      -10.152151   1.000000
   17      -10.025853   1.000000
   18       -9.999832   1.000000
   19       -9.714987   1.000000
   20       -9.711261   1.000000
   21       -9.456084   1.000000
   22       -9.439397   1.000000
   23       -9.318616   1.000000
   24       -9.199891   1.000000
   25       -8.900472   1.000000
   26       -8.781160   1.000000
   27       -8.486670   1.000000
   28       -8.244079   1.000000
   29       -8.218443   1.000000
   30       -8.115517   1.000000
   31       -7.923281   1.000000
   32       -7.900386   1.000000
   33       -7.581813   1.000000
   34       -7.363438   1.000000
   35       -7.277276   1.000000
   36       -7.097941   1.000000
   37       -6.977191   1.000000
   38       -6.817686   1.000000
   39       -6.770419   1.000000
   40       -6.694852   1.000000
   41       -6.627395   1.000000
   42       -6.497946   1.000000
   43       -6.412766   1.000000
   44       -6.258223   1.000000
   45       -6.183220   1.000000
   46       -6.114464   1.000000
   47       -6.084775   1.000000
   48       -6.008118   1.000000
   49       -5.957360   1.000000
   50       -5.856184   1.000000
   51       -5.733999   1.000000
   52       -5.644237   1.000000
   53       -5.513673   1.000000
   54       -5.503428   1.000000
   55       -5.470410   1.000000
   56       -5.320309   1.000000
   57       -5.255220   1.000000
   58       -5.157378   1.000000
   59       -5.117537   1.000000
   60       -5.057625   1.000000
   61       -5.053104   1.000000
   62       -4.930530   1.000000
   63       -4.748464   1.000000
   64       -4.680233   1.000000
   65       -4.629680   1.000000
   66       -4.555770   1.000000
   67       -4.527639   1.000000
   68       -4.410820   1.000000
   69       -4.385771   1.000000
   70       -4.318560   1.000000
   71       -4.218009   1.000000
   72       -4.177540   1.000000
   73       -4.097891   1.000000
   74       -4.060815   1.000000
   75       -3.999651   1.000000
   76       -3.937843   1.000000
   77       -3.932779   1.000000
   78       -3.858112   1.000000
   79       -3.777415   1.000000
   80       -3.736077   1.000000
   81       -3.622121   1.000000
   82       -3.601031   1.000000
   83       -3.555394   1.000000
   84       -3.501838   1.000000
   85       -3.447545   1.000000
   86       -3.323812   1.000000
   87       -3.308649   1.000000
   88       -3.274348   1.000000
   89       -3.146327   1.000000
   90       -3.092939   1.000000
   91       -3.016915   1.000000
   92       -2.977224   1.000000
   93       -2.886383   1.000000
   94       -2.811161   1.000000
   95       -2.756543   1.000000
   96       -2.607439   1.000000
   97       -2.522834   1.000000
   98       -2.507182   1.000000
   99       -2.422154   1.000000
  100       -2.419632   1.000000
  101       -2.319364   1.000000
  102       -2.268892   1.000000
  103       -2.267723   1.000000
  104       -2.243158   1.000000
  105       -2.171636   1.000000
  106       -2.130752   1.000000
  107       -2.122040   1.000000
  108       -2.079821   1.000000
  109       -2.033559   1.000000
  110       -1.866865   1.000000
  111       -1.840946   1.000000
  112       -1.735118   1.000000
  113       -1.697065   1.000000
  114       -1.543315   1.000000
  115       -1.504536   1.000000
  116       -1.480381   1.000000
  117       -1.406894   1.000000
  118       -1.173751   1.000000
  119       -1.135817   1.000000
  120       -1.098240   1.000000
  121       -0.973256   1.000000
  122       -0.884164   1.000000
  123       -0.735909   1.000000
  124       -0.604028   1.000001
  125       -0.499096   1.000019
  126       -0.413279   1.000223
  127       -0.397664   1.000333
  128       -0.263357   1.005913
  129       -0.118930   1.032880
  130       -0.086874   1.035411
  131        0.012977   0.962750
  132        0.090641   0.756055
  133        0.093243   0.746731
  134        0.180889   0.389997
  135        0.221212   0.234878
  136        0.304956   0.023402
  137        0.320694   0.002613
  138        0.406855  -0.035265
  139        0.436669  -0.031396
  140        0.603868  -0.003336
  141        0.665826  -0.000899
  142        0.694957  -0.000449
  143        0.768829  -0.000062
  144        0.785807  -0.000038
  145        0.922102  -0.000000
  146        0.994153  -0.000000
  147        1.027498  -0.000000
  148        1.066620  -0.000000
  149        1.104662  -0.000000
  150        1.163656  -0.000000
  151        1.197447  -0.000000
  152        1.245862  -0.000000
  153        1.276480  -0.000000
  154        1.294547  -0.000000
  155        1.297858  -0.000000
  156        1.332165  -0.000000
  157        1.434047  -0.000000
  158        1.445917  -0.000000
  159        1.489831  -0.000000
  160        1.534176  -0.000000
  161        1.544096  -0.000000
  162        1.556778  -0.000000
  163        1.561012  -0.000000
  164        1.604346  -0.000000
  165        1.640713  -0.000000
  166        1.712689  -0.000000
  167        1.777972  -0.000000
  168        1.785948  -0.000000
  169        1.885429  -0.000000
  170        1.995005  -0.000000
  171        2.022294  -0.000000
  172        2.262030  -0.000000
  173        2.349904  -0.000000
  174        2.543276  -0.000000
  175        2.620097  -0.000000
  176        3.177637  -0.000000

  0.2000000E+00  0.3742002E-15  0.1262379E-14  0.4444444E-01
    1      -13.852265   1.000000
    2      -12.949403   1.000000
    3      -12.694332   1.000000
    4      -12.133969   1.000000
    5      -11.936867   1.000000
    6      -11.878759   1.000000
    7      -11.365439   1.000000
    8      -11.326694   1.000000
    9      -11.185427   1.000000
   10      -11.138094   1.000000
   11      -11.045180   1.000000
   12      -10.921221   1.000000
   13      -10.656719   1.000000
   14      -10.474678   1.000000
   15      -10.382864   1.000000
   16      -10.175543   1.000000
   17      -10.158565   1.000000
   18      -10.026597   1.000000
   19       -9.721835   1.000000
   20       -9.701698   1.000000
   21       -9.479315   1.000000
   22       -9.463674   1.000000
   23       -9.288015   1.000000
   24       -9.157621   1.000000
   25       -8.877924   1.000000
   26       -8.670635   1.000000
   27       -8.344826   1.000000
   28       -8.199343   1.000000
   29       -8.132082   1.000000
   30       -8.047182   1.000000
   31       -7.960381   1.000000
   32       -7.876562   1.000000
   33       -7.511571   1.000000
   34       -7.390496   1.000000
   35       -7.352769   1.000000
   36       -7.166193   1.000000
   37       -7.012556   1.000000
   38       -6.844256   1.000000
   39       -6.819225   1.000000
   40       -6.762581   1.000000
   41       -6.680329   1.000000
   42       -6.584429   1.000000
   43       -6.444174   1.000000
   44       -6.385474   1.000000
   45       -6.254795   1.000000
   46       -6.178078   1.000000
   47       -5.975213   1.000000
   48       -5.886618   1.000000
   49       -5.856015   1.000000
   50       -5.841929   1.000000
   51       -5.760452   1.000000
   52       -5.720555   1.000000
   53       -5.503069   1.000000
   54       -5.430453   1.000000
   55       -5.383134   1.000000
   56       -5.365474   1.000000
   57       -5.237373   1.000000
   58       -5.129154   1.000000
   59       -5.109220   1.000000
   60       -5.001316   1.000000
   61       -4.926871   1.000000
   62       -4.913753   1.000000
   63       -4.864713   1.000000
   64       -4.654626   1.000000
   65       -4.596791   1.000000
   66       -4.585347   1.000000
   67       -4.475401   1.000000
   68       -4.389528   1.000000
   69       -4.363847   1.000000
   70       -4.319428   1.000000
   71       -4.210685   1.000000
   72       -4.130221   1.000000
   73       -4.092006   1.000000
   74       -4.081971   1.000000
   75       -3.976471   1.000000
   76       -3.947077   1.000000
   77       -3.938908   1.000000
   78       -3.892088   1.000000
   79       -3.791988   1.000000
   80       -3.789808   1.000000
   81       -3.704739   1.000000
   82       -3.658306   1.000000
   83       -3.577346   1.000000
   84       -3.471978   1.000000
   85       -3.429588   1.000000
   86       -3.416371   1.000000
   87       -3.276405   1.000000
   88       -3.254027   1.000000
   89       -3.166634   1.000000
   90       -3.083458   1.000000
   91       -3.061664   1.000000
   92       -2.950482   1.000000
   93       -2.857962   1.000000
   94       -2.807604   1.000000
   95       -2.749702   1.000000
   96       -2.638447   1.000000
   97       -2.597585   1.000000
   98       -2.532362   1.000000
   99       -2.488904   1.000000
  100       -2.383287   1.000000
  101       -2.381783   1.000000
  102       -2.301348   1.000000
  103       -2.277275   1.000000
  104       -2.212026   1.000000
  105       -2.147456   1.000000
  106       -2.089470   1.000000
  107       -2.042025   1.000000
  108       -2.027756   1.000000
  109       -1.928480   1.000000
  110       -1.830211   1.000000
  111       -1.799819   1.000000
  112       -1.668618   1.000000
  113       -1.665934   1.000000
  114       -1.530018   1.000000
  115       -1.490848   1.000000
  116       -1.452837   1.000000
  117       -1.363734   1.000000
  118       -1.174174   1.000000
  119       -1.138391   1.000000
  120       -1.097102   1.000000
  121       -1.050788   1.000000
  122       -0.891165   1.000000
  123       -0.812873   1.000000
  124       -0.638708   1.000000
  125       -0.569270   1.000002
  126       -0.491915   1.000024
  127       -0.443846   1.000097
  128       -0.367622   1.000694
  129       -0.178290   1.020111
  130       -0.126135   1.031629
  131       -0.019609   1.006100
  132        0.018749   0.952503
  133        0.161653   0.470359
  134        0.163570   0.462269
  135        0.184293   0.376060
  136        0.280572   0.067127
  137        0.368502  -0.030904
  138        0.463868  -0.025557
  139        0.491274  -0.019287
  140        0.588711  -0.004438
  141        0.672113  -0.000777
  142        0.684242  -0.000583
  143        0.769179  -0.000062
  144        0.844534  -0.000006
  145        0.961819  -0.000000
  146        0.973170  -0.000000
  147        1.036088  -0.000000
  148        1.090810  -0.000000
  149        1.097601  -0.000000
  150        1.183798  -0.000000
  151        1.236636  -0.000000
  152        1.249000  -0.000000
  153        1.285835  -0.000000
  154        1.347463  -0.000000
  155        1.374501  -0.000000
  156        1.424920  -0.000000
  157        1.442014  -0.000000
  158        1.471306  -0.000000
  159        1.500851  -0.000000
  160        1.537953  -0.000000
  161        1.588084  -0.000000
  162        1.605641  -0.000000
  163        1.632771  -0.000000
  164        1.645617  -0.000000
  165        1.711318  -0.000000
  166        1.763042  -0.000000
  167        1.768787  -0.000000
  168        1.830540  -0.000000
  169        1.878582  -0.000000
  170        2.009761  -0.000000
  171        2.027690  -0.000000
  172        2.289472  -0.000000
  173        2.382032  -0.000000
  174        2.584045  -0.000000
  175        2.805847  -0.000000
  176        3.616778  -0.000000

  0.4000000E+00  0.3742002E-15  0.1262379E-14  0.4444444E-01
    1      -13.798955   1.000000
    2      -13.146543   1.000000
    3      -12.612033   1.000000
    4      -12.279187   1.000000
    5      -11.876413   1.000000
    6      -11.562767   1.000000
    7      -11.405232   1.000000
    8      -11.329533   1.000000
    9      -11.076940   1.000000
   10      -11.071073   1.000000
   11      -10.915167   1.000000
   12      -10.914124   1.000000
   13      -10.678484   1.000000
   14      -10.605858   1.000000
   15      -10.471138   1.000000
   16      -10.438523   1.000000
   17      -10.156633   1.000000
   18      -10.084979   1.000000
   19      -10.054979   1.000000
   20       -9.734280   1.000000
   21       -9.480222   1.000000
   22       -9.336695   1.000000
   23       -9.186776   1.000000
   24       -9.119598   1.000000
   25       -8.853860   1.000000
   26       -8.646550   1.000000
   27       -8.185082   1.000000
   28       -8.065847   1.000000
   29       -7.974623   1.000000
   30       -7.926310   1.000000
   31       -7.808873   1.000000
   32       -7.636005   1.000000
   33       -7.555889   1.000000
   34       -7.510509   1.000000
   35       -7.385654   1.000000
   36       -7.360206   1.000000
   37       -7.213113   1.000000
   38       -7.074037   1.000000
   39       -7.006348   1.000000
   40       -6.823944   1.000000
   41       -6.722346   1.000000
   42       -6.665706   1.000000
   43       -6.465823   1.000000
   44       -6.262083   1.000000
   45       -6.220381   1.000000
   46       -6.166462   1.000000
   47       -5.978575   1.000000
   48       -5.961592   1.000000
   49       -5.864846   1.000000
   50       -5.847445   1.000000
   51       -5.657584   1.000000
   52       -5.628924   1.000000
   53       -5.494248   1.000000
   54       -5.458124   1.000000
   55       -5.410594   1.000000
   56       -5.348785   1.000000
   57       -5.269943   1.000000
   58       -5.167751   1.000000
   59       -5.053723   1.000000
   60       -4.904770   1.000000
   61       -4.867360   1.000000
   62       -4.774355   1.000000
   63       -4.738379   1.000000
   64       -4.637902   1.000000
   65       -4.636196   1.000000
   66       -4.483487   1.000000
   67       -4.454563   1.000000
   68       -4.386995   1.000000
   69       -4.326599   1.000000
   70       -4.287365   1.000000
   71       -4.231095   1.000000
   72       -4.130265   1.000000
   73       -4.095656   1.000000
   74       -4.066178   1.000000
   75       -4.038035   1.000000
   76       -4.006370   1.000000
   77       -3.932220   1.000000
   78       -3.878203   1.000000
   79       -3.848500   1.000000
   80       -3.839581   1.000000
   81       -3.756538   1.000000
   82       -3.721941   1.000000
   83       -3.570223   1.000000
   84       -3.544913   1.000000
   85       -3.450702   1.000000
   86       -3.403512   1.000000
   87       -3.260057   1.000000
   88       -3.249911   1.000000
   89       -3.223348   1.000000
   90       -3.053299   1.000000
   91       -3.031825   1.000000
   92       -2.982675   1.000000
   93       -2.971503   1.000000
   94       -2.842690   1.000000
   95       -2.735595   1.000000
   96       -2.729190   1.000000
   97       -2.675407   1.000000
   98       -2.541022   1.000000
   99       -2.496820   1.000000
  100       -2.431941   1.000000
  101       -2.397339   1.000000
  102       -2.279968   1.000000
  103       -2.194884   1.000000
  104       -2.154470   1.000000
  105       -2.113560   1.000000
  106       -2.045196   1.000000
  107       -2.013122   1.000000
  108       -1.907184   1.000000
  109       -1.816149   1.000000
  110       -1.814160   1.000000
  111       -1.639455   1.000000
  112       -1.625722   1.000000
  113       -1.585010   1.000000
  114       -1.496572   1.000000
  115       -1.440341   1.000000
  116       -1.389855   1.000000
  117       -1.310333   1.000000
  118       -1.203822   1.000000
  119       -1.172536   1.000000
  120       -1.146007   1.000000
  121       -1.051556   1.000000
  122       -0.960759   1.000000
  123       -0.899256   1.000000
  124       -0.703895   1.000000
  125       -0.699406   1.000000
  126       -0.618598   1.000000
  127       -0.553093   1.000003
  128       -0.459139   1.000063
  129       -0.355538   1.000920
  130       -0.223917   1.011128
  131       -0.009584   0.995259
  132        0.000483   0.982196
  133        0.131114   0.598804
  134        0.147474   0.530316
  135        0.192120   0.344469
  136        0.286306   0.055532
  137        0.387562  -0.034853
  138        0.439371  -0.030876
  139        0.520622  -0.013309
  140        0.632275  -0.001881
  141        0.640667  -0.001573
  142        0.743015  -0.000129
  143        0.827682  -0.000010
  144        0.841219  -0.000007
  145        0.972557  -0.000000
  146        0.989426  -0.000000
  147        1.081779  -0.000000
  148        1.103026  -0.000000
  149        1.210697  -0.000000
  150        1.267512  -0.000000
  151        1.280893  -0.000000
  152        1.292378  -0.000000
  153        1.354842  -0.000000
  154        1.386312  -0.000000
  155        1.446613  -0.000000
  156        1.464329  -0.000000
  157        1.479611  -0.000000
  158        1.489430  -0.000000
  159        1.549535  -0.000000
  160        1.571950  -0.000000
  161        1.611234  -0.000000
  162        1.641541  -0.000000
  163        1.679620  -0.000000
  164        1.719201  -0.000000
  165        1.740101  -0.000000
  166        1.751900  -0.000000
  167        1.802181  -0.000000
  168        1.838211  -0.000000
  169        1.890885  -0.000000
  170        1.956995  -0.000000
  171        1.998585  -0.000000
  172        2.138256  -0.000000
  173        2.220138  -0.000000
  174        2.250569  -0.000000
  175        2.515200  -0.000000
  176        2.550065  -0.000000

  0.3742002E-15  0.1111111E+00  0.1262379E-14  0.4444444E-01
    1      -13.833363   1.000000
    2      -12.782765   1.000000
    3      -12.559289   1.000000
    4      -12.407052   1.000000
    5      -11.961108   1.000000
    6      -11.609606   1.000000
    7      -11.568209   1.000000
    8      -11.379951   1.000000
    9      -11.336377   1.000000
   10      -11.239260   1.000000
   11      -11.047746   1.000000
   12      -10.935831   1.000000
   13      -10.711975   1.000000
   14      -10.345015   1.000000
   15      -10.184206   1.000000
   16      -10.134060   1.000000
   17      -10.031447   1.000000
   18      -10.008691   1.000000
   19       -9.710751   1.000000
   20       -9.682170   1.000000
   21       -9.482244   1.000000
   22       -9.439012   1.000000
   23       -9.309340   1.000000
   24       -9.208544   1.000000
   25       -8.920101   1.000000
   26       -8.757572   1.000000
   27       -8.476057   1.000000
   28       -8.266215   1.000000
   29       -8.210573   1.000000
   30       -8.121931   1.000000
   31       -7.912671   1.000000
   32       -7.784300   1.000000
   33       -7.666176   1.000000
   34       -7.382363   1.000000
   35       -7.334369   1.000000
   36       -7.199431   1.000000
   37       -6.957222   1.000000
   38       -6.860016   1.000000
   39       -6.729440   1.000000
   40       -6.625536   1.000000
   41       -6.589167   1.000000
   42       -6.490012   1.000000
   43       -6.382201   1.000000
   44       -6.275059   1.000000
   45       -6.158022   1.000000
   46       -6.101902   1.000000
   47       -6.068818   1.000000
   48       -5.997523   1.000000
   49       -5.989572   1.000000
   50       -5.869561   1.000000
   51       -5.735841   1.000000
   52       -5.609822   1.000000
   53       -5.588647   1.000000
   54       -5.427941   1.000000
   55       -5.411266   1.000000
   56       -5.330675   1.000000
   57       -5.242029   1.000000
   58       -5.108575   1.000000
   59       -5.084632   1.000000
   60       -5.057196   1.000000
   61       -5.008419   1.000000
   62       -4.898988   1.000000
   63       -4.738424   1.000000
   64       -4.705598   1.000000
   65       -4.612112   1.000000
   66       -4.567098   1.000000
   67       -4.481521   1.000000
   68       -4.417206   1.000000
   69       -4.383958   1.000000
   70       -4.351938   1.000000
   71       -4.271592   1.000000
   72       -4.213552   1.000000
   73       -4.166242   1.000000
   74       -4.003912   1.000000
   75       -3.972778   1.000000
   76       -3.948760   1.000000
   77       -3.907145   1.000000
   78       -3.849854   1.000000
   79       -3.805033   1.000000
   80       -3.741183   1.000000
   81       -3.664439   1.000000
   82       -3.610973   1.000000
   83       -3.569389   1.000000
   84       -3.509761   1.000000
   85       -3.442002   1.000000
   86       -3.338936   1.000000
   87       -3.277189   1.000000
   88       -3.271904   1.000000
   89       -3.188659   1.000000
   90       -3.105475   1.000000
   91       -3.037213   1.000000
   92       -3.024999   1.000000
   93       -2.950045   1.000000
   94       -2.856540   1.000000
   95       -2.785435   1.000000
   96       -2.688684   1.000000
   97       -2.630554   1.000000
   98       -2.486104   1.000000
   99       -2.465288   1.000000
  100       -2.409871   1.000000
  101       -2.347972   1.000000
  102       -2.322199   1.000000
  103       -2.302085   1.000000
  104       -2.212594   1.000000
  105       -2.179586   1.000000
  106       -2.124204   1.000000
  107       -2.098127   1.000000
  108       -2.086766   1.000000
  109       -1.993496   1.000000
  110       -1.886861   1.000000
  111       -1.808013   1.000000
  112       -1.714760   1.000000
  113       -1.627162   1.000000
  114       -1.508450   1.000000
  115       -1.466624   1.000000
  116       -1.445888   1.000000
  117       -1.408201   1.000000
  118       -1.234106   1.000000
  119       -1.118744   1.000000
  120       -1.044801   1.000000
  121       -0.870919   1.000000
  122       -0.810918   1.000000
  123       -0.730569   1.000000
  124       -0.660097   1.000000
  125       -0.550924   1.000004
  126       -0.480788   1.000034
  127       -0.355081   1.000929
  128       -0.257892   1.006495
  129       -0.206657   1.014183
  130       -0.120662   1.032595
  131       -0.013825   1.000101
  132        0.030489   0.929119
  133        0.119193   0.647422
  134        0.158656   0.483025
  135        0.255999   0.126202
  136        0.353481  -0.024514
  137        0.366732  -0.030316
  138        0.417697  -0.034345
  139        0.487991  -0.020019
  140        0.552545  -0.008269
  141        0.666823  -0.000878
  142        0.723295  -0.000218
  143        0.751972  -0.000101
  144        0.830894  -0.000009
  145        0.881078  -0.000002
  146        0.930867  -0.000000
  147        1.044763  -0.000000
  148        1.067565  -0.000000
  149        1.107008  -0.000000
  150        1.147692  -0.000000
  151        1.204656  -0.000000
  152        1.222485  -0.000000
  153        1.261558  -0.000000
  154        1.313431  -0.000000
  155        1.347784  -0.000000
  156        1.408189  -0.000000
  157        1.433687  -0.000000
  158        1.449625  -0.000000
  159        1.464454  -0.000000
  160        1.500950  -0.000000
  161        1.521912  -0.000000
  162        1.546341  -0.000000
  163        1.586442  -0.000000
  164        1.606248  -0.000000
  165        1.655207  -0.000000
  166        1.689961  -0.000000
  167        1.705736  -0.000000
  168        1.751182  -0.000000
  169        1.852209  -0.000000
  170        1.994089  -0.000000
  171        2.005707  -0.000000
  172        2.063971  -0.000000
  173        2.214049  -0.000000
  174        2.384764  -0.000000
  175        2.630688  -0.000000
  176        3.656724  -0.000000

  0.2000000E+00  0.1111111E+00  0.1262379E-14  0.4444444E-01
    1      -13.806959   1.000000
    2      -12.909698   1.000000
    3      -12.656728   1.000000
    4      -12.101157   1.000000
    5      -11.960898   1.000000
    6      -11.904629   1.000000
    7      -11.418457   1.000000
    8      -11.359796   1.000000
    9      -11.166155   1.000000
   10      -11.156004   1.000000
   11      -11.019411   1.000000
   12      -10.941681   1.000000
   13      -10.681317   1.000000
   14      -10.460676   1.000000
   15      -10.390006   1.000000
   16      -10.183648   1.000000
   17      -10.139029   1.000000
   18      -10.043906   1.000000
   19       -9.732443   1.000000
   20       -9.681814   1.000000
   21       -9.487288   1.000000
   22       -9.465841   1.000000
   23       -9.283084   1.000000
   24       -9.165870   1.000000
   25       -8.874127   1.000000
   26       -8.661372   1.000000
   27       -8.336377   1.000000
   28       -8.219061   1.000000
   29       -8.137980   1.000000
   30       -8.063292   1.000000
   31       -7.948581   1.000000
   32       -7.749899   1.000000
   33       -7.580652   1.000000
   34       -7.442699   1.000000
   35       -7.379755   1.000000
   36       -7.236650   1.000000
   37       -6.994316   1.000000
   38       -6.867719   1.000000
   39       -6.817570   1.000000
   40       -6.696623   1.000000
   41       -6.649949   1.000000
   42       -6.514366   1.000000
   43       -6.448292   1.000000
   44       -6.416962   1.000000
   45       -6.255426   1.000000
   46       -6.205270   1.000000
   47       -6.031665   1.000000
   48       -5.955551   1.000000
   49       -5.818988   1.000000
   50       -5.797683   1.000000
   51       -5.708151   1.000000
   52       -5.650572   1.000000
   53       -5.489375   1.000000
   54       -5.449890   1.000000
   55       -5.406434   1.000000
   56       -5.335460   1.000000
   57       -5.174376   1.000000
   58       -5.117980   1.000000
   59       -5.078513   1.000000
   60       -4.959403   1.000000
   61       -4.928798   1.000000
   62       -4.894994   1.000000
   63       -4.833474   1.000000
   64       -4.650495   1.000000
   65       -4.602933   1.000000
   66       -4.545510   1.000000
   67       -4.452455   1.000000
   68       -4.405443   1.000000
   69       -4.368323   1.000000
   70       -4.309900   1.000000
   71       -4.238608   1.000000
   72       -4.200705   1.000000
   73       -4.162451   1.000000
   74       -4.043376   1.000000
   75       -4.009378   1.000000
   76       -3.941341   1.000000
   77       -3.926620   1.000000
   78       -3.882436   1.000000
   79       -3.808426   1.000000
   80       -3.732195   1.000000
   81       -3.725006   1.000000
   82       -3.682021   1.000000
   83       -3.572067   1.000000
   84       -3.518084   1.000000
   85       -3.434162   1.000000
   86       -3.374704   1.000000
   87       -3.317164   1.000000
   88       -3.246963   1.000000
   89       -3.199669   1.000000
   90       -3.127371   1.000000
   91       -3.036685   1.000000
   92       -3.021100   1.000000
   93       -2.919516   1.000000
   94       -2.848099   1.000000
   95       -2.785431   1.000000
   96       -2.715823   1.000000
   97       -2.595668   1.000000
   98       -2.573580   1.000000
   99       -2.496569   1.000000
  100       -2.424419   1.000000
  101       -2.396360   1.000000
  102       -2.377090   1.000000
  103       -2.232111   1.000000
  104       -2.180124   1.000000
  105       -2.132976   1.000000
  106       -2.098317   1.000000
  107       -2.072702   1.000000
  108       -2.025068   1.000000
  109       -1.965863   1.000000
  110       -1.827931   1.000000
  111       -1.762814   1.000000
  112       -1.684374   1.000000
  113       -1.592201   1.000000
  114       -1.519643   1.000000
  115       -1.455629   1.000000
  116       -1.426744   1.000000
  117       -1.386762   1.000000
  118       -1.242722   1.000000
  119       -1.129499   1.000000
  120       -1.073286   1.000000
  121       -0.984745   1.000000
  122       -0.851572   1.000000
  123       -0.742397   1.000000
  124       -0.688123   1.000000
  125       -0.592682   1.000001
  126       -0.548003   1.000004
  127       -0.381110   1.000502
  128       -0.272034   1.005075
  129       -0.255488   1.006764
  130       -0.145099   1.027709
  131       -0.027685   1.013362
  132        0.044732   0.896094
  133        0.118562   0.649954
  134        0.163570   0.462269
  135        0.221914   0.232421
  136        0.276560   0.075731
  137        0.372185  -0.031998
  138        0.416537  -0.034475
  139        0.556014  -0.007819
  140        0.598898  -0.003669
  141        0.654329  -0.001166
  142        0.731094  -0.000178
  143        0.756370  -0.000089
  144        0.879532  -0.000002
  145        0.924523  -0.000000
  146        0.966315  -0.000000
  147        1.035290  -0.000000
  148        1.076656  -0.000000
  149        1.139357  -0.000000
  150        1.172371  -0.000000
  151        1.226530  -0.000000
  152        1.257352  -0.000000
  153        1.306545  -0.000000
  154        1.325302  -0.000000
  155        1.378572  -0.000000
  156        1.421256  -0.000000
  157        1.440582  -0.000000
  158        1.459699  -0.000000
  159        1.485920  -0.000000
  160        1.508502  -0.000000
  161        1.537842  -0.000000
  162        1.566689  -0.000000
  163        1.602549  -0.000000
  164        1.617645  -0.000000
  165        1.648591  -0.000000
  166        1.699342  -0.000000
  167        1.733150  -0.000000
  168        1.802448  -0.000000
  169        1.863728  -0.000000
  170        1.951662  -0.000000
  171        1.997445  -0.000000
  172        2.045124  -0.000000
  173        2.156846  -0.000000
  174        2.190653  -0.000000
  175        2.249162  -0.000000
  176        2.874309  -0.000000

  0.4000000E+00  0.1111111E+00  0.1262379E-14  0.4444444E-01
    1      -13.754191   1.000000
    2      -13.105805   1.000000
    3      -12.575295   1.000000
    4      -12.241436   1.000000
    5      -11.951473   1.000000
    6      -11.556037   1.000000
    7      -11.454474   1.000000
    8      -11.361234   1.000000
    9      -11.087804   1.000000
   10      -11.049634   1.000000
   11      -10.943311   1.000000