   56   56   85    1
  0.1358781E+02  0.6088057E-09  0.6088057E-09  0.2372246E-08  0.5000000E-15
   1.0000000000000000E-004
  CAR 
 Name                                    
    202     41    132

  0.3742002E-15  0.3742002E-15  0.1262379E-14  0.1234568E-01
    1      -11.662959   1.000000
    2      -11.087531   1.000000
    3      -10.282481   1.000000
    4       -9.262826   1.000000
    5       -8.850220   1.000000
    6       -8.781072   1.000000
    7       -8.396059   1.000000
    8       -8.209978   1.000000
    9       -8.076793   1.000000
   10       -7.960101   1.000000
   11       -7.898913   1.000000
   12       -7.852900   1.000000
   13       -7.822989   1.000000
   14       -7.813420   1.000000
   15       -7.531183   1.000000
   16       -7.497484   1.000000
   17       -7.461253   1.000000
   18       -7.320795   1.000000
   19       -7.163764   1.000000
   20       -7.099803   1.000000
   21       -7.001021   1.000000
   22       -6.503957   1.000000
   23       -6.299535   1.000000
   24       -6.248973   1.000000
   25       -6.153175   1.000000
   26       -6.117200   1.000000
   27       -6.025115   1.000000
   28       -6.013740   1.000000
   29       -5.708540   1.000000
   30       -5.444487   1.000000
   31       -5.027912   1.000000
   32       -4.869343   1.000000
   33       -4.738220   1.000000
   34       -4.733649   1.000000
   35       -4.500985   1.000000
   36       -4.460883   1.000000
   37       -4.302468   1.000000
   38       -3.790113   1.000000
   39       -3.368062   1.000000
   40       -3.285268   1.000000
   41       -3.200648   1.000000
   42       -3.086234   1.000000
   43       -2.850110   1.000000
   44       -2.803817   1.000000
   45       -2.708974   1.000000
   46       -2.623138   1.000000
   47       -2.580106   1.000000
   48       -2.413485   1.000000
   49       -2.401174   1.000000
   50       -2.347590   1.000000
   51       -2.160121   1.000000
   52       -2.086732   1.000000
   53       -2.069575   1.000000
   54       -2.013944   1.000000
   55       -1.990439   1.000000
   56       -1.960471   1.000000
   57       -1.906485   1.000000
   58       -1.820261   1.000000
   59       -1.817027   1.000000
   60       -1.660520   1.000000
   61       -1.491663   1.000000
   62       -1.446360   1.000000
   63       -1.437408   1.000000
   64       -1.319633   1.000000
   65       -1.267204   1.000000
   66       -1.246430   1.000000
   67       -1.071523   1.000000
   68       -0.974298   1.000000
   69       -0.943344   1.000000
   70       -0.903488   1.000000
   71       -0.810915   1.000000
   72       -0.807146   1.000000
   73       -0.772056   1.000000
   74       -0.725630   1.000000
   75       -0.541034   1.000000
   76       -0.375649   1.000000
   77       -0.266657   1.000000
   78       -0.247494   1.000000
   79       -0.221196   1.000000
   80        0.159881   1.000000
   81        0.172275   1.000000
   82        0.400037   1.000000
   83        0.499752   1.000000
   84        0.616164   1.000000
   85        0.906664   1.000000
   86        0.948854   1.000000
   87        1.003905   1.000000
   88        1.116758   1.000000
   89        1.151163   1.000000
   90        1.282766   1.000000
   91        1.319680   1.000000
   92        1.357665   1.000000
   93        1.387242   1.000000
   94        1.440021   1.000000
   95        1.454630   1.000000
   96        1.495564   1.000000
   97        1.933082   1.000109
   98        2.050179   1.001899
   99        2.489458   0.657229
  100        2.541945   0.438471
  101        2.591643   0.242948
  102        2.779723  -0.035257
  103        2.801561  -0.032778
  104        3.010391  -0.001678
  105        3.035945  -0.000954
  106        3.063542  -0.000497
  107        3.151134  -0.000047
  108        3.387121  -0.000000
  109        3.433110  -0.000000
  110        3.447509  -0.000000
  111        3.488136  -0.000000
  112        3.560165  -0.000000
  113        3.668402  -0.000000
  114        3.677530  -0.000000
  115        3.740788  -0.000000
  116        3.745949  -0.000000
  117        3.755173  -0.000000
  118        3.772530  -0.000000
  119        3.857803  -0.000000
  120        3.889212  -0.000000
  121        3.944066  -0.000000
  122        4.010676  -0.000000
  123        4.078643  -0.000000
  124        4.119013  -0.000000
  125        4.179014  -0.000000
  126        4.224329  -0.000000
  127        4.345833  -0.000000
  128        4.387180  -0.000000
  129        4.562437  -0.000000
  130        4.677387  -0.000000
  131        4.929249  -0.000000
  132        5.079274  -0.000000

  0.1111111E+00  0.3857958E-15  0.1262379E-14  0.2469136E-01
    1      -11.605635   1.000000
    2      -11.034930   1.000000
    3      -10.241424   1.000000
    4       -9.233034   1.000000
    5       -8.817423   1.000000
    6       -8.799222   1.000000
    7       -8.548084   1.000000
    8       -8.422542   1.000000
    9       -8.238051   1.000000
   10       -8.146928   1.000000
   11       -8.119793   1.000000
   12       -8.077679   1.000000
   13       -7.950619   1.000000
   14       -7.905335   1.000000
   15       -7.425795   1.000000
   16       -7.301097   1.000000
   17       -7.248658   1.000000
   18       -7.091615   1.000000
   19       -7.008898   1.000000
   20       -6.919538   1.000000
   21       -6.818821   1.000000
   22       -6.591972   1.000000
   23       -6.294059   1.000000
   24       -6.247888   1.000000
   25       -6.151049   1.000000
   26       -6.043373   1.000000
   27       -5.986329   1.000000
   28       -5.859586   1.000000
   29       -5.707771   1.000000
   30       -5.388592   1.000000
   31       -5.011081   1.000000
   32       -4.751243   1.000000
   33       -4.705484   1.000000
   34       -4.551540   1.000000
   35       -4.422804   1.000000
   36       -4.359329   1.000000
   37       -4.142893   1.000000
   38       -3.757029   1.000000
   39       -3.361272   1.000000
   40       -3.319910   1.000000
   41       -3.224075   1.000000
   42       -3.073860   1.000000
   43       -2.935484   1.000000
   44       -2.827867   1.000000
   45       -2.785353   1.000000
   46       -2.747272   1.000000
   47       -2.657379   1.000000
   48       -2.557107   1.000000
   49       -2.399158   1.000000
   50       -2.327697   1.000000
   51       -2.201648   1.000000
   52       -2.114856   1.000000
   53       -2.045950   1.000000
   54       -2.003068   1.000000
   55       -1.961813   1.000000
   56       -1.937801   1.000000
   57       -1.881735   1.000000
   58       -1.825857   1.000000
   59       -1.815676   1.000000
   60       -1.654494   1.000000
   61       -1.530715   1.000000
   62       -1.513996   1.000000
   63       -1.471913   1.000000
   64       -1.399629   1.000000
   65       -1.305247   1.000000
   66       -1.278278   1.000000
   67       -1.160941   1.000000
   68       -1.112238   1.000000
   69       -0.984945   1.000000
   70       -0.963287   1.000000
   71       -0.883860   1.000000
   72       -0.790633   1.000000
   73       -0.725805   1.000000
   74       -0.678164   1.000000
   75       -0.537493   1.000000
   76       -0.415151   1.000000
   77       -0.359666   1.000000
   78       -0.254219   1.000000
   79       -0.140239   1.000000
   80       -0.038722   1.000000
   81        0.086287   1.000000
   82        0.303191   1.000000
   83        0.347889   1.000000
   84        0.607174   1.000000
   85        0.750311   1.000000
   86        0.770710   1.000000
   87        0.918986   1.000000
   88        0.991812   1.000000
   89        1.159753   1.000000
   90        1.261990   1.000000
   91        1.283201   1.000000
   92        1.311388   1.000000
   93        1.333564   1.000000
   94        1.417838   1.000000
   95        1.547506   1.000000
   96        1.620505   1.000000
   97        2.188305   1.018754
   98        2.245791   1.031482
   99        2.455997   0.781711
  100        2.537750   0.456102
  101        2.595756   0.228500
  102        2.653376   0.066946
  103        2.741337  -0.030942
  104        2.832440  -0.026506
  105        3.102850  -0.000182
  106        3.177794  -0.000021
  107        3.298656  -0.000000
  108        3.390590  -0.000000
  109        3.424139  -0.000000
  110        3.449353  -0.000000
  111        3.486926  -0.000000
  112        3.537176  -0.000000
  113        3.616160  -0.000000
  114        3.635921  -0.000000
  115        3.681566  -0.000000
  116        3.740317  -0.000000
  117        3.746921  -0.000000
  118        3.767518  -0.000000
  119        3.816705  -0.000000
  120        3.849251  -0.000000
  121        3.892632  -0.000000
  122        3.971683  -0.000000
  123        4.001649  -0.000000
  124        4.027498  -0.000000
  125        4.131519  -0.000000
  126        4.133579  -0.000000
  127        4.229438  -0.000000
  128        4.318436  -0.000000
  129        4.389266  -0.000000
  130        4.563973  -0.000000
  131        4.839537  -0.000000
  132        5.184471  -0.000000

  0.2222222E+00  0.3935346E-15  0.1262379E-14  0.2469136E-01
    1      -11.435830   1.000000
    2      -10.879551   1.000000
    3      -10.121393   1.000000
    4       -9.157145   1.000000
    5       -9.116146   1.000000
    6       -8.908117   1.000000
    7       -8.872561   1.000000
    8       -8.709871   1.000000
    9       -8.394488   1.000000
   10       -8.336416   1.000000
   11       -8.304356   1.000000
   12       -8.158063   1.000000
   13       -8.154534   1.000000
   14       -8.106901   1.000000
   15       -7.459796   1.000000
   16       -7.215359   1.000000
   17       -7.104301   1.000000
   18       -6.927094   1.000000
   19       -6.903807   1.000000
   20       -6.676086   1.000000
   21       -6.616576   1.000000
   22       -6.279383   1.000000
   23       -6.168466   1.000000
   24       -6.038880   1.000000
   25       -5.963850   1.000000
   26       -5.900924   1.000000
   27       -5.795953   1.000000
   28       -5.724594   1.000000
   29       -5.387177   1.000000
   30       -5.188165   1.000000
   31       -4.915319   1.000000
   32       -4.583556   1.000000
   33       -4.554090   1.000000
   34       -4.292591   1.000000
   35       -4.156332   1.000000
   36       -4.041785   1.000000
   37       -3.743813   1.000000
   38       -3.682392   1.000000
   39       -3.514119   1.000000
   40       -3.420946   1.000000
   41       -3.321801   1.000000
   42       -3.273794   1.000000
   43       -3.240991   1.000000
   44       -3.033606   1.000000
   45       -2.987741   1.000000
   46       -2.741774   1.000000
   47       -2.658059   1.000000
   48       -2.610662   1.000000
   49       -2.393256   1.000000
   50       -2.321137   1.000000
   51       -2.249521   1.000000
   52       -2.200554   1.000000
   53       -2.129841   1.000000
   54       -2.066621   1.000000
   55       -2.043011   1.000000
   56       -1.961096   1.000000
   57       -1.899659   1.000000
   58       -1.881980   1.000000
   59       -1.791483   1.000000
   60       -1.682248   1.000000
   61       -1.669925   1.000000
   62       -1.593919   1.000000
   63       -1.566731   1.000000
   64       -1.520153   1.000000
   65       -1.430451   1.000000
   66       -1.367268   1.000000
   67       -1.331402   1.000000
   68       -1.256687   1.000000
   69       -1.141985   1.000000
   70       -1.102876   1.000000
   71       -1.078078   1.000000
   72       -0.869943   1.000000
   73       -0.779306   1.000000
   74       -0.665863   1.000000
   75       -0.607920   1.000000
   76       -0.529728   1.000000
   77       -0.388833   1.000000
   78       -0.297751   1.000000
   79       -0.274249   1.000000
   80       -0.119541   1.000000
   81        0.017176   1.000000
   82        0.175203   1.000000
   83        0.321211   1.000000
   84        0.371134   1.000000
   85        0.486035   1.000000
   86        0.697940   1.000000
   87        0.760345   1.000000
   88        0.832531   1.000000
   89        1.055949   1.000000
   90        1.081380   1.000000
   91        1.216036   1.000000
   92        1.247185   1.000000
   93        1.333919   1.000000
   94        1.366472   1.000000
   95        1.581579   1.000000
   96        1.782324   1.000001
   97        2.128306   1.008117
   98        2.187004   1.018470
   99        2.277195   1.035357
  100        2.527698   0.498574
  101        2.617934   0.156878
  102        2.835974  -0.025697
  103        2.918087  -0.009260
  104        2.986991  -0.002720
  105        3.136961  -0.000071
  106        3.157462  -0.000039
  107        3.222792  -0.000005
  108        3.238255  -0.000003
  109        3.278877  -0.000001
  110        3.336761  -0.000000
  111        3.415962  -0.000000
  112        3.467576  -0.000000
  113        3.538213  -0.000000
  114        3.569761  -0.000000
  115        3.599727  -0.000000
  116        3.656954  -0.000000
  117        3.684485  -0.000000
  118        3.723260  -0.000000
  119        3.773819  -0.000000
  120        3.828062  -0.000000
  121        3.845201  -0.000000
  122        3.909722  -0.000000
  123        3.942401  -0.000000
  124        4.059220  -0.000000
  125        4.098623  -0.000000
  126        4.141303  -0.000000
  127        4.249343  -0.000000
  128        4.260947  -0.000000
  129        4.323408  -0.000000
  130        4.543545  -0.000000
  131        4.627949  -0.000000
  132        4.776630  -0.000000

  0.3333333E+00  0.3939838E-15  0.1262379E-14  0.2469136E-01
    1      -11.160916   1.000000
    2      -10.629041   1.000000
    3       -9.931959   1.000000
    4       -9.725354   1.000000
    5       -9.387204   1.000000
    6       -9.114320   1.000000
    7       -9.016629   1.000000
    8       -8.541835   1.000000
    9       -8.498337   1.000000
   10       -8.467492   1.000000
   11       -8.453519   1.000000
   12       -8.310761   1.000000
   13       -8.230186   1.000000
   14       -8.137497   1.000000
   15       -7.619394   1.000000
   16       -7.575063   1.000000
   17       -7.289493   1.000000
   18       -6.742938   1.000000
   19       -6.688701   1.000000
   20       -6.324225   1.000000
   21       -6.187911   1.000000
   22       -6.151741   1.000000
   23       -6.006213   1.000000
   24       -5.967749   1.000000
   25       -5.880251   1.000000
   26       -5.700883   1.000000
   27       -5.260920   1.000000
   28       -5.134208   1.000000
   29       -4.903120   1.000000
   30       -4.830877   1.000000
   31       -4.656541   1.000000
   32       -4.364556   1.000000
   33       -4.282955   1.000000
   34       -4.077548   1.000000
   35       -3.945385   1.000000
   36       -3.892380   1.000000
   37       -3.811265   1.000000
   38       -3.767617   1.000000
   39       -3.732580   1.000000
   40       -3.634252   1.000000
   41       -3.601462   1.000000
   42       -3.506855   1.000000
   43       -3.279991   1.000000
   44       -3.006977   1.000000
   45       -2.890521   1.000000
   46       -2.836950   1.000000
   47       -2.717411   1.000000
   48       -2.618963   1.000000
   49       -2.569969   1.000000
   50       -2.438691   1.000000
   51       -2.358385   1.000000
   52       -2.303389   1.000000
   53       -2.245310   1.000000
   54       -2.184260   1.000000
   55       -2.147025   1.000000
   56       -2.109785   1.000000
   57       -2.005161   1.000000
   58       -1.971293   1.000000
   59       -1.949351   1.000000
   60       -1.814567   1.000000
   61       -1.785130   1.000000
   62       -1.710147   1.000000
   63       -1.627332   1.000000
   64       -1.597904   1.000000
   65       -1.554375   1.000000
   66       -1.475901   1.000000
   67       -1.434844   1.000000
   68       -1.354200   1.000000
   69       -1.273342   1.000000
   70       -1.233250   1.000000
   71       -1.172210   1.000000
   72       -0.903620   1.000000
   73       -0.849269   1.000000
   74       -0.761244   1.000000
   75       -0.668255   1.000000
   76       -0.585012   1.000000
   77       -0.538773   1.000000
   78       -0.448546   1.000000
   79       -0.259739   1.000000
   80       -0.210870   1.000000
   81       -0.042999   1.000000
   82        0.093201   1.000000
   83        0.222870   1.000000
   84        0.399359   1.000000
   85        0.482168   1.000000
   86        0.622244   1.000000
   87        0.689417   1.000000
   88        0.800350   1.000000
   89        0.925495   1.000000
   90        0.988232   1.000000
   91        1.091150   1.000000
   92        1.192413   1.000000
   93        1.254554   1.000000
   94        1.304121   1.000000
   95        1.485513   1.000000
   96        1.921748   1.000080
   97        1.972157   1.000309
   98        2.033053   1.001314
   99        2.097618   1.004802
  100        2.423198   0.881313
  101        2.622162   0.144511
  102        2.670027   0.035558
  103        2.765371  -0.035263
  104        2.845534  -0.023488
  105        2.920499  -0.008918
  106        3.033745  -0.001003
  107        3.090293  -0.000253
  108        3.156283  -0.000041
  109        3.189216  -0.000015
  110        3.276546  -0.000001
  111        3.328020  -0.000000
  112        3.373929  -0.000000
  113        3.403977  -0.000000
  114        3.507602  -0.000000
  115        3.533625  -0.000000
  116        3.634836  -0.000000
  117        3.687239  -0.000000
  118        3.733413  -0.000000
  119        3.783144  -0.000000
  120        3.859325  -0.000000
  121        3.872488  -0.000000
  122        3.953034  -0.000000
  123        4.021126  -0.000000
  124        4.054639  -0.000000
  125        4.104168  -0.000000
  126        4.159514  -0.000000
  127        4.214382  -0.000000
  128        4.368572  -0.000000
  129        4.444842  -0.000000
  130        4.575128  -0.000000
  131        4.624656  -0.000000
  132        4.696704  -0.000000

  0.4444444E+00  0.3881204E-15  0.1262379E-14  0.2469136E-01
    1      -10.807278   1.000000
    2      -10.304782   1.000000
    3      -10.245800   1.000000
    4       -9.842559   1.000000
    5       -9.688438   1.000000
    6       -9.388507   1.000000
    7       -8.923153   1.000000
    8       -8.551375   1.000000
    9       -8.544045   1.000000
   10       -8.521314   1.000000
   11       -8.387477   1.000000
   12       -8.297335   1.000000
   13       -8.269330   1.000000
   14       -8.127779   1.000000
   15       -7.948252   1.000000
   16       -7.780040   1.000000
   17       -7.363962   1.000000
   18       -6.693985   1.000000
   19       -6.574002   1.000000
   20       -6.166101   1.000000
   21       -6.041666   1.000000
   22       -5.913726   1.000000
   23       -5.834528   1.000000
   24       -5.801971   1.000000
   25       -5.734242   1.000000
   26       -5.625064   1.000000
   27       -4.733504   1.000000
   28       -4.647891   1.000000
   29       -4.438010   1.000000
   30       -4.388659   1.000000
   31       -4.353224   1.000000
   32       -4.273772   1.000000
   33       -4.158445   1.000000
   34       -4.119734   1.000000
   35       -4.065082   1.000000
   36       -4.006702   1.000000
   37       -3.959289   1.000000
   38       -3.887153   1.000000
   39       -3.767943   1.000000
   40       -3.732413   1.000000
   41       -3.681616   1.000000
   42       -3.534265   1.000000
   43       -3.503780   1.000000
   44       -3.391134   1.000000
   45       -3.016201   1.000000
   46       -2.879971   1.000000
   47       -2.725428   1.000000
   48       -2.681120   1.000000
   49       -2.582219   1.000000
   50       -2.551087   1.000000
   51       -2.372629   1.000000
   52       -2.312561   1.000000
   53       -2.290189   1.000000
   54       -2.238950   1.000000
   55       -2.221604   1.000000
   56       -2.177910   1.000000
   57       -2.119563   1.000000
   58       -2.053844   1.000000
   59       -2.007862   1.000000
   60       -1.941700   1.000000
   61       -1.840562   1.000000
   62       -1.749516   1.000000
   63       -1.699274   1.000000
   64       -1.678888   1.000000
   65       -1.630074   1.000000
   66       -1.548682   1.000000
   67       -1.511395   1.000000
   68       -1.377645   1.000000
   69       -1.319790   1.000000
   70       -1.246903   1.000000
   71       -1.199508   1.000000
   72       -0.956518   1.000000
   73       -0.846764   1.000000
   74       -0.810015   1.000000
   75       -0.742206   1.000000
   76       -0.687809   1.000000
   77       -0.606324   1.000000
   78       -0.516939   1.000000
   79       -0.334471   1.000000
   80       -0.173370   1.000000
   81       -0.086339   1.000000
   82        0.019102   1.000000
   83        0.284034   1.000000
   84        0.431952   1.000000
   85        0.477269   1.000000
   86        0.570901   1.000000
   87        0.664518   1.000000
   88        0.743003   1.000000
   89        0.894433   1.000000
   90        0.953741   1.000000
   91        0.982078   1.000000
   92        1.164804   1.000000
   93        1.199700   1.000000
   94        1.351962   1.000000
   95        1.599672   1.000000
   96        1.883935   1.000026
   97        1.958211   1.000216
   98        2.069877   1.002838
   99        2.115068   1.006522
  100        2.142166   1.010080
  101        2.231477   1.028559
  102        2.453489   0.790192
  103        2.539109   0.450383
  104        2.708291  -0.012195
  105        2.835360  -0.025838
  106        2.878367  -0.016218
  107        3.003014  -0.001960
  108        3.058010  -0.000568
  109        3.111353  -0.000145
  110        3.181063  -0.000019
  111        3.247865  -0.000002
  112        3.276241  -0.000001
  113        3.325826  -0.000000
  114        3.398434  -0.000000
  115        3.481286  -0.000000
  116        3.588239  -0.000000
  117        3.652058  -0.000000
  118        3.684218  -0.000000
  119        3.764630  -0.000000
  120        3.882147  -0.000000
  121        3.902524  -0.000000
  122        3.967803  -0.000000
  123        4.064333  -0.000000
  124        4.172611  -0.000000
  125        4.192467  -0.000000
  126        4.266254  -0.000000
  127        4.376911  -0.000000
  128        4.403488  -0.000000
  129        4.642362  -0.000000
  130        4.730655  -0.000000
  131        4.764216  -0.000000
  132        4.894037  -0.000000

  0.3742002E-15  0.1111111E+00  0.1262379E-14  0.2469136E-01
    1      -11.605641   1.000000
    2      -11.034920   1.000000
    3      -10.241195   1.000000
    4       -9.226694   1.000000
    5       -8.817373   1.000000
    6       -8.798839   1.000000
    7       -8.548102   1.000000
    8       -8.420198   1.000000
    9       -8.239327   1.000000
   10       -8.146505   1.000000
   11       -8.119994   1.000000
   12       -8.077709   1.000000
   13       -7.950501   1.000000
   14       -7.908021   1.000000
   15       -7.478257   1.000000
   16       -7.317911   1.000000
   17       -7.258909   1.000000
   18       -7.079000   1.000000
   19       -7.020896   1.000000
   20       -6.930694   1.000000
   21       -6.734968   1.000000
   22       -6.517571   1.000000
   23       -6.332116   1.000000
   24       -6.251566   1.000000
   25       -6.154685   1.000000
   26       -6.047638   1.000000
   27       -5.987534   1.000000
   28       -5.878469   1.000000
   29       -5.706158   1.000000
   30       -5.384595   1.000000
   31       -5.029605   1.000000
   32       -4.754594   1.000000
   33       -4.707424   1.000000
   34       -4.540890   1.000000
   35       -4.467230   1.000000
   36       -4.291186   1.000000
   37       -4.157793   1.000000
   38       -3.755562   1.000000
   39       -3.354948   1.000000
   40       -3.316925   1.000000
   41       -3.235492   1.000000
   42       -3.070911   1.000000
   43       -2.943973   1.000000
   44       -2.818485   1.000000
   45       -2.792388   1.000000
   46       -2.741891   1.000000
   47       -2.656738   1.000000
   48       -2.556935   1.000000
   49       -2.411222   1.000000
   50       -2.328672   1.000000
   51       -2.201119   1.000000
   52       -2.102375   1.000000
   53       -2.046972   1.000000
   54       -2.008102   1.000000
   55       -1.963511   1.000000
   56       -1.933967   1.000000
   57       -1.870286   1.000000
   58       -1.832154   1.000000
   59       -1.813655   1.000000
   60       -1.660054   1.000000
   61       -1.546392   1.000000
   62       -1.506298   1.000000
   63       -1.456261   1.000000
   64       -1.416353   1.000000
   65       -1.285633   1.000000
   66       -1.272866   1.000000
   67       -1.159578   1.000000
   68       -1.118705   1.000000
   69       -0.979733   1.000000
   70       -0.954469   1.000000
   71       -0.862849   1.000000
   72       -0.800422   1.000000
   73       -0.764059   1.000000
   74       -0.679196   1.000000
   75       -0.532082   1.000000
   76       -0.422003   1.000000
   77       -0.362728   1.000000
   78       -0.275923   1.000000
   79       -0.145974   1.000000
   80       -0.066042   1.000000
   81        0.136440   1.000000
   82        0.255739   1.000000
   83        0.392218   1.000000
   84        0.602052   1.000000
   85        0.745748   1.000000
   86        0.765095   1.000000
   87        0.908981   1.000000
   88        1.015385   1.000000
   89        1.193151   1.000000
   90        1.254020   1.000000
   91        1.277562   1.000000
   92        1.313514   1.000000
   93        1.334507   1.000000
   94        1.417642   1.000000
   95        1.549140   1.000000
   96        1.626938   1.000000
   97        2.133875   1.008869
   98        2.264573   1.034375
   99        2.444506   0.819454
  100        2.521794   0.523545
  101        2.611146   0.177618
  102        2.678912   0.021563
  103        2.737903  -0.029768
  104        2.802827  -0.032568
  105        3.110831  -0.000147
  106        3.230112  -0.000004
  107        3.282897  -0.000001
  108        3.396908  -0.000000
  109        3.420208  -0.000000
  110        3.460243  -0.000000
  111        3.485673  -0.000000
  112        3.534872  -0.000000
  113        3.612598  -0.000000
  114        3.642297  -0.000000
  115        3.695986  -0.000000
  116        3.723103  -0.000000
  117        3.750645  -0.000000
  118        3.767481  -0.000000
  119        3.818541  -0.000000
  120        3.843028  -0.000000
  121        3.881488  -0.000000
  122        3.980276  -0.000000
  123        4.008475  -0.000000
  124        4.039578  -0.000000
  125        4.112793  -0.000000
  126        4.151776  -0.000000
  127        4.262116  -0.000000
  128        4.323919  -0.000000
  129        4.439382  -0.000000
  130        4.570433  -0.000000
  131        4.683486  -0.000000
  132        4.929469  -0.000000

  0.1111111E+00  0.1111111E+00  0.1262379E-14  0.2469136E-01
    1      -11.491435   1.000000
    2      -10.930498   1.000000
    3      -10.159878   1.000000
    4       -9.168626   1.000000
    5       -8.864000   1.000000
    6       -8.839860   1.000000
    7       -8.745134   1.000000
    8       -8.694572   1.000000
    9       -8.614612   1.000000
   10       -8.426685   1.000000
   11       -8.385068   1.000000
   12       -8.130292   1.000000
   13       -7.937522   1.000000
   14       -7.587797   1.000000
   15       -7.533377   1.000000
   16       -7.454747   1.000000
   17       -7.070750   1.000000
   18       -7.053086   1.000000
   19       -6.934558   1.000000
   20       -6.871519   1.000000
   21       -6.441007   1.000000
   22       -6.327440   1.000000
   23       -6.266880   1.000000
   24       -6.119510   1.000000
   25       -6.002038   1.000000
   26       -5.967780   1.000000
   27       -5.781478   1.000000
   28       -5.642127   1.000000
   29       -5.562803   1.000000
   30       -5.279455   1.000000
   31       -5.166855   1.000000
   32       -4.848447   1.000000
   33       -4.374634   1.000000
   34       -4.302736   1.000000
   35       -4.259366   1.000000
   36       -4.060467   1.000000
   37       -3.879385   1.000000
   38       -3.717308   1.000000
   39       -3.494704   1.000000
   40       -3.429089   1.000000
   41       -3.297399   1.000000
   42       -3.254551   1.000000
   43       -3.044189   1.000000
   44       -2.983635   1.000000
   45       -2.817000   1.000000
   46       -2.744392   1.000000
   47       -2.608860   1.000000
   48       -2.576424   1.000000
   49       -2.456982   1.000000
   50       -2.369308   1.000000
   51       -2.236213   1.000000
   52       -2.220707   1.000000
   53       -2.023784   1.000000
   54       -2.009293   1.000000
   55       -1.969600   1.000000
   56       -1.954912   1.000000
   57       -1.932207   1.000000
   58       -1.877562   1.000000
   59       -1.772102   1.000000
   60       -1.731112   1.000000
   61       -1.587254   1.000000
   62       -1.548485   1.000000
   63       -1.537138   1.000000
   64       -1.474946   1.000000
   65       -1.378507   1.000000
   66       -1.371627   1.000000
   67       -1.267039   1.000000
   68       -1.241872   1.000000
   69       -1.129647   1.000000
   70       -1.053349   1.000000
   71       -0.913226   1.000000
   72       -0.855075   1.000000
   73       -0.816540   1.000000
   74       -0.791170   1.000000
   75       -0.620676   1.000000
   76       -0.489139   1.000000
   77       -0.356982   1.000000
   78       -0.310768   1.000000
   79       -0.138968   1.000000
   80       -0.102106   1.000000
   81        0.010965   1.000000
   82        0.203218   1.000000
   83        0.305179   1.000000
   84        0.343609   1.000000
   85        0.528318   1.000000
   86        0.732131   1.000000
   87        0.779310   1.000000
   88        1.026385   1.000000
   89        1.139956   1.000000
   90        1.163375   1.000000
   91        1.184031   1.000000
   92        1.230551   1.000000
   93        1.311199   1.000000
   94        1.393919   1.000000
   95        1.456461   1.000000
   96        1.833540   1.000005
   97        2.113380   1.006337
   98        2.292053   1.035076