   70   70   40    1
  0.2230945E+02  0.1053953E-08  0.6141200E-09  0.2412750E-08  0.5000000E-15
   1.0000000000000000E-004
  CAR 
 Name                                    
    265     23    168

  0.3742002E-15  0.3742002E-15  0.1262379E-14  0.2222222E-01
    1      -14.045725   1.000000
    2      -13.058911   1.000000
    3      -12.908395   1.000000
    4      -12.492196   1.000000
    5      -11.929931   1.000000
    6      -11.744292   1.000000
    7      -11.712893   1.000000
    8      -11.694555   1.000000
    9      -11.533563   1.000000
   10      -11.309165   1.000000
   11      -11.180239   1.000000
   12      -11.078962   1.000000
   13      -10.917109   1.000000
   14      -10.506639   1.000000
   15      -10.330585   1.000000
   16      -10.276660   1.000000
   17      -10.186001   1.000000
   18      -10.109797   1.000000
   19       -9.955054   1.000000
   20       -9.735977   1.000000
   21       -9.676868   1.000000
   22       -9.554621   1.000000
   23       -9.326302   1.000000
   24       -9.072935   1.000000
   25       -8.986090   1.000000
   26       -8.819396   1.000000
   27       -8.614423   1.000000
   28       -8.452758   1.000000
   29       -8.328328   1.000000
   30       -8.214012   1.000000
   31       -8.160303   1.000000
   32       -7.899926   1.000000
   33       -7.614520   1.000000
   34       -7.452081   1.000000
   35       -7.282969   1.000000
   36       -7.182576   1.000000
   37       -7.141133   1.000000
   38       -6.960568   1.000000
   39       -6.874111   1.000000
   40       -6.829684   1.000000
   41       -6.762349   1.000000
   42       -6.699199   1.000000
   43       -6.584576   1.000000
   44       -6.521539   1.000000
   45       -6.470083   1.000000
   46       -6.399046   1.000000
   47       -6.227069   1.000000
   48       -6.142776   1.000000
   49       -6.113680   1.000000
   50       -5.954181   1.000000
   51       -5.871021   1.000000
   52       -5.817872   1.000000
   53       -5.782802   1.000000
   54       -5.724970   1.000000
   55       -5.658099   1.000000
   56       -5.574380   1.000000
   57       -5.511989   1.000000
   58       -5.308631   1.000000
   59       -5.292643   1.000000
   60       -5.220741   1.000000
   61       -5.118226   1.000000
   62       -4.984287   1.000000
   63       -4.848279   1.000000
   64       -4.813857   1.000000
   65       -4.739989   1.000000
   66       -4.676723   1.000000
   67       -4.640821   1.000000
   68       -4.615358   1.000000
   69       -4.587751   1.000000
   70       -4.556059   1.000000
   71       -4.420610   1.000000
   72       -4.361815   1.000000
   73       -4.341128   1.000000
   74       -4.297145   1.000000
   75       -4.154398   1.000000
   76       -4.101256   1.000000
   77       -4.094917   1.000000
   78       -3.938637   1.000000
   79       -3.858992   1.000000
   80       -3.836980   1.000000
   81       -3.752146   1.000000
   82       -3.717930   1.000000
   83       -3.574816   1.000000
   84       -3.476850   1.000000
   85       -3.471641   1.000000
   86       -3.445287   1.000000
   87       -3.403298   1.000000
   88       -3.342245   1.000000
   89       -3.289992   1.000000
   90       -3.216323   1.000000
   91       -3.188167   1.000000
   92       -3.059063   1.000000
   93       -3.018133   1.000000
   94       -2.951719   1.000000
   95       -2.826750   1.000000
   96       -2.781567   1.000000
   97       -2.771262   1.000000
   98       -2.664404   1.000000
   99       -2.559053   1.000000
  100       -2.536105   1.000000
  101       -2.439636   1.000000
  102       -2.431226   1.000000
  103       -2.398791   1.000000
  104       -2.280324   1.000000
  105       -2.265745   1.000000
  106       -2.211167   1.000000
  107       -2.197984   1.000000
  108       -2.134612   1.000000
  109       -2.099892   1.000000
  110       -2.082601   1.000000
  111       -1.887874   1.000000
  112       -1.875392   1.000000
  113       -1.811071   1.000000
  114       -1.678361   1.000000
  115       -1.512391   1.000000
  116       -1.413870   1.000000
  117       -1.365717   1.000000
  118       -1.244047   1.000000
  119       -1.185587   1.000000
  120       -1.065657   1.000000
  121       -1.028048   1.000000
  122       -1.013085   1.000000
  123       -0.757067   1.000001
  124       -0.623534   1.000070
  125       -0.579302   1.000234
  126       -0.441316   1.004946
  127       -0.403115   1.009379
  128       -0.292719   1.031862
  129       -0.260495   1.035437
  130       -0.154473   0.962059
  131       -0.133062   0.919682
  132       -0.113726   0.871511
  133       -0.042157   0.621073
  134        0.076240   0.160236
  135        0.097540   0.101821
  136        0.129730   0.035099
  137        0.141284   0.017334
  138        0.194587  -0.028714
  139        0.254199  -0.033798
  140        0.305216  -0.023430
  141        0.458713  -0.002119
  142        0.555062  -0.000221
  143        0.585874  -0.000096
  144        0.648148  -0.000015
  145        0.714804  -0.000002
  146        0.808373  -0.000000
  147        0.873648  -0.000000
  148        0.928039  -0.000000
  149        0.989586  -0.000000
  150        1.048002  -0.000000
  151        1.050936  -0.000000
  152        1.091114  -0.000000
  153        1.143745  -0.000000
  154        1.157756  -0.000000
  155        1.187470  -0.000000
  156        1.209300  -0.000000
  157        1.244315  -0.000000
  158        1.278043  -0.000000
  159        1.318138  -0.000000
  160        1.328394  -0.000000
  161        1.367324  -0.000000
  162        1.438225  -0.000000
  163        1.464699  -0.000000
  164        1.478401  -0.000000
  165        1.530303  -0.000000
  166        1.587766  -0.000000
  167        1.604290  -0.000000
  168        1.640590  -0.000000

  0.2000000E+00  0.3742002E-15  0.1262379E-14  0.4444444E-01
    1      -14.005237   1.000000
    2      -13.300890   1.000000
    3      -12.779231   1.000000
    4      -12.266937   1.000000
    5      -12.064516   1.000000
    6      -11.919162   1.000000
    7      -11.749966   1.000000
    8      -11.505002   1.000000
    9      -11.352690   1.000000
   10      -11.318251   1.000000
   11      -11.144878   1.000000
   12      -11.001913   1.000000
   13      -10.908534   1.000000
   14      -10.673677   1.000000
   15      -10.569868   1.000000
   16      -10.412497   1.000000
   17      -10.282808   1.000000
   18      -10.117657   1.000000
   19       -9.811282   1.000000
   20       -9.730218   1.000000
   21       -9.523273   1.000000
   22       -9.505020   1.000000
   23       -9.374628   1.000000
   24       -9.122049   1.000000
   25       -9.030902   1.000000
   26       -8.802631   1.000000
   27       -8.411376   1.000000
   28       -8.335912   1.000000
   29       -8.189857   1.000000
   30       -8.163027   1.000000
   31       -8.116377   1.000000
   32       -8.084004   1.000000
   33       -7.577106   1.000000
   34       -7.500319   1.000000
   35       -7.444286   1.000000
   36       -7.261767   1.000000
   37       -7.217181   1.000000
   38       -7.052754   1.000000
   39       -6.917230   1.000000
   40       -6.840049   1.000000
   41       -6.759671   1.000000
   42       -6.704524   1.000000
   43       -6.629178   1.000000
   44       -6.530248   1.000000
   45       -6.447215   1.000000
   46       -6.342109   1.000000
   47       -6.174025   1.000000
   48       -6.120718   1.000000
   49       -6.040803   1.000000
   50       -5.980596   1.000000
   51       -5.890010   1.000000
   52       -5.832152   1.000000
   53       -5.754189   1.000000
   54       -5.636333   1.000000
   55       -5.584102   1.000000
   56       -5.490168   1.000000
   57       -5.463858   1.000000
   58       -5.412272   1.000000
   59       -5.283495   1.000000
   60       -5.250894   1.000000
   61       -5.129549   1.000000
   62       -4.969166   1.000000
   63       -4.901686   1.000000
   64       -4.809398   1.000000
   65       -4.790426   1.000000
   66       -4.692055   1.000000
   67       -4.629128   1.000000
   68       -4.583320   1.000000
   69       -4.540621   1.000000
   70       -4.502583   1.000000
   71       -4.472250   1.000000
   72       -4.364008   1.000000
   73       -4.341974   1.000000
   74       -4.261260   1.000000
   75       -4.154886   1.000000
   76       -4.097654   1.000000
   77       -4.011307   1.000000
   78       -3.972942   1.000000
   79       -3.941048   1.000000
   80       -3.856265   1.000000
   81       -3.769826   1.000000
   82       -3.654087   1.000000
   83       -3.576166   1.000000
   84       -3.542897   1.000000
   85       -3.512012   1.000000
   86       -3.443634   1.000000
   87       -3.424409   1.000000
   88       -3.366040   1.000000
   89       -3.261803   1.000000
   90       -3.231890   1.000000
   91       -3.153776   1.000000
   92       -3.117165   1.000000
   93       -3.097033   1.000000
   94       -2.964493   1.000000
   95       -2.832136   1.000000
   96       -2.789815   1.000000
   97       -2.676228   1.000000
   98       -2.651131   1.000000
   99       -2.593886   1.000000
  100       -2.558269   1.000000
  101       -2.441610   1.000000
  102       -2.383494   1.000000
  103       -2.356426   1.000000
  104       -2.289968   1.000000
  105       -2.256048   1.000000
  106       -2.178896   1.000000
  107       -2.151646   1.000000
  108       -2.100812   1.000000
  109       -2.071777   1.000000
  110       -2.011250   1.000000
  111       -1.913584   1.000000
  112       -1.843067   1.000000
  113       -1.737505   1.000000
  114       -1.673808   1.000000
  115       -1.517724   1.000000
  116       -1.443939   1.000000
  117       -1.403529   1.000000
  118       -1.273070   1.000000
  119       -1.210300   1.000000
  120       -1.101940   1.000000
  121       -1.070718   1.000000
  122       -1.023382   1.000000
  123       -0.808385   1.000000
  124       -0.679509   1.000013
  125       -0.554395   1.000440
  126       -0.469200   1.002923
  127       -0.429998   1.006039
  128       -0.359989   1.017095
  129       -0.313572   1.027571
  130       -0.225248   1.030299
  131       -0.196198   1.013900
  132       -0.117783   0.882396
  133       -0.059824   0.691423
  134        0.041993   0.275991
  135        0.113369   0.065770
  136        0.162566  -0.007567
  137        0.168583  -0.012919
  138        0.278950  -0.029359
  139        0.305345  -0.023400
  140        0.370344  -0.010332
  141        0.434451  -0.003438
  142        0.551811  -0.000240
  143        0.609881  -0.000048
  144        0.695350  -0.000003
  145        0.773756  -0.000000
  146        0.857305  -0.000000
  147        0.888058  -0.000000
  148        0.913730  -0.000000
  149        0.952907  -0.000000
  150        0.997896  -0.000000
  151        1.047506  -0.000000
  152        1.095242  -0.000000
  153        1.165755  -0.000000
  154        1.190557  -0.000000
  155        1.207454  -0.000000
  156        1.252185  -0.000000
  157        1.269395  -0.000000
  158        1.298755  -0.000000
  159        1.328185  -0.000000
  160        1.348741  -0.000000
  161        1.410986  -0.000000
  162        1.453570  -0.000000
  163        1.482529  -0.000000
  164        1.499369  -0.000000
  165        1.537997  -0.000000
  166        1.596056  -0.000000
  167        1.606920  -0.000000
  168        1.619958  -0.000000

  0.4000000E+00  0.3742002E-15  0.1262379E-14  0.4444444E-01
    1      -13.903381   1.000000
    2      -13.554863   1.000000
    3      -12.654953   1.000000
    4      -12.328330   1.000000
    5      -11.901518   1.000000
    6      -11.800691   1.000000
    7      -11.788317   1.000000
    8      -11.466738   1.000000
    9      -11.336284   1.000000
   10      -11.242429   1.000000
   11      -11.116689   1.000000
   12      -11.068497   1.000000
   13      -10.899729   1.000000
   14      -10.784816   1.000000
   15      -10.676328   1.000000
   16      -10.567299   1.000000
   17      -10.292932   1.000000
   18      -10.117480   1.000000
   19      -10.061106   1.000000
   20       -9.802126   1.000000
   21       -9.485360   1.000000
   22       -9.439812   1.000000
   23       -9.224343   1.000000
   24       -8.995142   1.000000
   25       -8.950261   1.000000
   26       -8.782987   1.000000
   27       -8.451188   1.000000
   28       -8.241424   1.000000
   29       -8.064244   1.000000
   30       -7.970093   1.000000
   31       -7.935880   1.000000
   32       -7.830340   1.000000
   33       -7.754010   1.000000
   34       -7.716522   1.000000
   35       -7.572492   1.000000
   36       -7.527937   1.000000
   37       -7.366812   1.000000
   38       -7.234901   1.000000
   39       -7.116022   1.000000
   40       -6.887194   1.000000
   41       -6.715925   1.000000
   42       -6.625739   1.000000
   43       -6.593841   1.000000
   44       -6.501254   1.000000
   45       -6.329259   1.000000
   46       -6.216885   1.000000
   47       -6.140139   1.000000
   48       -6.127118   1.000000
   49       -6.037570   1.000000
   50       -6.009421   1.000000
   51       -5.900248   1.000000
   52       -5.799666   1.000000
   53       -5.716012   1.000000
   54       -5.629894   1.000000
   55       -5.573125   1.000000
   56       -5.530060   1.000000
   57       -5.420484   1.000000
   58       -5.314624   1.000000
   59       -5.246975   1.000000
   60       -5.232771   1.000000
   61       -5.153617   1.000000
   62       -4.983395   1.000000
   63       -4.856950   1.000000
   64       -4.842080   1.000000
   65       -4.771992   1.000000
   66       -4.733546   1.000000
   67       -4.643217   1.000000
   68       -4.619107   1.000000
   69       -4.560408   1.000000
   70       -4.477600   1.000000
   71       -4.426143   1.000000
   72       -4.391467   1.000000
   73       -4.234482   1.000000
   74       -4.200684   1.000000
   75       -4.140210   1.000000
   76       -4.070393   1.000000
   77       -4.044053   1.000000
   78       -4.016428   1.000000
   79       -3.986334   1.000000
   80       -3.848257   1.000000
   81       -3.778823   1.000000
   82       -3.682816   1.000000
   83       -3.646736   1.000000
   84       -3.600655   1.000000
   85       -3.559820   1.000000
   86       -3.485834   1.000000
   87       -3.379411   1.000000
   88       -3.345407   1.000000
   89       -3.264838   1.000000
   90       -3.251293   1.000000
   91       -3.219030   1.000000
   92       -3.093530   1.000000
   93       -3.066653   1.000000
   94       -3.014586   1.000000
   95       -2.972298   1.000000
   96       -2.801418   1.000000
   97       -2.717951   1.000000
   98       -2.669686   1.000000
   99       -2.581529   1.000000
  100       -2.469781   1.000000
  101       -2.432023   1.000000
  102       -2.369175   1.000000
  103       -2.345304   1.000000
  104       -2.209307   1.000000
  105       -2.133275   1.000000
  106       -2.121712   1.000000
  107       -2.066390   1.000000
  108       -2.026913   1.000000
  109       -1.996316   1.000000
  110       -1.963437   1.000000
  111       -1.838724   1.000000
  112       -1.781331   1.000000
  113       -1.700214   1.000000
  114       -1.669919   1.000000
  115       -1.629742   1.000000
  116       -1.499353   1.000000
  117       -1.463951   1.000000
  118       -1.355419   1.000000
  119       -1.228433   1.000000
  120       -1.157417   1.000000
  121       -1.123534   1.000000
  122       -1.002721   1.000000
  123       -0.889984   1.000000
  124       -0.788059   1.000000
  125       -0.597140   1.000145
  126       -0.498010   1.001615
  127       -0.464401   1.003211
  128       -0.458246   1.003615
  129       -0.400010   1.009837
  130       -0.325070   1.024949
  131       -0.250408   1.035214
  132       -0.141776   0.938308
  133        0.018067   0.369435
  134        0.060058   0.211837
  135        0.114557   0.063319
  136        0.154740   0.000470
  137        0.211289  -0.033614
  138        0.298170  -0.025060
  139        0.365633  -0.011082
  140        0.402348  -0.006168
  141        0.518325  -0.000556
  142        0.572134  -0.000140
  143        0.666046  -0.000009
  144        0.711849  -0.000002
  145        0.781872  -0.000000
  146        0.800764  -0.000000
  147        0.931387  -0.000000
  148        0.960011  -0.000000
  149        1.034805  -0.000000
  150        1.056657  -0.000000
  151        1.082624  -0.000000
  152        1.111496  -0.000000
  153        1.138569  -0.000000
  154        1.188708  -0.000000
  155        1.221319  -0.000000
  156        1.247531  -0.000000
  157        1.276217  -0.000000
  158        1.324571  -0.000000
  159        1.353388  -0.000000
  160        1.391707  -0.000000
  161        1.471238  -0.000000
  162        1.493609  -0.000000
  163        1.516556  -0.000000
  164        1.542603  -0.000000
  165        1.564836  -0.000000
  166        1.602402  -0.000000
  167        1.622616  -0.000000
  168        1.714378  -0.000000

  0.3742002E-15  0.1111111E+00  0.1262379E-14  0.4444444E-01
    1      -14.000028   1.000000
    2      -13.019864   1.000000
    3      -12.873698   1.000000
    4      -12.462011   1.000000
    5      -12.025424   1.000000
    6      -11.752825   1.000000
    7      -11.706084   1.000000
    8      -11.673083   1.000000
    9      -11.577715   1.000000
   10      -11.330672   1.000000
   11      -11.189335   1.000000
   12      -11.052806   1.000000
   13      -10.944172   1.000000
   14      -10.503289   1.000000
   15      -10.320412   1.000000
   16      -10.275350   1.000000
   17      -10.179665   1.000000
   18      -10.110838   1.000000
   19       -9.928432   1.000000
   20       -9.764850   1.000000
   21       -9.671296   1.000000
   22       -9.554937   1.000000
   23       -9.320012   1.000000
   24       -9.106971   1.000000
   25       -9.001699   1.000000
   26       -8.797817   1.000000
   27       -8.607551   1.000000
   28       -8.457254   1.000000
   29       -8.342985   1.000000
   30       -8.236008   1.000000
   31       -8.012615   1.000000
   32       -7.909519   1.000000
   33       -7.696806   1.000000
   34       -7.495100   1.000000
   35       -7.352805   1.000000
   36       -7.274073   1.000000
   37       -7.110620   1.000000
   38       -6.910023   1.000000
   39       -6.845446   1.000000
   40       -6.808449   1.000000
   41       -6.757322   1.000000
   42       -6.655430   1.000000
   43       -6.565020   1.000000
   44       -6.504480   1.000000
   45       -6.446799   1.000000
   46       -6.395313   1.000000
   47       -6.238525   1.000000
   48       -6.161653   1.000000
   49       -6.069503   1.000000
   50       -5.946860   1.000000
   51       -5.877935   1.000000
   52       -5.850691   1.000000
   53       -5.785194   1.000000
   54       -5.721487   1.000000
   55       -5.637028   1.000000
   56       -5.474514   1.000000
   57       -5.432104   1.000000
   58       -5.346303   1.000000
   59       -5.278122   1.000000
   60       -5.169223   1.000000
   61       -5.089208   1.000000
   62       -4.969979   1.000000
   63       -4.854690   1.000000
   64       -4.822162   1.000000
   65       -4.745036   1.000000
   66       -4.708321   1.000000
   67       -4.668139   1.000000
   68       -4.638736   1.000000
   69       -4.596758   1.000000
   70       -4.521180   1.000000
   71       -4.403724   1.000000
   72       -4.349331   1.000000
   73       -4.325753   1.000000
   74       -4.289962   1.000000
   75       -4.172872   1.000000
   76       -4.115692   1.000000
   77       -4.056292   1.000000
   78       -3.966110   1.000000
   79       -3.918840   1.000000
   80       -3.861079   1.000000
   81       -3.807471   1.000000
   82       -3.723907   1.000000
   83       -3.634487   1.000000
   84       -3.603395   1.000000
   85       -3.505383   1.000000
   86       -3.416594   1.000000
   87       -3.379602   1.000000
   88       -3.329016   1.000000
   89       -3.288151   1.000000
   90       -3.248334   1.000000
   91       -3.192326   1.000000
   92       -3.126844   1.000000
   93       -3.036414   1.000000
   94       -2.951184   1.000000
   95       -2.846523   1.000000
   96       -2.814228   1.000000
   97       -2.751476   1.000000
   98       -2.657319   1.000000
   99       -2.624332   1.000000
  100       -2.527000   1.000000
  101       -2.493890   1.000000
  102       -2.448680   1.000000
  103       -2.390264   1.000000
  104       -2.327051   1.000000
  105       -2.279173   1.000000
  106       -2.253951   1.000000
  107       -2.186390   1.000000
  108       -2.094159   1.000000
  109       -2.034725   1.000000
  110       -2.021948   1.000000
  111       -1.938399   1.000000
  112       -1.823696   1.000000
  113       -1.770305   1.000000
  114       -1.661373   1.000000
  115       -1.537025   1.000000
  116       -1.443177   1.000000
  117       -1.373875   1.000000
  118       -1.296375   1.000000
  119       -1.124467   1.000000
  120       -1.062856   1.000000
  121       -1.029486   1.000000
  122       -0.905335   1.000000
  123       -0.747264   1.000001
  124       -0.678529   1.000013
  125       -0.554560   1.000438
  126       -0.420529   1.007090
  127       -0.388097   1.011739
  128       -0.366397   1.015775
  129       -0.295049   1.031431
  130       -0.264265   1.035320
  131       -0.205051   1.020359
  132       -0.088135   0.793716
  133        0.014911   0.382303
  134        0.038621   0.288638
  135        0.126199   0.041163
  136        0.150490   0.005369
  137        0.187641  -0.025563
  138        0.245328  -0.034810
  139        0.330223  -0.017806
  140        0.362988  -0.011518
  141        0.475706  -0.001478
  142        0.548492  -0.000262
  143        0.639523  -0.000020
  144        0.666780  -0.000008
  145        0.729292  -0.000001
  146        0.789756  -0.000000
  147        0.842627  -0.000000
  148        0.887968  -0.000000
  149        0.970950  -0.000000
  150        1.023801  -0.000000
  151        1.043100  -0.000000
  152        1.079354  -0.000000
  153        1.125984  -0.000000
  154        1.149926  -0.000000
  155        1.181334  -0.000000
  156        1.229046  -0.000000
  157        1.247055  -0.000000
  158        1.293925  -0.000000
  159        1.302360  -0.000000
  160        1.346494  -0.000000
  161        1.376276  -0.000000
  162        1.414972  -0.000000
  163        1.438949  -0.000000
  164        1.461580  -0.000000
  165        1.528696  -0.000000
  166        1.558443  -0.000000
  167        1.591064  -0.000000
  168        1.634571  -0.000000

  0.2000000E+00  0.1111111E+00  0.1262379E-14  0.4444444E-01
    1      -13.959951   1.000000
    2      -13.261161   1.000000
    3      -12.742584   1.000000
    4      -12.245000   1.000000
    5      -12.033740   1.000000
    6      -12.007532   1.000000
    7      -11.795636   1.000000
    8      -11.540615   1.000000
    9      -11.355001   1.000000
   10      -11.312486   1.000000
   11      -11.156591   1.000000
   12      -10.978645   1.000000
   13      -10.931508   1.000000
   14      -10.653684   1.000000
   15      -10.568947   1.000000
   16      -10.391041   1.000000
   17      -10.298423   1.000000
   18      -10.123113   1.000000
   19       -9.807944   1.000000
   20       -9.722732   1.000000
   21       -9.545047   1.000000
   22       -9.486397   1.000000
   23       -9.374938   1.000000
   24       -9.127753   1.000000
   25       -9.056521   1.000000
   26       -8.798712   1.000000
   27       -8.423224   1.000000
   28       -8.335496   1.000000
   29       -8.207443   1.000000
   30       -8.162486   1.000000
   31       -8.105822   1.000000
   32       -7.961802   1.000000
   33       -7.657256   1.000000
   34       -7.577581   1.000000
   35       -7.457760   1.000000
   36       -7.308274   1.000000
   37       -7.123554   1.000000
   38       -7.030703   1.000000
   39       -6.925405   1.000000
   40       -6.823634   1.000000
   41       -6.780716   1.000000
   42       -6.696421   1.000000
   43       -6.600371   1.000000
   44       -6.522113   1.000000
   45       -6.466623   1.000000
   46       -6.425119   1.000000
   47       -6.212525   1.000000
   48       -6.070580   1.000000
   49       -5.980062   1.000000
   50       -5.928177   1.000000
   51       -5.875627   1.000000
   52       -5.814252   1.000000
   53       -5.738245   1.000000
   54       -5.638529   1.000000
   55       -5.547200   1.000000
   56       -5.489429   1.000000
   57       -5.432669   1.000000
   58       -5.365644   1.000000
   59       -5.274897   1.000000
   60       -5.214123   1.000000
   61       -5.107903   1.000000
   62       -4.961301   1.000000
   63       -4.882049   1.000000
   64       -4.834564   1.000000
   65       -4.776072   1.000000
   66       -4.685939   1.000000
   67       -4.637751   1.000000
   68       -4.624510   1.000000
   69       -4.567693   1.000000
   70       -4.462664   1.000000
   71       -4.439215   1.000000
   72       -4.413962   1.000000
   73       -4.332918   1.000000
   74       -4.221494   1.000000
   75       -4.166024   1.000000
   76       -4.106418   1.000000
   77       -4.026254   1.000000
   78       -4.002875   1.000000
   79       -3.962214   1.000000
   80       -3.851072   1.000000
   81       -3.787542   1.000000
   82       -3.729715   1.000000
   83       -3.654727   1.000000
   84       -3.599100   1.000000
   85       -3.550869   1.000000
   86       -3.456952   1.000000
   87       -3.382041   1.000000
   88       -3.344568   1.000000
   89       -3.297823   1.000000
   90       -3.246387   1.000000
   91       -3.209746   1.000000
   92       -3.153972   1.000000
   93       -3.086919   1.000000
   94       -2.924285   1.000000
   95       -2.871626   1.000000
   96       -2.784272   1.000000
   97       -2.690645   1.000000
   98       -2.678701   1.000000
   99       -2.577796   1.000000
  100       -2.558188   1.000000
  101       -2.450791   1.000000
  102       -2.444913   1.000000
  103       -2.383077   1.000000
  104       -2.356670   1.000000
  105       -2.310612   1.000000
  106       -2.211035   1.000000
  107       -2.140910   1.000000
  108       -2.054033   1.000000
  109       -2.021000   1.000000
  110       -1.965794   1.000000
  111       -1.892184   1.000000
  112       -1.853385   1.000000
  113       -1.786969   1.000000
  114       -1.617769   1.000000
  115       -1.532003   1.000000
  116       -1.490086   1.000000
  117       -1.373326   1.000000
  118       -1.325788   1.000000
  119       -1.191580   1.000000
  120       -1.128291   1.000000
  121       -0.998629   1.000000
  122       -0.962728   1.000000
  123       -0.791248   1.000000
  124       -0.685800   1.000011
  125       -0.538064   1.000653
  126       -0.496346   1.001674
  127       -0.410067   1.008408
  128       -0.356584   1.017818
  129       -0.330405   1.023715
  130       -0.284156   1.033290
  131       -0.205577   1.020700
  132       -0.112389   0.867834
  133       -0.006451   0.471419
  134        0.054982   0.229209
  135        0.095306   0.107418
  136        0.153785   0.001538
  137        0.229749  -0.035442
  138        0.284436  -0.028173
  139        0.332046  -0.017417
  140        0.440087  -0.003082
  141        0.471911  -0.001604
  142        0.535329  -0.000366
  143        0.634225  -0.000023
  144        0.690558  -0.000004
  145        0.782913  -0.000000
  146        0.812116  -0.000000
  147        0.873034  -0.000000
  148        0.930403  -0.000000
  149        0.947588  -0.000000
  150        1.017242  -0.000000
  151        1.059672  -0.000000
  152        1.108178  -0.000000
  153        1.141840  -0.000000
  154        1.160560  -0.000000
  155        1.196699  -0.000000
  156        1.223281  -0.000000
  157        1.261269  -0.000000
  158        1.276620  -0.000000
  159        1.314994  -0.000000
  160        1.377110  -0.000000
  161        1.398123  -0.000000
  162        1.436157  -0.000000
  163        1.457601  -0.000000
  164        1.504971  -0.000000
  165        1.527524  -0.000000
  166        1.561824  -0.000000
  167        1.603463  -0.000000
  168        1.667322  -0.000000

  0.4000000E+00  0.1111111E+00  0.1262379E-14  0.4444444E-01
    1      -13.858879   1.000000
    2      -13.513313   1.000000
    3      -12.619138   1.000000
    4      -12.296167   1.000000
    5      -11.992668   1.000000
    6      -11.863334   1.000000
    7      -11.758841   1.000000
    8      -11.494960   1.000000
    9      -11.357596   1.000000
   10      -11.216162   1.000000
   11      -11.110479   1.000000
   12      -11.060747   1.000000
   13      -10.926698   1.000000
   14      -10.762025   1.000000
   15      -10.679685   1.000000
   16      -10.544701   1.000000
   17      -10.303525   1.000000
   18      -10.118642   1.000000
   19      -10.054922   1.000000
   20       -9.815343   1.000000
   21       -9.498480   1.000000
   22       -9.415683   1.000000
   23       -9.226575   1.000000
   24       -9.025632   1.000000
   25       -8.950360   1.000000
   26       -8.773350   1.000000
   27       -8.457261   1.000000
   28       -8.267396   1.000000
   29       -8.070166   1.000000
   30       -7.963494   1.000000
   31       -7.866881   1.000000
   32       -7.825457   1.000000
   33       -7.780474   1.000000
   34       -7.725442   1.000000
   35       -7.578297   1.000000
   36       -7.421882   1.000000
   37       -7.365439   1.000000
   38       -7.268785   1.000000
   39       -7.131584   1.000000
   40       -6.929955   1.000000
   41       -6.790617   1.000000
   42       -6.709899   1.000000
   43       -6.554574   1.000000
   44       -6.471179   1.000000
   45       -6.322765   1.000000
   46       -6.231505   1.000000
   47       -6.128580   1.000000
   48       -6.103367   1.000000
   49       -6.035515   1.000000
   50       -6.005614   1.000000
   51       -5.885198   1.000000