   76   76    1    1
  0.2032295E+02  0.1036705E-08  0.2428040E-08  0.6136055E-09  0.5000000E-15
   1.0000000000000000E-004
  CAR 
 Name                                    
    280     23    184

  0.3742002E-15  0.1262379E-14  0.3742002E-15  0.2222222E-01
    1      -13.852333   1.000000
    2      -12.676871   1.000000
    3      -12.668887   1.000000
    4      -12.656540   1.000000
    5      -11.723464   1.000000
    6      -11.590157   1.000000
    7      -11.500704   1.000000
    8      -11.306072   1.000000
    9      -11.289843   1.000000
   10      -11.151101   1.000000
   11      -11.117974   1.000000
   12      -10.860940   1.000000
   13      -10.784337   1.000000
   14      -10.343975   1.000000
   15      -10.285178   1.000000
   16      -10.256292   1.000000
   17      -10.004376   1.000000
   18       -9.899292   1.000000
   19       -9.771117   1.000000
   20       -9.460239   1.000000
   21       -9.442189   1.000000
   22       -9.358360   1.000000
   23       -9.321489   1.000000
   24       -9.228755   1.000000
   25       -8.690098   1.000000
   26       -8.686985   1.000000
   27       -8.661449   1.000000
   28       -8.349342   1.000000
   29       -8.283361   1.000000
   30       -7.983800   1.000000
   31       -7.948605   1.000000
   32       -7.765456   1.000000
   33       -7.600779   1.000000
   34       -7.295232   1.000000
   35       -7.273551   1.000000
   36       -7.112718   1.000000
   37       -7.028477   1.000000
   38       -6.858610   1.000000
   39       -6.676061   1.000000
   40       -6.648354   1.000000
   41       -6.618467   1.000000
   42       -6.517413   1.000000
   43       -6.511420   1.000000
   44       -6.504913   1.000000
   45       -6.392784   1.000000
   46       -6.103712   1.000000
   47       -6.065132   1.000000
   48       -5.924848   1.000000
   49       -5.912148   1.000000
   50       -5.786458   1.000000
   51       -5.597512   1.000000
   52       -5.595142   1.000000
   53       -5.478164   1.000000
   54       -5.470104   1.000000
   55       -5.451275   1.000000
   56       -5.428776   1.000000
   57       -5.414650   1.000000
   58       -5.279113   1.000000
   59       -5.192780   1.000000
   60       -5.048026   1.000000
   61       -5.027165   1.000000
   62       -4.981771   1.000000
   63       -4.929011   1.000000
   64       -4.866166   1.000000
   65       -4.567985   1.000000
   66       -4.487587   1.000000
   67       -4.484744   1.000000
   68       -4.364954   1.000000
   69       -4.320162   1.000000
   70       -4.082507   1.000000
   71       -4.050803   1.000000
   72       -3.938386   1.000000
   73       -3.921247   1.000000
   74       -3.870745   1.000000
   75       -3.824975   1.000000
   76       -3.787302   1.000000
   77       -3.757903   1.000000
   78       -3.743275   1.000000
   79       -3.725885   1.000000
   80       -3.725246   1.000000
   81       -3.696729   1.000000
   82       -3.592256   1.000000
   83       -3.439497   1.000000
   84       -3.410931   1.000000
   85       -3.410244   1.000000
   86       -3.376177   1.000000
   87       -3.337673   1.000000
   88       -3.322172   1.000000
   89       -3.310093   1.000000
   90       -3.271939   1.000000
   91       -3.263796   1.000000
   92       -3.245214   1.000000
   93       -3.243277   1.000000
   94       -3.063966   1.000000
   95       -3.001452   1.000000
   96       -2.887731   1.000000
   97       -2.741930   1.000000
   98       -2.728226   1.000000
   99       -2.683486   1.000000
  100       -2.579168   1.000000
  101       -2.498549   1.000000
  102       -2.394221   1.000000
  103       -2.255592   1.000000
  104       -2.253072   1.000000
  105       -2.169316   1.000000
  106       -2.092098   1.000000
  107       -2.034670   1.000000
  108       -1.908328   1.000000
  109       -1.893137   1.000000
  110       -1.817433   1.000000
  111       -1.792110   1.000000
  112       -1.757063   1.000000
  113       -1.730299   1.000000
  114       -1.693833   1.000000
  115       -1.562860   1.000000
  116       -1.505254   1.000000
  117       -1.413880   1.000000
  118       -1.411430   1.000000
  119       -1.360050   1.000000
  120       -1.237893   1.000000
  121       -1.182490   1.000000
  122       -1.099660   1.000000
  123       -0.761761   1.000000
  124       -0.655871   1.000000
  125       -0.603158   1.000000
  126       -0.459343   1.000000
  127       -0.281305   1.000000
  128       -0.253866   1.000000
  129       -0.217714   1.000000
  130       -0.152553   1.000000
  131        0.105833   1.000000
  132        0.156720   1.000000
  133        0.273176   1.000091
  134        0.385391   1.011443
  135        0.447509   1.035254
  136        0.461208   1.033711
  137        0.489929   0.999111
  138        0.506105   0.951254
  139        0.584309   0.410903
  140        0.627868   0.107953
  141        0.673668  -0.025078
  142        0.743115  -0.018810
  143        0.759493  -0.012311
  144        0.795150  -0.003767
  145        0.809317  -0.002150
  146        0.811720  -0.001946
  147        0.815788  -0.001638
  148        0.943524  -0.000001
  149        1.001943  -0.000000
  150        1.017833  -0.000000
  151        1.222997  -0.000000
  152        1.245530  -0.000000
  153        1.263866  -0.000000
  154        1.312674  -0.000000
  155        1.354216  -0.000000
  156        1.389888  -0.000000
  157        1.392801  -0.000000
  158        1.493217  -0.000000
  159        1.548397  -0.000000
  160        1.560089  -0.000000
  161        1.568467  -0.000000
  162        1.622286  -0.000000
  163        1.627879  -0.000000
  164        1.642863  -0.000000
  165        1.648799  -0.000000
  166        1.721062  -0.000000
  167        1.804781  -0.000000
  168        1.818211  -0.000000
  169        1.846715  -0.000000
  170        1.858331  -0.000000
  171        1.877534  -0.000000
  172        1.908368  -0.000000
  173        1.919745  -0.000000
  174        1.940814  -0.000000
  175        1.979006  -0.000000
  176        1.999362  -0.000000
  177        2.313872  -0.000000
  178        2.527384  -0.000000
  179        2.613599  -0.000000
  180        2.673999  -0.000000
  181        2.704568  -0.000000
  182        2.849075  -0.000000
  183        2.929971  -0.000000
  184        4.082897   0.000000

  0.2000000E+00  0.1262379E-14  0.3742002E-15  0.4444444E-01
    1      -13.802937   1.000000
    2      -13.082021   1.000000
    3      -12.622579   1.000000
    4      -12.177378   1.000000
    5      -11.941060   1.000000
    6      -11.707176   1.000000
    7      -11.454502   1.000000
    8      -11.111112   1.000000
    9      -11.109821   1.000000
   10      -11.107516   1.000000
   11      -11.077322   1.000000
   12      -10.929142   1.000000
   13      -10.688575   1.000000
   14      -10.500911   1.000000
   15      -10.425587   1.000000
   16      -10.369887   1.000000
   17      -10.327147   1.000000
   18       -9.756380   1.000000
   19       -9.696001   1.000000
   20       -9.522715   1.000000
   21       -9.441334   1.000000
   22       -9.300977   1.000000
   23       -9.271448   1.000000
   24       -9.198106   1.000000
   25       -8.880124   1.000000
   26       -8.839796   1.000000
   27       -8.256566   1.000000
   28       -8.171424   1.000000
   29       -8.085266   1.000000
   30       -8.021553   1.000000
   31       -7.928420   1.000000
   32       -7.873498   1.000000
   33       -7.474380   1.000000
   34       -7.433436   1.000000
   35       -7.236542   1.000000
   36       -7.215956   1.000000
   37       -7.101329   1.000000
   38       -7.025834   1.000000
   39       -6.743382   1.000000
   40       -6.714917   1.000000
   41       -6.660685   1.000000
   42       -6.576107   1.000000
   43       -6.480780   1.000000
   44       -6.432990   1.000000
   45       -6.378454   1.000000
   46       -6.126505   1.000000
   47       -5.983554   1.000000
   48       -5.920376   1.000000
   49       -5.881621   1.000000
   50       -5.843435   1.000000
   51       -5.651205   1.000000
   52       -5.592144   1.000000
   53       -5.517311   1.000000
   54       -5.499051   1.000000
   55       -5.424441   1.000000
   56       -5.349683   1.000000
   57       -5.155782   1.000000
   58       -5.149848   1.000000
   59       -5.142542   1.000000
   60       -5.075704   1.000000
   61       -5.015622   1.000000
   62       -4.943657   1.000000
   63       -4.854965   1.000000
   64       -4.842703   1.000000
   65       -4.778555   1.000000
   66       -4.624916   1.000000
   67       -4.543205   1.000000
   68       -4.381519   1.000000
   69       -4.291811   1.000000
   70       -4.103643   1.000000
   71       -4.046692   1.000000
   72       -3.923051   1.000000
   73       -3.914943   1.000000
   74       -3.898475   1.000000
   75       -3.895859   1.000000
   76       -3.835353   1.000000
   77       -3.797356   1.000000
   78       -3.739952   1.000000
   79       -3.683507   1.000000
   80       -3.641803   1.000000
   81       -3.573426   1.000000
   82       -3.556408   1.000000
   83       -3.510219   1.000000
   84       -3.430828   1.000000
   85       -3.422741   1.000000
   86       -3.400229   1.000000
   87       -3.336393   1.000000
   88       -3.300078   1.000000
   89       -3.296077   1.000000
   90       -3.257967   1.000000
   91       -3.254558   1.000000
   92       -3.247918   1.000000
   93       -3.193949   1.000000
   94       -3.126896   1.000000
   95       -3.088550   1.000000
   96       -2.888779   1.000000
   97       -2.785475   1.000000
   98       -2.761602   1.000000
   99       -2.630441   1.000000
  100       -2.581614   1.000000
  101       -2.501797   1.000000
  102       -2.420203   1.000000
  103       -2.307415   1.000000
  104       -2.232748   1.000000
  105       -2.154900   1.000000
  106       -2.138747   1.000000
  107       -2.009625   1.000000
  108       -1.930680   1.000000
  109       -1.807483   1.000000
  110       -1.757934   1.000000
  111       -1.732796   1.000000
  112       -1.711693   1.000000
  113       -1.683508   1.000000
  114       -1.641517   1.000000
  115       -1.622050   1.000000
  116       -1.437302   1.000000
  117       -1.392954   1.000000
  118       -1.345001   1.000000
  119       -1.269961   1.000000
  120       -1.242191   1.000000
  121       -1.115175   1.000000
  122       -1.053963   1.000000
  123       -0.758275   1.000000
  124       -0.743974   1.000000
  125       -0.623279   1.000000
  126       -0.577322   1.000000
  127       -0.402977   1.000000
  128       -0.268147   1.000000
  129       -0.221804   1.000000
  130       -0.213752   1.000000
  131       -0.053218   1.000000
  132       -0.021404   1.000000
  133        0.101729   1.000000
  134        0.277160   1.000113
  135        0.326009   1.001282
  136        0.407052   1.020023
  137        0.476411   1.022099
  138        0.503517   0.960565
  139        0.620495   0.148098
  140        0.748271  -0.016608
  141        0.768996  -0.009284
  142        0.788626  -0.004796
  143        0.789502  -0.004646
  144        0.822861  -0.001203
  145        0.827950  -0.000956
  146        0.856015  -0.000243
  147        0.863242  -0.000166
  148        0.961688  -0.000000
  149        0.972173  -0.000000
  150        1.056485  -0.000000
  151        1.247329  -0.000000
  152        1.292737  -0.000000
  153        1.326645  -0.000000
  154        1.353527  -0.000000
  155        1.447432  -0.000000
  156        1.458486  -0.000000
  157        1.469742  -0.000000
  158        1.520145  -0.000000
  159        1.523040  -0.000000
  160        1.563354  -0.000000
  161        1.604551  -0.000000
  162        1.637955  -0.000000
  163        1.653684  -0.000000
  164        1.688828  -0.000000
  165        1.698062  -0.000000
  166        1.720018  -0.000000
  167        1.775136  -0.000000
  168        1.805149  -0.000000
  169        1.844636  -0.000000
  170        1.861395  -0.000000
  171        1.908398  -0.000000
  172        1.929248  -0.000000
  173        1.965377  -0.000000
  174        1.998435  -0.000000
  175        2.017498  -0.000000
  176        2.058697  -0.000000
  177        2.095959  -0.000000
  178        2.141226  -0.000000
  179        2.360658  -0.000000
  180        2.399216  -0.000000
  181        2.614537  -0.000000
  182        2.801002  -0.000000
  183        2.862973  -0.000000
  184        2.899395  -0.000000

  0.4000000E+00  0.1262379E-14  0.3742002E-15  0.4444444E-01
    1      -13.655768   1.000000
    2      -13.413831   1.000000
    3      -12.484389   1.000000
    4      -12.256893   1.000000
    5      -11.657826   1.000000
    6      -11.618736   1.000000
    7      -11.574114   1.000000
    8      -11.077230   1.000000
    9      -11.030087   1.000000
   10      -11.028499   1.000000
   11      -10.968391   1.000000
   12      -10.862080   1.000000
   13      -10.797959   1.000000
   14      -10.630429   1.000000
   15      -10.551352   1.000000
   16      -10.518403   1.000000
   17      -10.421819   1.000000
   18       -9.944607   1.000000
   19       -9.709730   1.000000
   20       -9.627946   1.000000
   21       -9.306073   1.000000
   22       -9.299757   1.000000
   23       -9.248717   1.000000
   24       -9.197308   1.000000
   25       -8.978354   1.000000
   26       -8.646214   1.000000
   27       -8.173799   1.000000
   28       -8.022381   1.000000
   29       -7.824488   1.000000
   30       -7.777976   1.000000
   31       -7.718994   1.000000
   32       -7.712091   1.000000
   33       -7.647514   1.000000
   34       -7.539848   1.000000
   35       -7.386326   1.000000
   36       -7.343793   1.000000
   37       -7.198084   1.000000
   38       -7.196023   1.000000
   39       -7.186877   1.000000
   40       -6.895495   1.000000
   41       -6.619831   1.000000
   42       -6.609991   1.000000
   43       -6.468426   1.000000
   44       -6.342662   1.000000
   45       -6.252105   1.000000
   46       -6.102409   1.000000
   47       -5.944172   1.000000
   48       -5.799929   1.000000
   49       -5.761687   1.000000
   50       -5.728675   1.000000
   51       -5.709128   1.000000
   52       -5.648869   1.000000
   53       -5.593019   1.000000
   54       -5.526671   1.000000
   55       -5.399235   1.000000
   56       -5.385287   1.000000
   57       -5.240155   1.000000
   58       -5.219835   1.000000
   59       -4.980353   1.000000
   60       -4.967774   1.000000
   61       -4.952521   1.000000
   62       -4.916488   1.000000
   63       -4.889771   1.000000
   64       -4.720802   1.000000
   65       -4.689774   1.000000
   66       -4.584261   1.000000
   67       -4.515080   1.000000
   68       -4.379769   1.000000
   69       -4.294074   1.000000
   70       -4.199879   1.000000
   71       -4.165250   1.000000
   72       -4.100597   1.000000
   73       -3.987011   1.000000
   74       -3.871571   1.000000
   75       -3.856608   1.000000
   76       -3.834081   1.000000
   77       -3.806518   1.000000
   78       -3.780353   1.000000
   79       -3.752512   1.000000
   80       -3.741401   1.000000
   81       -3.604789   1.000000
   82       -3.503611   1.000000
   83       -3.487176   1.000000
   84       -3.484064   1.000000
   85       -3.476107   1.000000
   86       -3.420719   1.000000
   87       -3.336736   1.000000
   88       -3.284470   1.000000
   89       -3.244487   1.000000
   90       -3.228172   1.000000
   91       -3.141467   1.000000
   92       -3.100988   1.000000
   93       -3.080397   1.000000
   94       -3.059342   1.000000
   95       -3.055998   1.000000
   96       -2.916330   1.000000
   97       -2.911856   1.000000
   98       -2.840593   1.000000
   99       -2.749010   1.000000
  100       -2.642106   1.000000
  101       -2.618160   1.000000
  102       -2.453849   1.000000
  103       -2.318556   1.000000
  104       -2.194408   1.000000
  105       -2.182968   1.000000
  106       -1.996239   1.000000
  107       -1.977406   1.000000
  108       -1.932696   1.000000
  109       -1.848566   1.000000
  110       -1.756193   1.000000
  111       -1.738085   1.000000
  112       -1.733428   1.000000
  113       -1.553294   1.000000
  114       -1.459067   1.000000
  115       -1.411076   1.000000
  116       -1.380453   1.000000
  117       -1.358607   1.000000
  118       -1.312044   1.000000
  119       -1.109921   1.000000
  120       -1.051360   1.000000
  121       -0.906990   1.000000
  122       -0.893730   1.000000
  123       -0.860560   1.000000
  124       -0.859282   1.000000
  125       -0.748401   1.000000
  126       -0.704163   1.000000
  127       -0.561320   1.000000
  128       -0.557200   1.000000
  129       -0.500132   1.000000
  130       -0.372189   1.000000
  131       -0.209574   1.000000
  132       -0.204827   1.000000
  133        0.084508   1.000000
  134        0.095234   1.000000
  135        0.252142   1.000027
  136        0.454239   1.035314
  137        0.458867   1.034466
  138        0.535430   0.799171
  139        0.577331   0.469423
  140        0.677989  -0.029013
  141        0.732416  -0.023667
  142        0.743581  -0.018606
  143        0.822257  -0.001236
  144        0.843760  -0.000452
  145        0.868876  -0.000122
  146        0.908636  -0.000012
  147        0.983024  -0.000000
  148        1.092898  -0.000000
  149        1.117135  -0.000000
  150        1.134468  -0.000000
  151        1.211241  -0.000000
  152        1.358045  -0.000000
  153        1.390650  -0.000000
  154        1.421072  -0.000000
  155        1.471994  -0.000000
  156        1.491787  -0.000000
  157        1.546763  -0.000000
  158        1.593746  -0.000000
  159        1.644495  -0.000000
  160        1.665269  -0.000000
  161        1.667825  -0.000000
  162        1.690867  -0.000000
  163        1.702315  -0.000000
  164        1.705516  -0.000000
  165        1.753739  -0.000000
  166        1.803904  -0.000000
  167        1.825457  -0.000000
  168        1.832160  -0.000000
  169        1.858829  -0.000000
  170        1.877725  -0.000000
  171        1.904403  -0.000000
  172        1.921691  -0.000000
  173        1.983922  -0.000000
  174        1.999977  -0.000000
  175        2.064247  -0.000000
  176        2.088177  -0.000000
  177        2.103139  -0.000000
  178        2.181531  -0.000000
  179        2.253768  -0.000000
  180        2.277958  -0.000000
  181        2.546271  -0.000000
  182        2.825025  -0.000000
  183        2.989144  -0.000000
  184        3.230376  -0.000000

  0.3742002E-15  0.1262379E-14  0.1111111E+00  0.4444444E-01
    1      -13.806947   1.000000
    2      -12.642270   1.000000
    3      -12.630303   1.000000
    4      -12.622000   1.000000
    5      -11.828386   1.000000
    6      -11.561613   1.000000
    7      -11.472207   1.000000
    8      -11.352178   1.000000
    9      -11.336135   1.000000
   10      -11.199618   1.000000
   11      -11.100006   1.000000
   12      -10.872109   1.000000
   13      -10.796485   1.000000
   14      -10.348907   1.000000
   15      -10.283360   1.000000
   16      -10.229892   1.000000
   17       -9.985677   1.000000
   18       -9.861428   1.000000
   19       -9.786823   1.000000
   20       -9.469574   1.000000
   21       -9.443793   1.000000
   22       -9.348790   1.000000
   23       -9.339092   1.000000
   24       -9.235598   1.000000
   25       -8.693397   1.000000
   26       -8.681648   1.000000
   27       -8.659753   1.000000
   28       -8.362920   1.000000
   29       -8.276784   1.000000
   30       -7.995730   1.000000
   31       -7.798311   1.000000
   32       -7.760719   1.000000
   33       -7.687293   1.000000
   34       -7.403940   1.000000
   35       -7.257650   1.000000
   36       -7.140876   1.000000
   37       -7.097852   1.000000
   38       -6.826499   1.000000
   39       -6.695054   1.000000
   40       -6.667056   1.000000
   41       -6.590777   1.000000
   42       -6.449162   1.000000
   43       -6.447442   1.000000
   44       -6.442535   1.000000
   45       -6.374876   1.000000
   46       -6.116672   1.000000
   47       -6.081358   1.000000
   48       -5.958292   1.000000
   49       -5.943789   1.000000
   50       -5.748256   1.000000
   51       -5.598855   1.000000
   52       -5.567784   1.000000
   53       -5.498267   1.000000
   54       -5.492462   1.000000
   55       -5.480994   1.000000
   56       -5.446037   1.000000
   57       -5.263179   1.000000
   58       -5.233247   1.000000
   59       -5.144683   1.000000
   60       -5.048153   1.000000
   61       -4.980502   1.000000
   62       -4.966468   1.000000
   63       -4.897633   1.000000
   64       -4.842260   1.000000
   65       -4.504139   1.000000
   66       -4.459205   1.000000
   67       -4.436739   1.000000
   68       -4.354719   1.000000
   69       -4.323720   1.000000
   70       -4.082772   1.000000
   71       -4.060661   1.000000
   72       -3.982428   1.000000
   73       -3.916745   1.000000
   74       -3.883294   1.000000
   75       -3.862521   1.000000
   76       -3.787983   1.000000
   77       -3.783872   1.000000
   78       -3.778271   1.000000
   79       -3.738506   1.000000
   80       -3.728888   1.000000
   81       -3.725107   1.000000
   82       -3.654459   1.000000
   83       -3.573566   1.000000
   84       -3.541945   1.000000
   85       -3.511680   1.000000
   86       -3.475105   1.000000
   87       -3.415551   1.000000
   88       -3.365454   1.000000
   89       -3.324802   1.000000
   90       -3.296775   1.000000
   91       -3.283606   1.000000
   92       -3.257219   1.000000
   93       -3.207139   1.000000
   94       -3.039191   1.000000
   95       -3.023018   1.000000
   96       -2.851308   1.000000
   97       -2.746025   1.000000
   98       -2.669092   1.000000
   99       -2.642715   1.000000
  100       -2.498595   1.000000
  101       -2.426732   1.000000
  102       -2.308129   1.000000
  103       -2.298468   1.000000
  104       -2.281184   1.000000
  105       -2.225044   1.000000
  106       -2.073795   1.000000
  107       -2.006409   1.000000
  108       -1.997697   1.000000
  109       -1.875129   1.000000
  110       -1.836270   1.000000
  111       -1.791888   1.000000
  112       -1.740330   1.000000
  113       -1.719224   1.000000
  114       -1.636775   1.000000
  115       -1.576089   1.000000
  116       -1.502294   1.000000
  117       -1.490621   1.000000
  118       -1.415075   1.000000
  119       -1.317399   1.000000
  120       -1.168254   1.000000
  121       -1.098030   1.000000
  122       -1.020274   1.000000
  123       -0.801764   1.000000
  124       -0.701586   1.000000
  125       -0.559584   1.000000
  126       -0.443702   1.000000
  127       -0.383256   1.000000
  128       -0.322902   1.000000
  129       -0.262521   1.000000
  130       -0.040149   1.000000
  131       -0.012063   1.000000
  132        0.040964   1.000000
  133        0.195672   1.000001
  134        0.345455   1.002893
  135        0.409504   1.021131
  136        0.443040   1.034533
  137        0.453169   1.035399
  138        0.468115   1.030005
  139        0.560031   0.614614
  140        0.592902   0.340893
  141        0.619858   0.151819
  142        0.638522   0.059582
  143        0.764898  -0.010518
  144        0.815178  -0.001681
  145        0.829622  -0.000886
  146        0.938541  -0.000002
  147        0.995198  -0.000000
  148        1.020345  -0.000000
  149        1.095599  -0.000000
  150        1.186719  -0.000000
  151        1.192490  -0.000000
  152        1.199252  -0.000000
  153        1.274914  -0.000000
  154        1.308331  -0.000000
  155        1.360064  -0.000000
  156        1.395275  -0.000000
  157        1.446103  -0.000000
  158        1.460751  -0.000000
  159        1.524497  -0.000000
  160        1.530612  -0.000000
  161        1.591306  -0.000000
  162        1.603553  -0.000000
  163        1.651353  -0.000000
  164        1.658936  -0.000000
  165        1.681682  -0.000000
  166        1.721783  -0.000000
  167        1.740920  -0.000000
  168        1.754402  -0.000000
  169        1.810060  -0.000000
  170        1.827158  -0.000000
  171        1.862295  -0.000000
  172        1.882967  -0.000000
  173        1.925816  -0.000000
  174        1.975886  -0.000000
  175        2.006448  -0.000000
  176        2.037013  -0.000000
  177        2.050650  -0.000000
  178        2.056758  -0.000000
  179        2.143927  -0.000000
  180        2.364433  -0.000000
  181        2.663317  -0.000000
  182        2.690767  -0.000000
  183        2.790866  -0.000000
  184        4.258639   0.000000

  0.2000000E+00  0.1262379E-14  0.1111111E+00  0.4444444E-01
    1      -13.757952   1.000000
    2      -13.043390   1.000000
    3      -12.584346   1.000000
    4      -12.148433   1.000000
    5      -11.908846   1.000000
    6      -11.809211   1.000000
    7      -11.516145   1.000000
    8      -11.180398   1.000000
    9      -11.139191   1.000000
   10      -11.066240   1.000000
   11      -11.054552   1.000000
   12      -10.953426   1.000000
   13      -10.691303   1.000000
   14      -10.474019   1.000000
   15      -10.415311   1.000000
   16      -10.356991   1.000000
   17      -10.333829   1.000000
   18       -9.773334   1.000000
   19       -9.676808   1.000000
   20       -9.519142   1.000000
   21       -9.428236   1.000000
   22       -9.325149   1.000000
   23       -9.262396   1.000000
   24       -9.202351   1.000000
   25       -8.881597   1.000000
   26       -8.831595   1.000000
   27       -8.276107   1.000000
   28       -8.177351   1.000000
   29       -8.081823   1.000000
   30       -8.014733   1.000000
   31       -7.943533   1.000000
   32       -7.723776   1.000000
   33       -7.548284   1.000000
   34       -7.516241   1.000000
   35       -7.219005   1.000000
   36       -7.212513   1.000000
   37       -7.171023   1.000000
   38       -6.936031   1.000000
   39       -6.782431   1.000000
   40       -6.703513   1.000000
   41       -6.690164   1.000000
   42       -6.557358   1.000000
   43       -6.442362   1.000000
   44       -6.377527   1.000000
   45       -6.366884   1.000000
   46       -6.275721   1.000000
   47       -6.026240   1.000000
   48       -5.926984   1.000000
   49       -5.814158   1.000000
   50       -5.680102   1.000000
   51       -5.647414   1.000000
   52       -5.594450   1.000000
   53       -5.540939   1.000000
   54       -5.496424   1.000000
   55       -5.457468   1.000000
   56       -5.362981   1.000000
   57       -5.208699   1.000000
   58       -5.074856   1.000000
   59       -5.058626   1.000000
   60       -5.013438   1.000000
   61       -4.955750   1.000000
   62       -4.918534   1.000000
   63       -4.847367   1.000000
   64       -4.825683   1.000000
   65       -4.764371   1.000000
   66       -4.589168   1.000000
   67       -4.507182   1.000000
   68       -4.357358   1.000000
   69       -4.230024   1.000000
   70       -4.126864   1.000000
   71       -4.035585   1.000000
   72       -3.988187   1.000000
   73       -3.938297   1.000000
   74       -3.895761   1.000000
   75       -3.877309   1.000000
   76       -3.820996   1.000000
   77       -3.812426   1.000000
   78       -3.763409   1.000000
   79       -3.762315   1.000000
   80       -3.693080   1.000000
   81       -3.630433   1.000000
   82       -3.578601   1.000000
   83       -3.567171   1.000000
   84       -3.534792   1.000000
   85       -3.516754   1.000000
   86       -3.478886   1.000000
   87       -3.438313   1.000000
   88       -3.387625   1.000000
   89       -3.335699   1.000000
   90       -3.292486   1.000000
   91       -3.245249   1.000000
   92       -3.220669   1.000000
   93       -3.154583   1.000000
   94       -3.092485   1.000000
   95       -3.050551   1.000000
   96       -2.858189   1.000000
   97       -2.732982   1.000000
   98       -2.694007   1.000000
   99       -2.657647   1.000000
  100       -2.605062   1.000000
  101       -2.480643   1.000000
  102       -2.409660   1.000000
  103       -2.305313   1.000000
  104       -2.188329   1.000000
  105       -2.169962   1.000000
  106       -2.132636   1.000000
  107       -2.009127   1.000000
  108       -1.979520   1.000000
  109       -1.849626   1.000000
  110       -1.783435   1.000000
  111       -1.759636   1.000000
  112       -1.736309   1.000000
  113       -1.616327   1.000000
  114       -1.589044   1.000000
  115       -1.523727   1.000000
  116       -1.504824   1.000000
  117       -1.423586   1.000000
  118       -1.412726   1.000000
  119       -1.279175   1.000000
  120       -1.180342   1.000000
  121       -1.087446   1.000000
  122       -1.008662   1.000000
  123       -0.832444   1.000000
  124       -0.701682   1.000000
  125       -0.684895   1.000000
  126       -0.542202   1.000000
  127       -0.460592   1.000000
  128       -0.433406   1.000000
  129       -0.211393   1.000000
  130       -0.197520   1.000000
  131       -0.015338   1.000000
  132        0.128713   1.000000
  133        0.263632   1.000053
  134        0.270266   1.000077
  135        0.303688   1.000452
  136        0.349242   1.003354
  137        0.376588   1.008763
  138        0.429225   1.030022
  139        0.534562   0.804865
  140        0.636724   0.066943
  141        0.678235  -0.029204
  142        0.699091  -0.035333
  143        0.765003  -0.010485
  144        0.829901  -0.000874
  145        0.850633  -0.000320
  146        0.969602  -0.000000
  147        1.034958  -0.000000
  148        1.040106  -0.000000
  149        1.071372  -0.000000
  150        1.165910  -0.000000
  151        1.194729  -0.000000
  152        1.239022  -0.000000
  153        1.338874  -0.000000
  154        1.400596  -0.000000
  155        1.427559  -0.000000
  156        1.473399  -0.000000
  157        1.489404  -0.000000