 running on   72 total cores
 distrk:  each k-point on   72 cores,    1 groups
 distr:  one band on    9 cores,    8 groups
 using from now: INCAR     
 vasp.5.4.4.18Apr17-6-g9f103f2a35 (build Dec  7 2020 12:43:57) complex           
 POSCAR found type information on POSCAR  Mo V  B  H 
 POSCAR found :  4 types and      76 ions
 scaLAPACK will be used

 ----------------------------------------------------------------------------- 
|                                                                             |
|  ADVICE TO THIS USER RUNNING 'VASP/VAMP'   (HEAR YOUR MASTER'S VOICE ...):  |
|                                                                             |
|      You enforced a specific xc-type in the INCAR file,                     |
|      a different type was found on the POTCAR file                          |
|          I HOPE YOU KNOW, WHAT YOU ARE  DOING                               |
|                                                                             |
 ----------------------------------------------------------------------------- 

 LDA part: xc-table for Pade appr. of Perdew
 POSCAR, INCAR and KPOINTS ok, starting setup
 resort distribution
 resort distribution
 resort distribution
 resort distribution
 resort distribution
 resort distribution
 resort distribution
 resort distribution
 resort distribution
 resort distribution
 resort distribution
 resort distribution
 resort distribution
 resort distribution
 resort distribution
 resort distribution
 resort distribution
 resort distribution
 resort distribution
 resort distribution
 resort distribution
 resort distribution
 resort distribution
 resort distribution
 resort distribution
 resort distribution
 resort distribution
 resort distribution
 resort distribution
 resort distribution
 resort distribution
 resort distribution
 resort distribution
 resort distribution
 resort distribution
 resort distribution
 resort distribution
 resort distribution
 resort distribution
 resort distribution
 resort distribution
 resort distribution
 resort distribution
 resort distribution
 resort distribution
 resort distribution
 resort distribution
 resort distribution
 resort distribution
 resort distribution
 resort distribution
 resort distribution
 resort distribution
 resort distribution
 resort distribution
 resort distribution
 resort distribution
 resort distribution
 resort distribution
 resort distribution
 resort distribution
 resort distribution
 resort distribution
 resort distribution
 resort distribution
 resort distribution
 resort distribution
 resort distribution
 resort distribution
 resort distribution
 resort distribution
 resort distribution
 FFT: planning ...
 WAVECAR not read
 augmentation electrons   280.02618130217292     
 soft         electrons   0.0000000000000000     
 augmentation electrons   280.02618130217292     
 soft         electrons   0.0000000000000000     
 augmentation electrons   280.02618130217292     
 soft         electrons   0.0000000000000000     
 augmentation electrons   280.02618130217292     
 soft         electrons   0.0000000000000000     
 augmentation electrons   280.02618130217292     
 soft         electrons   0.0000000000000000     
 augmentation electrons   280.02618130217292     
 soft         electrons   0.0000000000000000     
 augmentation electrons   280.02618130217292     
 soft         electrons   0.0000000000000000     
 augmentation electrons   280.02618130217292     
 soft         electrons   0.0000000000000000     
 augmentation electrons   280.02618130217292     
 soft         electrons   0.0000000000000000     
 augmentation electrons   280.02618130217292     
 soft         electrons   0.0000000000000000     
 augmentation electrons   280.02618130217292     
 soft         electrons   0.0000000000000000     
 augmentation electrons   280.02618130217292     
 soft         electrons   0.0000000000000000     
 augmentation electrons   280.02618130217292     
 soft         electrons   0.0000000000000000     
 augmentation electrons   280.02618130217292     
 soft         electrons   0.0000000000000000     
 augmentation electrons   280.02618130217292     
 soft         electrons   0.0000000000000000     
 augmentation electrons   280.02618130217292     
 soft         electrons   0.0000000000000000     
 augmentation electrons   280.02618130217292     
 soft         electrons   0.0000000000000000     
 augmentation electrons   280.02618130217292     
 soft         electrons   0.0000000000000000     
 augmentation electrons   280.02618130217292     
 soft         electrons   0.0000000000000000     
 augmentation electrons   280.02618130217292     
 soft         electrons   0.0000000000000000     
 augmentation electrons   280.02618130217292     
 soft         electrons   0.0000000000000000     
 augmentation electrons   280.02618130217292     
 soft         electrons   0.0000000000000000     
 augmentation electrons   280.02618130217292     
 soft         electrons   0.0000000000000000     
 augmentation electrons   280.02618130217292     
 soft         electrons   0.0000000000000000     
 augmentation electrons   280.02618130217292     
 soft         electrons   0.0000000000000000     
 augmentation electrons   280.02618130217292     
 soft         electrons   0.0000000000000000     
 augmentation electrons   280.02618130217292     
 soft         electrons   0.0000000000000000     
 augmentation electrons   280.02618130217292     
 soft         electrons   0.0000000000000000     
 augmentation electrons   280.02618130217292     
 soft         electrons   0.0000000000000000     
 augmentation electrons   280.02618130217292     
 soft         electrons   0.0000000000000000     
 augmentation electrons   280.02618130217292     
 soft         electrons   0.0000000000000000     
 augmentation electrons   280.02618130217292     
 soft         electrons   0.0000000000000000     
 augmentation electrons   280.02618130217292     
 soft         electrons   0.0000000000000000     
 augmentation electrons   280.02618130217292     
 soft         electrons   0.0000000000000000     
 augmentation electrons   280.02618130217292     
 soft         electrons   0.0000000000000000     
 augmentation electrons   280.02618130217292     
 soft         electrons   0.0000000000000000     
 augmentation electrons   280.02618130217292     
 soft         electrons   0.0000000000000000     
 augmentation electrons   280.02618130217292     
 soft         electrons   0.0000000000000000     
 augmentation electrons   280.02618130217292     
 soft         electrons   0.0000000000000000     
 augmentation electrons   280.02618130217292     
 soft         electrons   0.0000000000000000     
 augmentation electrons   280.02618130217292     
 soft         electrons   0.0000000000000000     
 augmentation electrons   280.02618130217292     
 soft         electrons   0.0000000000000000     
 augmentation electrons   280.02618130217292     
 soft         electrons   0.0000000000000000     
 augmentation electrons   280.02618130217292     
 soft         electrons   0.0000000000000000     
 augmentation electrons   280.02618130217292     
 soft         electrons   0.0000000000000000     
 augmentation electrons   280.02618130217292     
 soft         electrons   0.0000000000000000     
 augmentation electrons   280.02618130217292     
 soft         electrons   0.0000000000000000     
 augmentation electrons   280.02618130217292     
 soft         electrons   0.0000000000000000     
 augmentation electrons   280.02618130217292     
 soft         electrons   0.0000000000000000     
 augmentation electrons   280.02618130217292     
 soft         electrons   0.0000000000000000     
 augmentation electrons   280.02618130217292     
 soft         electrons   0.0000000000000000     
 augmentation electrons   280.02618130217292     
 soft         electrons   0.0000000000000000     
 augmentation electrons   280.02618130217292     
 soft         electrons   0.0000000000000000     
 augmentation electrons   280.02618130217292     
 soft         electrons   0.0000000000000000     
 augmentation electrons   280.02618130217292     
 soft         electrons   0.0000000000000000     
 augmentation electrons   280.02618130217292     
 soft         electrons   0.0000000000000000     
 augmentation electrons   280.02618130217292     
 soft         electrons   0.0000000000000000     
 augmentation electrons   280.02618130217292     
 soft         electrons   0.0000000000000000     
 augmentation electrons   280.02618130217292     
 soft         electrons   0.0000000000000000     
 augmentation electrons   280.02618130217292     
 soft         electrons   0.0000000000000000     
 augmentation electrons   280.02618130217292     
 soft         electrons   0.0000000000000000     
 augmentation electrons   280.02618130217292     
 soft         electrons   0.0000000000000000     
 augmentation electrons   280.02618130217292     
 soft         electrons   0.0000000000000000     
 augmentation electrons   280.02618130217292     
 soft         electrons   0.0000000000000000     
 augmentation electrons   280.02618130217292     
 soft         electrons   0.0000000000000000     
 augmentation electrons   280.02618130217292     
 soft         electrons   0.0000000000000000     
 augmentation electrons   280.02618130217292     
 soft         electrons   0.0000000000000000     
 augmentation electrons   280.02618130217292     
 soft         electrons   0.0000000000000000     
 augmentation electrons   280.02618130217292     
 soft         electrons   0.0000000000000000     
 augmentation electrons   280.02618130217292     
 soft         electrons   0.0000000000000000     
 augmentation electrons   280.02618130217292     
 soft         electrons   0.0000000000000000     
 augmentation electrons   280.02618130217292     
 soft         electrons   0.0000000000000000     
 total        electrons   280.02618130217292     
 total        electrons   280.02618130217292     
 total        electrons   280.02618130217292     
 total        electrons   280.02618130217292     
 total        electrons   280.02618130217292     
 total        electrons   280.02618130217292     
 total        electrons   280.02618130217292     
 total        electrons   280.02618130217292     
 total        electrons   280.02618130217292     
 total        electrons   280.02618130217292     
 total        electrons   280.02618130217292     
 total        electrons   280.02618130217292     
 total        electrons   280.02618130217292     
 total        electrons   280.02618130217292     
 total        electrons   280.02618130217292     
 total        electrons   280.02618130217292     
 total        electrons   280.02618130217292     
 total        electrons   280.02618130217292     
 total        electrons   280.02618130217292     
 total        electrons   280.02618130217292     
 total        electrons   280.02618130217292     
 total        electrons   280.02618130217292     
 total        electrons   280.02618130217292     
 total        electrons   280.02618130217292     
 total        electrons   280.02618130217292     
 total        electrons   280.02618130217292     
 total        electrons   280.02618130217292     
 total        electrons   280.02618130217292     
 total        electrons   280.02618130217292     
 total        electrons   280.02618130217292     
 total        electrons   280.02618130217292     
 total        electrons   280.02618130217292     
 total        electrons   280.02618130217292     
 total        electrons   280.02618130217292     
 total        electrons   280.02618130217292     
 total        electrons   280.02618130217292     
 total        electrons   280.02618130217292     
 total        electrons   280.02618130217292     
 total        electrons   280.02618130217292     
 total        electrons   280.02618130217292     
 total        electrons   280.02618130217292     
 total        electrons   280.02618130217292     
 total        electrons   280.02618130217292     
 total        electrons   280.02618130217292     
 total        electrons   280.02618130217292     
 total        electrons   280.02618130217292     
 total        electrons   280.02618130217292     
 total        electrons   280.02618130217292     
 total        electrons   280.02618130217292     
 total        electrons   280.02618130217292     
 total        electrons   280.02618130217292     
 total        electrons   280.02618130217292     
 total        electrons   280.02618130217292     
 total        electrons   280.02618130217292     
 total        electrons   280.02618130217292     
 total        electrons   280.02618130217292     
 total        electrons   280.02618130217292     
 total        electrons   280.02618130217292     
 total        electrons   280.02618130217292     
 total        electrons   280.02618130217292     
 total        electrons   280.02618130217292     
 total        electrons   280.02618130217292     
 total        electrons   280.02618130217292     
 total        electrons   280.02618130217292     
 total        electrons   280.02618130217292     
 total        electrons   280.02618130217292     
 total        electrons   280.02618130217292     
 total        electrons   280.02618130217292     
 total        electrons   280.02618130217292     
 total        electrons   280.02618130217292     
 total        electrons   280.02618130217292     
 total        electrons   280.02618130217292     
 augmentation electrons   864.17172981569820     
 soft         electrons   0.0000000000000000     
 augmentation electrons   864.17172981569820     
 soft         electrons   0.0000000000000000     
 augmentation electrons   864.17172981569820     
 soft         electrons   0.0000000000000000     
 augmentation electrons   864.17172981569820     
 soft         electrons   0.0000000000000000     
 augmentation electrons   864.17172981569820     
 soft         electrons   0.0000000000000000     
 augmentation electrons   864.17172981569820     
 soft         electrons   0.0000000000000000     
 augmentation electrons   864.17172981569820     
 soft         electrons   0.0000000000000000     
 augmentation electrons   864.17172981569820     
 soft         electrons   0.0000000000000000     
 augmentation electrons   864.17172981569820     
 soft         electrons   0.0000000000000000     
 augmentation electrons   864.17172981569820     
 soft         electrons   0.0000000000000000     
 augmentation electrons   864.17172981569820     
 soft         electrons   0.0000000000000000     
 augmentation electrons   864.17172981569820     
 soft         electrons   0.0000000000000000     
 augmentation electrons   864.17172981569820     
 soft         electrons   0.0000000000000000     
 augmentation electrons   864.17172981569820     
 soft         electrons   0.0000000000000000     
 augmentation electrons   864.17172981569820     
 soft         electrons   0.0000000000000000     
 augmentation electrons   864.17172981569820     
 soft         electrons   0.0000000000000000     
 augmentation electrons   864.17172981569820     
 soft         electrons   0.0000000000000000     
 augmentation electrons   864.17172981569820     
 soft         electrons   0.0000000000000000     
 augmentation electrons   864.17172981569820     
 soft         electrons   0.0000000000000000     
 augmentation electrons   864.17172981569820     
 soft         electrons   0.0000000000000000     
 augmentation electrons   864.17172981569820     
 soft         electrons   0.0000000000000000     
 augmentation electrons   864.17172981569820     
 soft         electrons   0.0000000000000000     
 augmentation electrons   864.17172981569820     
 soft         electrons   0.0000000000000000     
 augmentation electrons   864.17172981569820     
 soft         electrons   0.0000000000000000     
 augmentation electrons   864.17172981569820     
 soft         electrons   0.0000000000000000     
 augmentation electrons   864.17172981569820     
 soft         electrons   0.0000000000000000     
 augmentation electrons   864.17172981569820     
 soft         electrons   0.0000000000000000     
 augmentation electrons   864.17172981569820     
 soft         electrons   0.0000000000000000     
 augmentation electrons   864.17172981569820     
 soft         electrons   0.0000000000000000     
 augmentation electrons   864.17172981569820     
 soft         electrons   0.0000000000000000     
 augmentation electrons   864.17172981569820     
 soft         electrons   0.0000000000000000     
 augmentation electrons   864.17172981569820     
 soft         electrons   0.0000000000000000     
 augmentation electrons   864.17172981569820     
 soft         electrons   0.0000000000000000     
 augmentation electrons   864.17172981569820     
 soft         electrons   0.0000000000000000     
 augmentation electrons   864.17172981569820     
 soft         electrons   0.0000000000000000     
 augmentation electrons   864.17172981569820     
 soft         electrons   0.0000000000000000     
 augmentation electrons   864.17172981569820     
 soft         electrons   0.0000000000000000     
 augmentation electrons   864.17172981569820     
 soft         electrons   0.0000000000000000     
 augmentation electrons   864.17172981569820     
 soft         electrons   0.0000000000000000     
 augmentation electrons   864.17172981569820     
 soft         electrons   0.0000000000000000     
 augmentation electrons   864.17172981569820     
 soft         electrons   0.0000000000000000     
 augmentation electrons   864.17172981569820     
 soft         electrons   0.0000000000000000     
 augmentation electrons   864.17172981569820     
 augmentation electrons   864.17172981569820     
 soft         electrons   0.0000000000000000     
 augmentation electrons   864.17172981569820     
 soft         electrons   0.0000000000000000     
 augmentation electrons   864.17172981569820     
 soft         electrons   0.0000000000000000     
 augmentation electrons   864.17172981569820     
 soft         electrons   0.0000000000000000     
 augmentation electrons   864.17172981569820     
 soft         electrons   0.0000000000000000     
 augmentation electrons   864.17172981569820     
 soft         electrons   0.0000000000000000     
 augmentation electrons   864.17172981569820     
 soft         electrons   0.0000000000000000     
 augmentation electrons   864.17172981569820     
 soft         electrons   0.0000000000000000     
 augmentation electrons   864.17172981569820     
 soft         electrons   0.0000000000000000     
 augmentation electrons   864.17172981569820     
 soft         electrons   0.0000000000000000     
 augmentation electrons   864.17172981569820     
 soft         electrons   0.0000000000000000     
 augmentation electrons   864.17172981569820     
 soft         electrons   0.0000000000000000     
 augmentation electrons   864.17172981569820     
 soft         electrons   0.0000000000000000     
 augmentation electrons   864.17172981569820     
 soft         electrons   0.0000000000000000     
 augmentation electrons   864.17172981569820     
 soft         electrons   0.0000000000000000     
 augmentation electrons   864.17172981569820     
 soft         electrons   0.0000000000000000     
 augmentation electrons   864.17172981569820     
 soft         electrons   0.0000000000000000     
 augmentation electrons   864.17172981569820     
 soft         electrons   0.0000000000000000     
 augmentation electrons   864.17172981569820     
 soft         electrons   0.0000000000000000     
 augmentation electrons   864.17172981569820     
 soft         electrons   0.0000000000000000     
 augmentation electrons   864.17172981569820     
 soft         electrons   0.0000000000000000     
 augmentation electrons   864.17172981569820     
 soft         electrons   0.0000000000000000     
 augmentation electrons   864.17172981569820     
 soft         electrons   0.0000000000000000     
 augmentation electrons   864.17172981569820     
 soft         electrons   0.0000000000000000     
 augmentation electrons   864.17172981569820     
 soft         electrons   0.0000000000000000     
 augmentation electrons   864.17172981569820     
 soft         electrons   0.0000000000000000     
 augmentation electrons   864.17172981569820     
 soft         electrons   0.0000000000000000     
 augmentation electrons   864.17172981569820     
 soft         electrons   0.0000000000000000     
 augmentation electrons   864.17172981569820     
 soft         electrons   0.0000000000000000     
 soft         electrons   0.0000000000000000     
 total        electrons   864.17172981569820     
 total        electrons   864.17172981569820     
 total        electrons   864.17172981569820     
 total        electrons   864.17172981569820     
 total        electrons   864.17172981569820     
 total        electrons   864.17172981569820     
 total        electrons   864.17172981569820     
 total        electrons   864.17172981569820     
 total        electrons   864.17172981569820     
 total        electrons   864.17172981569820     
 total        electrons   864.17172981569820     
 total        electrons   864.17172981569820     
 total        electrons   864.17172981569820     
 total        electrons   864.17172981569820     
 total        electrons   864.17172981569820     
 total        electrons   864.17172981569820     
 total        electrons   864.17172981569820     
 total        electrons   864.17172981569820     
 total        electrons   864.17172981569820     
 total        electrons   864.17172981569820     
 total        electrons   864.17172981569820     
 total        electrons   864.17172981569820     
 total        electrons   864.17172981569820     
 total        electrons   864.17172981569820     
 total        electrons   864.17172981569820     
 total        electrons   864.17172981569820     
 total        electrons   864.17172981569820     
 total        electrons   864.17172981569820     
 total        electrons   864.17172981569820     
 total        electrons   864.17172981569820     
 total        electrons   864.17172981569820     
 total        electrons   864.17172981569820     
 total        electrons   864.17172981569820     
 total        electrons   864.17172981569820     
 total        electrons   864.17172981569820     
 total        electrons   864.17172981569820     
 total        electrons   864.17172981569820     
 total        electrons   864.17172981569820     
 total        electrons   864.17172981569820     
 total        electrons   864.17172981569820     
 total        electrons   864.17172981569820     
 total        electrons   864.17172981569820     
 total        electrons   864.17172981569820     
 total        electrons   864.17172981569820     
 total        electrons   864.17172981569820     
 total        electrons   864.17172981569820     
 total        electrons   864.17172981569820     
 total        electrons   864.17172981569820     
 total        electrons   864.17172981569820     
 total        electrons   864.17172981569820     
 total        electrons   864.17172981569820     
 total        electrons   864.17172981569820     
 total        electrons   864.17172981569820     
 total        electrons   864.17172981569820     
 total        electrons   864.17172981569820     
 total        electrons   864.17172981569820     
 total        electrons   864.17172981569820     
 total        electrons   864.17172981569820     
 total        electrons   864.17172981569820     
 total        electrons   864.17172981569820     
 total        electrons   864.17172981569820     
 total        electrons   864.17172981569820     
 total        electrons   864.17172981569820     
 total        electrons   864.17172981569820     
 total        electrons   864.17172981569820     
 total        electrons   864.17172981569820     
 total        electrons   864.17172981569820     
 total        electrons   864.17172981569820     
 total        electrons   864.17172981569820     
 total        electrons   864.17172981569820     
 total        electrons   864.17172981569820     
 total        electrons   864.17172981569820     
 entering main loop
       N       E                     dE             d eps       ncg     rms          rms(c)
DAV:   1     0.309275043534E+04    0.30928E+04   -0.95681E+04  8464   0.128E+03
DAV:   2     0.872613053972E+02   -0.30055E+04   -0.27718E+04  8992   0.334E+02
DAV:   3    -0.612381601915E+03   -0.69964E+03   -0.67002E+03 11656   0.194E+02
DAV:   4    -0.682478995673E+03   -0.70097E+02   -0.66396E+02 13928   0.674E+01
DAV:   5    -0.686558350012E+03   -0.40794E+01   -0.38697E+01 14184   0.168E+01    0.142E+02
RMM:   6    -0.631051184623E+03    0.55507E+02   -0.13939E+03 11568   0.112E+02    0.772E+01
RMM:   7    -0.690214744659E+03   -0.59164E+02   -0.67861E+02  9913   0.986E+01    0.557E+01
RMM:   8    -0.632507066745E+03    0.57708E+02   -0.16536E+02 10966   0.406E+01    0.403E+01
RMM:   9    -0.580437658766E+03    0.52069E+02   -0.51873E+01  8774   0.260E+01    0.269E+01
RMM:  10    -0.567910442546E+03    0.12527E+02   -0.32410E+01 10494   0.165E+01    0.198E+01
RMM:  11    -0.566400967519E+03    0.15095E+01   -0.12068E+01 11921   0.783E+00    0.161E+01
RMM:  12    -0.566525677018E+03   -0.12471E+00   -0.21235E+00 12550   0.252E+00    0.149E+01
RMM:  13    -0.566454700818E+03    0.70976E-01   -0.95198E-01 11275   0.285E+00    0.133E+01
RMM:  14    -0.565650959499E+03    0.80374E+00   -0.33261E+00 10715   0.567E+00    0.863E+00
RMM:  15    -0.565396171662E+03    0.25479E+00   -0.35397E+00  9998   0.554E+00    0.619E+00
RMM:  16    -0.565018051604E+03    0.37812E+00   -0.90107E-01 10147   0.290E+00    0.281E+00
RMM:  17    -0.565026565790E+03   -0.85142E-02   -0.54202E-01 13160   0.102E+00    0.219E+00
RMM:  18    -0.565018813049E+03    0.77527E-02   -0.18088E-01 12088   0.105E+00    0.221E+00
RMM:  19    -0.564983708430E+03    0.35105E-01   -0.12893E-01 12230   0.890E-01    0.126E+00
RMM:  20    -0.564977684194E+03    0.60242E-02   -0.11672E-01 11190   0.944E-01    0.129E+00
RMM:  21    -0.564967425917E+03    0.10258E-01   -0.56816E-02 12546   0.525E-01    0.944E-01
RMM:  22    -0.564957451017E+03    0.99749E-02   -0.21695E-02 10360   0.447E-01    0.703E-01
RMM:  23    -0.564953946264E+03    0.35048E-02   -0.20870E-02 12271   0.339E-01    0.540E-01
RMM:  24    -0.564952458403E+03    0.14879E-02   -0.76180E-03 11333   0.236E-01    0.294E-01
RMM:  25    -0.564952350863E+03    0.10754E-03   -0.46563E-03 13101   0.122E-01    0.157E-01
RMM:  26    -0.564951503109E+03    0.84775E-03   -0.32787E-03 11680   0.142E-01    0.158E-01
RMM:  27    -0.564951416977E+03    0.86132E-04   -0.19025E-03 12161   0.979E-02    0.122E-01
RMM:  28    -0.564951738377E+03   -0.32140E-03   -0.72903E-04 12241   0.618E-02    0.100E-01
RMM:  29    -0.564952151188E+03   -0.41281E-03   -0.36265E-04 11557   0.460E-02    0.946E-02
RMM:  30    -0.564952594348E+03   -0.44316E-03   -0.32116E-04 10196   0.491E-02    0.825E-02
RMM:  31    -0.564952939038E+03   -0.34469E-03   -0.36399E-04 10681   0.434E-02    0.502E-02
RMM:  32    -0.564953164245E+03   -0.22521E-03   -0.28327E-04 12263   0.345E-02    0.492E-02
RMM:  33    -0.564953310015E+03   -0.14577E-03   -0.86491E-05 11117   0.187E-02    0.294E-02
RMM:  34    -0.564953350534E+03   -0.40519E-04   -0.33843E-05 10682   0.129E-02    0.159E-02
RMM:  35    -0.564953396962E+03   -0.46428E-04   -0.53367E-05 12202   0.122E-02    0.127E-02
RMM:  36    -0.564953492539E+03   -0.95577E-04   -0.14438E-05  9019   0.644E-03    0.886E-03
RMM:  37    -0.564953607731E+03   -0.11519E-03   -0.61531E-06  7932   0.533E-03    0.763E-03
RMM:  38    -0.564953733798E+03   -0.12607E-03   -0.93373E-06  8293   0.645E-03    0.934E-03
RMM:  39    -0.564953856794E+03   -0.12300E-03   -0.10696E-05  8421   0.576E-03    0.694E-03
RMM:  40    -0.564953933372E+03   -0.76578E-04   -0.71966E-06  7902   0.516E-03    0.371E-03
RMM:  41    -0.564953980196E+03   -0.46824E-04   -0.45045E-06  7575   0.370E-03    0.392E-03
RMM:  42    -0.564954022995E+03   -0.42799E-04   -0.37212E-06  7273   0.352E-03    0.270E-03
RMM:  43    -0.564954042885E+03   -0.19890E-04   -0.20113E-06  6848   0.317E-03    0.182E-03
RMM:  44    -0.564954044743E+03   -0.18585E-05   -0.43319E-07  5955   0.198E-03    0.621E-04
RMM:  45    -0.564954053023E+03   -0.82796E-05   -0.76025E-07  5455   0.127E-03    0.978E-04
RMM:  46    -0.564954056333E+03   -0.33106E-05   -0.37771E-07  5196   0.168E-03    0.405E-04
RMM:  47    -0.564954057360E+03   -0.10266E-05   -0.21283E-07  4138   0.882E-04    0.296E-04
RMM:  48    -0.564954057911E+03   -0.55077E-06   -0.13090E-07  4098   0.938E-04
   1 F= -.56495406E+03 E0= -.56495883E+03  d E =0.143135E-01
 augmentation electrons   35.739979074770289     
 soft         electrons   244.35589937644608     
 augmentation electrons   35.739979074770289     
 soft         electrons   244.35589937644608     
 augmentation electrons   35.739979074770289     
 soft         electrons   244.35589937644608     
 augmentation electrons   35.739979074770289     
 soft         electrons   244.35589937644608     
 augmentation electrons   35.739979074770289     
 soft         electrons   244.35589937644608     
 augmentation electrons   35.739979074770289     
 soft         electrons   244.35589937644608     
 augmentation electrons   35.739979074770289     
 soft         electrons   244.35589937644608     
 augmentation electrons   35.739979074770289     
 soft         electrons   244.35589937644608     
 augmentation electrons   35.739979074770289     
 soft         electrons   244.35589937644608     
 augmentation electrons   35.739979074770289     
 soft         electrons   244.35589937644608     
 augmentation electrons   35.739979074770289     
 soft         electrons   244.35589937644608     
 augmentation electrons   35.739979074770289     
 soft         electrons   244.35589937644608     
 augmentation electrons   35.739979074770289     
 soft         electrons   244.35589937644608     
 augmentation electrons   35.739979074770289     
 soft         electrons   244.35589937644608     
 augmentation electrons   35.739979074770289     
 soft         electrons   244.35589937644608     
 augmentation electrons   35.739979074770289     
 soft         electrons   244.35589937644608     
 augmentation electrons   35.739979074770289     
 soft         electrons   244.35589937644608     
 augmentation electrons   35.739979074770289     
 soft         electrons   244.35589937644608     
 augmentation electrons   35.739979074770289     
 soft         electrons   244.35589937644608     
 augmentation electrons   35.739979074770289     
 soft         electrons   244.35589937644608     
 augmentation electrons   35.739979074770289     
 soft         electrons   244.35589937644608     
 augmentation electrons   35.739979074770289     
 soft         electrons   244.35589937644608     
 augmentation electrons   35.739979074770289     
 soft         electrons   244.35589937644608     
 augmentation electrons   35.739979074770289     
 soft         electrons   244.35589937644608     
 augmentation electrons   35.739979074770289     
 soft         electrons   244.35589937644608     
 augmentation electrons   35.739979074770289     
 soft         electrons   244.35589937644608     
 augmentation electrons   35.739979074770289     
 soft         electrons   244.35589937644608     
 augmentation electrons   35.739979074770289     
 soft         electrons   244.35589937644608     
 augmentation electrons   35.739979074770289     
 soft         electrons   244.35589937644608     
 augmentation electrons   35.739979074770289     
 soft         electrons   244.35589937644608     
 augmentation electrons   35.739979074770289     
 soft         electrons   244.35589937644608     
 augmentation electrons   35.739979074770289     
 soft         electrons   244.35589937644608     
 augmentation electrons   35.739979074770289     
 soft         electrons   244.35589937644608     
 augmentation electrons   35.739979074770289     
 soft         electrons   244.35589937644608     
 augmentation electrons   35.739979074770289     
 soft         electrons   244.35589937644608     
 augmentation electrons   35.739979074770289     
 soft         electrons   244.35589937644608     
 augmentation electrons   35.739979074770289     
 soft         electrons   244.35589937644608     
 augmentation electrons   35.739979074770289     
 soft         electrons   244.35589937644608     
 augmentation electrons   35.739979074770289     
 soft         electrons   244.35589937644608     
 augmentation electrons   35.739979074770289     
 soft         electrons   244.35589937644608     
 augmentation electrons   35.739979074770289     
 soft         electrons   244.35589937644608     
 augmentation electrons   35.739979074770289     
 soft         electrons   244.35589937644608     
 augmentation electrons   35.739979074770289     
 soft         electrons   244.35589937644608     
 augmentation electrons   35.739979074770289     
 soft         electrons   244.35589937644608     
 augmentation electrons   35.739979074770289     
 soft         electrons   244.35589937644608     
 augmentation electrons   35.739979074770289     
 soft         electrons   244.35589937644608     
 augmentation electrons   35.739979074770289     
 soft         electrons   244.35589937644608     
 augmentation electrons   35.739979074770289     
 soft         electrons   244.35589937644608     
 augmentation electrons   35.739979074770289     
 soft         electrons   244.35589937644608     
 augmentation electrons   35.739979074770289     
 soft         electrons   244.35589937644608     
 augmentation electrons   35.739979074770289     
 soft         electrons   244.35589937644608     
 augmentation electrons   35.739979074770289     
 soft         electrons   244.35589937644608     
 augmentation electrons   35.739979074770289     
 soft         electrons   244.35589937644608     
 augmentation electrons   35.739979074770289     
 soft         electrons   244.35589937644608     
 augmentation electrons   35.739979074770289     
 soft         electrons   244.35589937644608     
 augmentation electrons   35.739979074770289     
 soft         electrons   244.35589937644608     
 augmentation electrons   35.739979074770289     
 soft         electrons   244.35589937644608     
 augmentation electrons   35.739979074770289     
 soft         electrons   244.35589937644608     
 augmentation electrons   35.739979074770289     
 soft         electrons   244.35589937644608     
 augmentation electrons   35.739979074770289     
 soft         electrons   244.35589937644608     
 augmentation electrons   35.739979074770289     
 augmentation electrons   35.739979074770289     
 soft         electrons   244.35589937644608     
 augmentation electrons   35.739979074770289     
 soft         electrons   244.35589937644608     
 augmentation electrons   35.739979074770289     
 soft         electrons   244.35589937644608     
 augmentation electrons   35.739979074770289     
 soft         electrons   244.35589937644608     
 augmentation electrons   35.739979074770289     
 soft         electrons   244.35589937644608     
 augmentation electrons   35.739979074770289     
 soft         electrons   244.35589937644608     
 augmentation electrons   35.739979074770289     
 soft         electrons   244.35589937644608     
 augmentation electrons   35.739979074770289     
 soft         electrons   244.35589937644608     
 augmentation electrons   35.739979074770289     
 soft         electrons   244.35589937644608     
 augmentation electrons   35.739979074770289     
 soft         electrons   244.35589937644608     
 augmentation electrons   35.739979074770289     
 soft         electrons   244.35589937644608     
 soft         electrons   244.35589937644608     
 total        electrons   280.09587845121638     
 total        electrons   280.09587845121638     
 total        electrons   280.09587845121638     
 total        electrons   280.09587845121638     
 total        electrons   280.09587845121638     
 total        electrons   280.09587845121638     
 total        electrons   280.09587845121638     
 total        electrons   280.09587845121638     
 total        electrons   280.09587845121638     
 total        electrons   280.09587845121638     
 total        electrons   280.09587845121638     
 total        electrons   280.09587845121638     
 total        electrons   280.09587845121638     
 total        electrons   280.09587845121638     
 total        electrons   280.09587845121638     
 total        electrons   280.09587845121638     
 total        electrons   280.09587845121638     
 total        electrons   280.09587845121638     
 total        electrons   280.09587845121638     
 total        electrons   280.09587845121638     
 total        electrons   280.09587845121638     
 total        electrons   280.09587845121638     
 total        electrons   280.09587845121638     
 total        electrons   280.09587845121638     
 total        electrons   280.09587845121638     
 total        electrons   280.09587845121638     
 total        electrons   280.09587845121638     
 total        electrons   280.09587845121638     
 total        electrons   280.09587845121638     
 total        electrons   280.09587845121638     
 total        electrons   280.09587845121638     
 total        electrons   280.09587845121638     
 total        electrons   280.09587845121638     
 total        electrons   280.09587845121638     
 total        electrons   280.09587845121638     
 total        electrons   280.09587845121638     
 total        electrons   280.09587845121638     
 total        electrons   280.09587845121638     
 total        electrons   280.09587845121638     
 total        electrons   280.09587845121638     
 total        electrons   280.09587845121638     
 total        electrons   280.09587845121638     
 total        electrons   280.09587845121638     
 total        electrons   280.09587845121638     
 total        electrons   280.09587845121638     
 total        electrons   280.09587845121638     
 total        electrons   280.09587845121638     
 total        electrons   280.09587845121638     
 total        electrons   280.09587845121638     
 total        electrons   280.09587845121638     
 total        electrons   280.09587845121638     
 total        electrons   280.09587845121638     
 total        electrons   280.09587845121638     
 total        electrons   280.09587845121638     
 total        electrons   280.09587845121638     
 total        electrons   280.09587845121638     
 total        electrons   280.09587845121638     
 total        electrons   280.09587845121638     
 total        electrons   280.09587845121638     
 total        electrons   280.09587845121638     
 total        electrons   280.09587845121638     
 total        electrons   280.09587845121638     
 total        electrons   280.09587845121638     
 total        electrons   280.09587845121638     
 total        electrons   280.09587845121638     
 total        electrons   280.09587845121638     
 total        electrons   280.09587845121638     
 total        electrons   280.09587845121638     
 total        electrons   280.09587845121638     
 total        electrons   280.09587845121638     
 total        electrons   280.09587845121638     
 total        electrons   280.09587845121638     
Note: The following floating-point exceptions are signalling: IEEE_OVERFLOW_FLAG
Note: The following floating-point exceptions are signalling: IEEE_OVERFLOW_FLAG
Note: The following floating-point exceptions are signalling: IEEE_OVERFLOW_FLAG
Note: The following floating-point exceptions are signalling: IEEE_OVERFLOW_FLAG
Note: The following floating-point exceptions are signalling: IEEE_OVERFLOW_FLAG
Note: The following floating-point exceptions are signalling: IEEE_OVERFLOW_FLAG
Note: The following floating-point exceptions are signalling: IEEE_OVERFLOW_FLAG
Note: The following floating-point exceptions are signalling: IEEE_OVERFLOW_FLAG
Note: The following floating-point exceptions are signalling: IEEE_OVERFLOW_FLAG
Note: The following floating-point exceptions are signalling: IEEE_OVERFLOW_FLAG
Note: The following floating-point exceptions are signalling: IEEE_OVERFLOW_FLAG
Note: The following floating-point exceptions are signalling: IEEE_OVERFLOW_FLAG
Note: The following floating-point exceptions are signalling: IEEE_OVERFLOW_FLAG
Note: The following floating-point exceptions are signalling: IEEE_OVERFLOW_FLAG
Note: The following floating-point exceptions are signalling: IEEE_OVERFLOW_FLAG
Note: The following floating-point exceptions are signalling: IEEE_OVERFLOW_FLAG
Note: The following floating-point exceptions are signalling: IEEE_OVERFLOW_FLAG
Note: The following floating-point exceptions are signalling: IEEE_OVERFLOW_FLAG
Note: The following floating-point exceptions are signalling: IEEE_OVERFLOW_FLAG
Note: The following floating-point exceptions are signalling: IEEE_OVERFLOW_FLAG
Note: The following floating-point exceptions are signalling: IEEE_OVERFLOW_FLAG
Note: The following floating-point exceptions are signalling: IEEE_OVERFLOW_FLAG
Note: The following floating-point exceptions are signalling: IEEE_OVERFLOW_FLAG
Note: The following floating-point exceptions are signalling: IEEE_OVERFLOW_FLAG
Note: The following floating-point exceptions are signalling: IEEE_OVERFLOW_FLAG
Note: The following floating-point exceptions are signalling: IEEE_OVERFLOW_FLAG
Note: The following floating-point exceptions are signalling: IEEE_OVERFLOW_FLAG
Note: The following floating-point exceptions are signalling: IEEE_OVERFLOW_FLAG
Note: The following floating-point exceptions are signalling: IEEE_OVERFLOW_FLAG
Note: The following floating-point exceptions are signalling: IEEE_OVERFLOW_FLAG
Note: The following floating-point exceptions are signalling: IEEE_OVERFLOW_FLAG
Note: The following floating-point exceptions are signalling: IEEE_OVERFLOW_FLAG
Note: The following floating-point exceptions are signalling: IEEE_OVERFLOW_FLAG
Note: The following floating-point exceptions are signalling: IEEE_OVERFLOW_FLAG
Note: The following floating-point exceptions are signalling: IEEE_OVERFLOW_FLAG
Note: The following floating-point exceptions are signalling: IEEE_OVERFLOW_FLAG
Note: The following floating-point exceptions are signalling: IEEE_OVERFLOW_FLAG
Note: The following floating-point exceptions are signalling: IEEE_OVERFLOW_FLAG
Note: The following floating-point exceptions are signalling: IEEE_OVERFLOW_FLAG
Note: The following floating-point exceptions are signalling: IEEE_OVERFLOW_FLAG
Note: The following floating-point exceptions are signalling: IEEE_OVERFLOW_FLAG
Note: The following floating-point exceptions are signalling: IEEE_OVERFLOW_FLAG
Note: The following floating-point exceptions are signalling: IEEE_OVERFLOW_FLAG
Note: The following floating-point exceptions are signalling: IEEE_OVERFLOW_FLAG
Note: The following floating-point exceptions are signalling: IEEE_OVERFLOW_FLAG
Note: The following floating-point exceptions are signalling: IEEE_OVERFLOW_FLAG
Note: The following floating-point exceptions are signalling: IEEE_OVERFLOW_FLAG
Note: The following floating-point exceptions are signalling: IEEE_OVERFLOW_FLAG
Note: The following floating-point exceptions are signalling: IEEE_OVERFLOW_FLAG
Note: The following floating-point exceptions are signalling: IEEE_OVERFLOW_FLAG
Note: The following floating-point exceptions are signalling: IEEE_OVERFLOW_FLAG
Note: The following floating-point exceptions are signalling: IEEE_OVERFLOW_FLAG
Note: The following floating-point exceptions are signalling: IEEE_OVERFLOW_FLAG
Note: The following floating-point exceptions are signalling: IEEE_OVERFLOW_FLAG
Note: The following floating-point exceptions are signalling: IEEE_OVERFLOW_FLAG
Note: The following floating-point exceptions are signalling: IEEE_OVERFLOW_FLAG
Note: The following floating-point exceptions are signalling: IEEE_OVERFLOW_FLAG
Note: The following floating-point exceptions are signalling: IEEE_OVERFLOW_FLAG
Note: The following floating-point exceptions are signalling: IEEE_OVERFLOW_FLAG
Note: The following floating-point exceptions are signalling: IEEE_OVERFLOW_FLAG
Note: The following floating-point exceptions are signalling: IEEE_OVERFLOW_FLAG
Note: The following floating-point exceptions are signalling: IEEE_OVERFLOW_FLAG
Note: The following floating-point exceptions are signalling: IEEE_OVERFLOW_FLAG
Note: The following floating-point exceptions are signalling: IEEE_OVERFLOW_FLAG
Note: The following floating-point exceptions are signalling: IEEE_OVERFLOW_FLAG
Note: The following floating-point exceptions are signalling: IEEE_OVERFLOW_FLAG
Note: The following floating-point exceptions are signalling: IEEE_OVERFLOW_FLAG
Note: The following floating-point exceptions are signalling: IEEE_OVERFLOW_FLAG
Note: The following floating-point exceptions are signalling: IEEE_OVERFLOW_FLAG
Note: The following floating-point exceptions are signalling: IEEE_OVERFLOW_FLAG
Note: The following floating-point exceptions are signalling: IEEE_OVERFLOW_FLAG
Note: The following floating-point exceptions are signalling: IEEE_OVERFLOW_FLAG
