ESCALE ; pCOHP file generated by LOBSTER. Energy is shifted such that the Fermi level lies at 0 eV.
       229          1        501  -6.92557e+00   1.81245e+01   9.10650e+00 
Average
No.1:Mo2->Mo1(3.1436781433548862)
No.2:Mo2->Mo1(3.1270923578391567)
No.3:Mo3->Mo1(3.0372109395206106)
No.4:Mo3->Mo1(3.0364943321314657)
No.5:V5->Mo1(3.0396648004451636)
No.6:V5->Mo1(3.0400824069104257)
No.7:V7->Mo1(3.0401271714534075)
No.8:V7->Mo1(3.0397097958280908)
No.9:B9->Mo1(2.3662276984181001)
No.10:B10->Mo1(2.3609204607966041)
No.11:B11->Mo1(2.3661562579730901)
No.12:B12->Mo1(2.3608736321607964)
No.13:B13->Mo1(2.3660325013146837)
No.14:B14->Mo1(2.3607457750445522)
No.15:B15->Mo1(2.3663866518878378)
No.16:B16->Mo1(2.3611328054268004)
No.17:B17->Mo1(2.3739861146476313)
No.18:B18->Mo1(2.3697648718270123)
No.19:B19->Mo1(2.3737374863859104)
No.20:B20->Mo1(2.369474283864037)
No.21:Mo4->Mo2(3.0368133665694108)
No.22:Mo4->Mo2(3.0368918846695534)
No.23:V6->Mo2(3.0399336140898026)
No.24:V6->Mo2(3.0398135831792166)
No.25:V8->Mo2(3.0403264807069514)
No.26:V8->Mo2(3.0395108016283783)
No.27:B9->Mo2(2.3650923216685378)
No.28:B10->Mo2(2.3612369949952567)
No.29:B11->Mo2(2.365103141015072)
No.30:B12->Mo2(2.3612651457102056)
No.31:B13->Mo2(2.3651663879675699)
No.32:B14->Mo2(2.3612646866871003)
No.33:B15->Mo2(2.3650942920590601)
No.34:B16->Mo2(2.3612750821606552)
No.35:B17->Mo2(2.3731995763542324)
No.36:B18->Mo2(2.3697084667502244)
No.37:B19->Mo2(2.3732200798283816)
No.38:B20->Mo2(2.3696389277873573)
No.39:Mo4->Mo3(3.143335452913508)
No.40:Mo4->Mo3(3.1274350304620087)
No.41:V5->Mo3(3.03978493414012)
No.42:V5->Mo3(3.0400513119418027)
No.43:V7->Mo3(3.0399461432580073)
No.44:V7->Mo3(3.0398002666473327)
No.45:B9->Mo3(2.3661385364103409)
No.46:B10->Mo3(2.3610285546205252)
No.47:B11->Mo3(2.3659012713578913)
No.48:B12->Mo3(2.3608226285727798)
No.49:B13->Mo3(2.3660141147072125)
No.50:B14->Mo3(2.360905697535288)
No.51:B15->Mo3(2.366161225257883)
No.52:B16->Mo3(2.3610663868738238)
No.53:B21->Mo3(2.3737377402193474)
No.54:B22->Mo3(2.3696488259385364)
No.55:B23->Mo3(2.3739093435510124)
No.56:B24->Mo3(2.3697954683479008)
No.57:V6->Mo4(3.0397030539623313)
No.58:V6->Mo4(3.0401330407169502)
No.59:V8->Mo4(3.039634376953821)
No.60:V8->Mo4(3.0401122575436812)
No.61:B9->Mo4(2.3649421762436234)
No.62:B10->Mo4(2.3612886710694121)
No.63:B11->Mo4(2.3648769263002887)
No.64:B12->Mo4(2.3613028554890398)
No.65:B13->Mo4(2.3649809727014612)
No.66:B14->Mo4(2.3613165424445848)
No.67:B15->Mo4(2.3650037083159718)
No.68:B16->Mo4(2.3613489938669896)
No.69:B21->Mo4(2.3731177727738175)
No.70:B22->Mo4(2.3697462658111714)
No.71:B23->Mo4(2.3732398049663002)
No.72:B24->Mo4(2.3697964825342535)
No.73:V6->V5(3.1288811535232322)
No.74:V6->V5(3.1418893402399521)
No.75:V7->V5(3.0370166403199197)
No.76:V7->V5(3.0366886095433712)
No.77:B9->V5(2.3314785782230065)
No.78:B10->V5(2.3333691130901864)
No.79:B11->V5(2.3316618361086179)
No.80:B12->V5(2.3334829918642015)
No.81:B17->V5(2.3422595928570709)
No.82:B18->V5(2.3454957042942874)
No.83:B19->V5(2.3420059079216062)
No.84:B20->V5(2.3452657904325758)
No.85:B21->V5(2.3420868520088138)
No.86:B22->V5(2.3453475044285139)
No.87:B23->V5(2.3420800294781499)
No.88:B24->V5(2.3453853596621101)
No.89:V8->V6(3.0371603807143952)
No.90:V8->V6(3.0365449619851614)
No.91:B9->V6(2.3305981242728269)
No.92:B10->V6(2.333954178304479)
No.93:B11->V6(2.3303356753933424)
No.94:B12->V6(2.3336138277027718)
No.95:B17->V6(2.3415210980575614)
No.96:B18->V6(2.3454903161879352)
No.97:B19->V6(2.3414329311206314)
No.98:B20->V6(2.3453772096557652)
No.99:B21->V6(2.3413477633619286)
No.100:B22->V6(2.3452679077420431)
No.101:B23->V6(2.341554525060352)
No.102:B24->V6(2.3455284469317763)
No.103:V8->V7(3.1288251728431375)
No.104:V8->V7(3.1419453771363566)
No.105:B13->V7(2.3315316990937047)
No.106:B14->V7(2.3334512452241909)
No.107:B15->V7(2.3314075599951067)
No.108:B16->V7(2.3332638370531793)
No.109:B17->V7(2.3421574181582789)
No.110:B18->V7(2.3453165634837316)
No.111:B19->V7(2.3421946905462674)
No.112:B20->V7(2.3454145175806751)
No.113:B21->V7(2.3420766195273348)
No.114:B22->V7(2.3453550098107732)
No.115:B23->V7(2.3421736114587239)
No.116:B24->V7(2.3454722552315772)
No.117:B13->V8(2.3300272833339553)
No.118:B14->V8(2.333464774430678)
No.119:B15->V8(2.330643699016306)
No.120:B16->V8(2.3340108183380526)
No.121:B17->V8(2.3417402670323346)
No.122:B18->V8(2.3456953626045722)
No.123:B19->V8(2.341208955431799)
No.124:B20->V8(2.3452335032486507)
No.125:B21->V8(2.3414553238029367)
No.126:B22->V8(2.3455114122624168)
No.127:B23->V8(2.3414389669428304)
No.128:B24->V8(2.3454711647182043)
No.129:B10->B9(3.1348834115522415)
No.130:B10->B9(3.135888839907488)
No.131:B11->B9(3.4561092599045597)
No.132:B13->B9(3.0367754611073634)
No.133:B13->B9(3.0369297850677515)
No.134:B15->B9(1.8110101821056925)
No.135:B17->B9(2.9962601193500253)
No.136:B17->B9(3.0836768642221748)
No.137:B19->B9(1.7515637865391593)
No.138:B21->B9(3.0837207848126051)
No.139:B21->B9(2.9963083265165826)
No.140:B23->B9(1.7514531617358189)
No.141:B12->B10(3.4512868450693261)
No.142:B14->B10(3.0367384448045973)
No.143:B14->B10(3.0369668004422752)
No.144:B16->B10(1.8157993387101254)
No.145:B18->B10(2.992379147504526)
No.146:B18->B10(3.0875975681626837)
No.147:B20->B10(1.7514535964745568)
No.148:B22->B10(3.0875503344035726)
No.149:B22->B10(2.992516721714289)
No.150:B24->B10(1.7512460649398029)
No.151:B12->B11(3.1347767089626037)
No.152:B12->B11(3.1359956958212378)
No.153:B13->B11(1.8110126843304095)
No.154:B15->B11(3.0369038231836343)
No.155:B15->B11(3.0368014233782898)
No.156:B17->B11(1.7515891902764162)
No.157:B19->B11(3.0837090880757061)
No.158:B19->B11(2.996227484992144)
No.159:B21->B11(1.751471984318139)
No.160:B23->B11(2.9961949650037041)
No.161:B23->B11(3.0838338559621312)
No.162:B14->B12(1.8158122367976657)
No.163:B16->B12(3.0369491301746607)
No.164:B16->B12(3.0367561132166183)
No.165:B18->B12(1.751492854192658)
No.166:B20->B12(3.0876519509777385)
No.167:B20->B12(2.9923240566238447)
No.168:B22->B12(1.7512366090793863)
No.169:B24->B12(2.9923797136809411)
No.170:B24->B12(3.0876875073882699)
No.171:B14->B13(3.1347943513774101)
No.172:B14->B13(3.1359778657365869)
No.173:B15->B13(3.455846998440586)
No.174:B17->B13(3.0838125569094963)
No.175:B17->B13(2.9962160343376656)
No.176:B19->B13(1.7514826846677103)
No.177:B21->B13(2.9961278900876382)
No.178:B21->B13(3.0838119253516547)
No.179:B23->B13(1.7516009444679612)
No.180:B16->B14(3.4510807037250886)
No.181:B18->B14(3.0877730362839344)
No.182:B18->B14(2.992293332199663)
No.183:B20->B14(1.7513548516418467)
No.184:B22->B14(2.9923837974714935)
No.185:B22->B14(3.0875946423039329)
No.186:B24->B14(1.7513949592422124)
No.187:B16->B15(3.1348529006060817)
No.188:B16->B15(3.1359194531307857)
No.189:B17->B15(1.7514206513961257)
No.190:B19->B15(2.9962373813617136)
No.191:B19->B15(3.083792231897744)
No.192:B21->B15(1.7515173916304312)
No.193:B23->B15(3.0838639594858042)
No.194:B23->B15(2.9960772516114402)
No.195:B18->B16(1.7512789439613412)
No.196:B20->B16(2.9923205315946668)
No.197:B20->B16(3.0877472180114984)
No.198:B22->B16(1.7513029964452884)
No.199:B24->B16(3.0876701378436664)
No.200:B24->B16(2.9923099761430705)
No.201:B18->B17(3.1349644889759589)
No.202:B18->B17(3.1358074819769981)
No.203:B19->B17(3.4852598141996234)
No.204:B19->B17(3.4851545988136543)
No.205:B21->B17(3.0368562894796218)
No.206:B21->B17(3.0368489522038375)
No.207:B23->B17(1.7098860681816626)
No.208:B20->B18(3.4831114110125143)
No.209:B20->B18(3.4831411175614417)
No.210:B22->B18(3.0368230697827121)
No.211:B22->B18(3.036882172294757)
No.212:B24->B18(1.7057520775815846)
No.213:B20->B19(3.1349049841118828)
No.214:B20->B19(3.1358668673065822)
No.215:B21->B19(1.709959384474623)
No.216:B23->B19(3.0367380533666832)
No.217:B23->B19(3.0369671939596965)
No.218:B22->B20(1.7058478148163099)
No.219:B24->B20(3.0367607421403173)
No.220:B24->B20(3.0369444983210805)
No.221:B22->B21(3.1349162823292889)
No.222:B22->B21(3.135855508701491)
No.223:B23->B21(3.4850535762656389)
No.224:B23->B21(3.4851544200324387)
No.225:B24->B22(3.4830739270259254)
No.226:B24->B22(3.4832123153908117)
No.227:B24->B23(3.1349564039878768)
No.228:B24->B23(3.1358153039095988)
-16.03206   0.00000   0.00000   0.00000   0.00000   0.00000   0.00000   0.00000   0.00000   0.00000   0.00000   0.00000   0.00000   0.00000   0.00000   0.00000   0.00000   0.00000   0.00000   0.00000   0.00000   0.00000   0.00000   0.00000   0.00000   0.00000   0.00000   0.00000   0.00000   0.00000   0.00000   0.00000   0.00000   0.00000   0.00000   0.00000   0.00000   0.00000   0.00000   0.00000   0.00000   0.00000   0.00000   0.00000   0.00000   0.00000   0.00000   0.00000   0.00000   0.00000   0.00000   0.00000   0.00000   0.00000   0.00000   0.00000   0.00000   0.00000   0.00000   0.00000   0.00000   0.00000   0.00000   0.00000   0.00000   0.00000   0.00000   0.00000   0.00000   0.00000   0.00000   0.00000   0.00000   0.00000   0.00000   0.00000   0.00000   0.00000   0.00000   0.00000   0.00000   0.00000   0.00000   0.00000   0.00000   0.00000   0.00000   0.00000   0.00000   0.00000   0.00000   0.00000   0.00000   0.00000   0.00000   0.00000   0.00000   0.00000   0.00000   0.00000   0.00000   0.00000   0.00000   0.00000   0.00000   0.00000   0.00000   0.00000   0.00000   0.00000   0.00000   0.00000   0.00000   0.00000   0.00000   0.00000   0.00000   0.00000   0.00000   0.00000   0.00000   0.00000   0.00000   0.00000   0.00000   0.00000   0.00000   0.00000   0.00000   0.00000   0.00000   0.00000   0.00000   0.00000   0.00000   0.00000   0.00000   0.00000   0.00000   0.00000   0.00000   0.00000   0.00000   0.00000   0.00000   0.00000   0.00000   0.00000   0.00000   0.00000   0.00000   0.00000   0.00000   0.00000   0.00000   0.00000   0.00000   0.00000   0.00000   0.00000   0.00000   0.00000   0.00000   0.00000   0.00000   0.00000   0.00000   0.00000   0.00000   0.00000   0.00000   0.00000   0.00000   0.00000   0.00000   0.00000   0.00000   0.00000   0.00000   0.00000   0.00000   0.00000   0.00000   0.00000   0.00000   0.00000   0.00000   0.00000   0.00000   0.00000   0.00000   0.00000   0.00000   0.00000   0.00000   0.00000   0.00000   0.00000   0.00000   0.00000   0.00000   0.00000   0.00000   0.00000   0.00000   0.00000   0.00000   0.00000   0.00000   0.00000   0.00000   0.00000   0.00000   0.00000   0.00000   0.00000   0.00000   0.00000   0.00000   0.00000   0.00000   0.00000   0.00000   0.00000   0.00000   0.00000   0.00000   0.00000   0.00000   0.00000   0.00000   0.00000   0.00000   0.00000   0.00000   0.00000   0.00000   0.00000   0.00000   0.00000   0.00000   0.00000   0.00000   0.00000   0.00000   0.00000   0.00000   0.00000   0.00000   0.00000   0.00000   0.00000   0.00000   0.00000   0.00000   0.00000   0.00000   0.00000   0.00000   0.00000   0.00000   0.00000   0.00000   0.00000   0.00000   0.00000   0.00000   0.00000   0.00000   0.00000   0.00000   0.00000   0.00000   0.00000   0.00000   0.00000   0.00000   0.00000   0.00000   0.00000   0.00000   0.00000   0.00000   0.00000   0.00000   0.00000   0.00000   0.00000   0.00000   0.00000   0.00000   0.00000   0.00000   0.00000   0.00000   0.00000   0.00000   0.00000   0.00000   0.00000   0.00000   0.00000   0.00000   0.00000   0.00000   0.00000   0.00000   0.00000   0.00000   0.00000   0.00000   0.00000   0.00000   0.00000   0.00000   0.00000   0.00000   0.00000   0.00000   0.00000   0.00000   0.00000   0.00000   0.00000   0.00000   0.00000   0.00000   0.00000   0.00000   0.00000   0.00000   0.00000   0.00000   0.00000   0.00000   0.00000   0.00000   0.00000   0.00000   0.00000   0.00000   0.00000   0.00000   0.00000   0.00000   0.00000   0.00000   0.00000   0.00000   0.00000   0.00000   0.00000   0.00000   0.00000   0.00000   0.00000   0.00000   0.00000   0.00000   0.00000   0.00000   0.00000   0.00000   0.00000   0.00000   0.00000   0.00000   0.00000   0.00000   0.00000   0.00000   0.00000   0.00000   0.00000   0.00000   0.00000   0.00000   0.00000   0.00000   0.00000   0.00000   0.00000   0.00000   0.00000   0.00000   0.00000   0.00000   0.00000   0.00000   0.00000   0.00000   0.00000   0.00000   0.00000   0.00000   0.00000   0.00000   0.00000   0.00000   0.00000   0.00000   0.00000   0.00000   0.00000   0.00000   0.00000   0.00000   0.00000   0.00000   0.00000   0.00000   0.00000   0.00000   0.00000   0.00000   0.00000   0.00000   0.00000   0.00000   0.00000   0.00000   0.00000   0.00000   0.00000   0.00000   0.00000   0.00000   0.00000   0.00000   0.00000   0.00000   0.00000   0.00000   0.00000   0.00000   0.00000   0.00000   0.00000   0.00000   0.00000   0.00000   0.00000   0.00000   0.00000   0.00000   0.00000   0.00000   0.00000   0.00000   0.00000   0.00000   0.00000   0.00000   0.00000   0.00000   0.00000   0.00000   0.00000   0.00000
-15.98196   0.00000   0.00000   0.00000   0.00000   0.00000   0.00000   0.00000   0.00000   0.00000   0.00000   0.00000   0.00000   0.00000   0.00000   0.00000   0.00000   0.00000   0.00000   0.00000   0.00000   0.00000   0.00000   0.00000   0.00000   0.00000   0.00000   0.00000   0.00000   0.00000   0.00000   0.00000   0.00000   0.00000   0.00000   0.00000   0.00000   0.00000   0.00000   0.00000   0.00000   0.00000   0.00000   0.00000   0.00000   0.00000   0.00000   0.00000   0.00000   0.00000   0.00000   0.00000   0.00000   0.00000   0.00000   0.00000   0.00000   0.00000   0.00000   0.00000   0.00000   0.00000   0.00000   0.00000   0.00000   0.00000   0.00000   0.00000   0.00000   0.00000   0.00000   0.00000   0.00000   0.00000   0.00000   0.00000   0.00000   0.00000   0.00000   0.00000   0.00000   0.00000   0.00000   0.00000   0.00000   0.00000   0.00000   0.00000   0.00000   0.00000   0.00000   0.00000   0.00000   0.00000   0.00000   0.00000   0.00000   0.00000   0.00000   0.00000   0.00000   0.00000   0.00000   0.00000   0.00000   0.00000   0.00000   0.00000   0.00000   0.00000   0.00000   0.00000   0.00000   0.00000   0.00000   0.00000   0.00000   0.00000   0.00000   0.00000   0.00000   0.00000   0.00000   0.00000   0.00000   0.00000   0.00000   0.00000   0.00000   0.00000   0.00000   0.00000   0.00000   0.00000   0.00000   0.00000   0.00000   0.00000   0.00000   0.00000   0.00000   0.00000   0.00000   0.00000   0.00000   0.00000   0.00000   0.00000   0.00000   0.00000   0.00000   0.00000   0.00000   0.00000   0.00000   0.00000   0.00000   0.00000   0.00000   0.00000   0.00000   0.00000   0.00000   0.00000   0.00000   0.00000   0.00000   0.00000   0.00000   0.00000   0.00000   0.00000   0.00000   0.00000   0.00000   0.00000   0.00000   0.00000   0.00000   0.00000   0.00000   0.00000   0.00000   0.00000   0.00000   0.00000   0.00000   0.00000   0.00000   0.00000   0.00000   0.00000   0.00000   0.00000   0.00000   0.00000   0.00000   0.00000   0.00000   0.00000   0.00000   0.00000   0.00000   0.00000   0.00000   0.00000   0.00000   0.00000   0.00000   0.00000   0.00000   0.00000   0.00000   0.00000   0.00000   0.00000   0.00000   0.00000   0.00000   0.00000   0.00000   0.00000   0.00000   0.00000   0.00000   0.00000   0.00000   0.00000   0.00000   0.00000   0.00000   0.00000   0.00000   0.00000   0.00000   0.00000   0.00000   0.00000   0.00000   0.00000   0.00000   0.00000   0.00000   0.00000   0.00000   0.00000   0.00000   0.00000   0.00000   0.00000   0.00000   0.00000   0.00000   0.00000   0.00000   0.00000   0.00000   0.00000   0.00000   0.00000   0.00000   0.00000   0.00000   0.00000   0.00000   0.00000   0.00000   0.00000   0.00000   0.00000   0.00000   0.00000   0.00000   0.00000   0.00000   0.00000   0.00000   0.00000   0.00000   0.00000   0.00000   0.00000   0.00000   0.00000   0.00000   0.00000   0.00000   0.00000   0.00000   0.00000   0.00000   0.00000   0.00000   0.00000   0.00000   0.00000   0.00000   0.00000   0.00000   0.00000   0.00000   0.00000   0.00000   0.00000   0.00000   0.00000   0.00000   0.00000   0.00000   0.00000   0.00000   0.00000   0.00000   0.00000   0.00000   0.00000   0.00000   0.00000   0.00000   0.00000   0.00000   0.00000   0.00000   0.00000   0.00000   0.00000   0.00000   0.00000   0.00000   0.00000   0.00000   0.00000   0.00000   0.00000   0.00000   0.00000   0.00000   0.00000   0.00000   0.00000   0.00000   0.00000   0.00000   0.00000   0.00000   0.00000   0.00000   0.00000   0.00000   0.00000   0.00000   0.00000   0.00000   0.00000   0.00000   0.00000   0.00000   0.00000   0.00000   0.00000   0.00000   0.00000   0.00000   0.00000   0.00000   0.00000   0.00000   0.00000   0.00000   0.00000   0.00000   0.00000   0.00000   0.00000   0.00000   0.00000   0.00000   0.00000   0.00000   0.00000   0.00000   0.00000   0.00000   0.00000   0.00000   0.00000   0.00000   0.00000   0.00000   0.00000   0.00000   0.00000   0.00000   0.00000   0.00000   0.00000   0.00000   0.00000   0.00000   0.00000   0.00000   0.00000   0.00000   0.00000   0.00000   0.00000   0.00000   0.00000   0.00000   0.00000   0.00000   0.00000   0.00000   0.00000   0.00000   0.00000   0.00000   0.00000   0.00000   0.00000   0.00000   0.00000   0.00000   0.00000   0.00000   0.00000   0.00000   0.00000   0.00000   0.00000   0.00000   0.00000   0.00000   0.00000   0.00000   0.00000   0.00000   0.00000   0.00000   0.00000   0.00000   0.00000   0.00000   0.00000   0.00000   0.00000   0.00000   0.00000   0.00000   0.00000   0.00000   0.00000   0.00000   0.00000   0.00000   0.00000   0.00000   0.00000   0.00000
-15.93186   0.00000   0.00000   0.00000   0.00000   0.00000   0.00000   0.00000   0.00000   0.00000   0.00000   0.00000   0.00000   0.00000   0.00000   0.00000   0.00000   0.00000   0.00000   0.00000   0.00000   0.00000   0.00000   0.00000   0.00000   0.00000   0.00000   0.00000   0.00000   0.00000   0.00000   0.00000   0.00000   0.00000   0.00000   0.00000   0.00000   0.00000   0.00000   0.00000   0.00000   0.00000   0.00000   0.00000   0.00000   0.00000   0.00000   0.00000   0.00000   0.00000   0.00000   0.00000   0.00000   0.00000   0.00000   0.00000   0.00000   0.00000   0.00000   0.00000   0.00000   0.00000   0.00000   0.00000   0.00000   0.00000   0.00000   0.00000   0.00000   0.00000   0.00000   0.00000   0.00000   0.00000   0.00000   0.00000   0.00000   0.00000   0.00000   0.00000   0.00000   0.00000   0.00000   0.00000   0.00000   0.00000   0.00000   0.00000   0.00000   0.00000   0.00000   0.00000   0.00000   0.00000   0.00000   0.00000   0.00000   0.00000   0.00000   0.00000   0.00000   0.00000   0.00000   0.00000   0.00000   0.00000   0.00000   0.00000   0.00000   0.00000   0.00000   0.00000   0.00000   0.00000   0.00000   0.00000   0.00000   0.00000   0.00000   0.00000   0.00000   0.00000   0.00000   0.00000   0.00000   0.00000   0.00000   0.00000   0.00000   0.00000   0.00000   0.00000   0.00000   0.00000   0.00000   0.00000   0.00000   0.00000   0.00000   0.00000   0.00000   0.00000   0.00000   0.00000   0.00000   0.00000   0.00000   0.00000   0.00000   0.00000   0.00000   0.00000   0.00000   0.00000   0.00000   0.00000   0.00000   0.00000   0.00000   0.00000   0.00000   0.00000   0.00000   0.00000   0.00000   0.00000   0.00000   0.00000   0.00000   0.00000   0.00000   0.00000   0.00000   0.00000   0.00000   0.00000   0.00000   0.00000   0.00000   0.00000   0.00000   0.00000   0.00000   0.00000   0.00000   0.00000   0.00000   0.00000   0.00000   0.00000   0.00000   0.00000   0.00000   0.00000   0.00000   0.00000   0.00000   0.00000   0.00000   0.00000   0.00000   0.00000   0.00000   0.00000   0.00000   0.00000   0.00000   0.00000   0.00000   0.00000   0.00000   0.00000   0.00000   0.00000   0.00000   0.00000   0.00000   0.00000   0.00000   0.00000   0.00000   0.00000   0.00000   0.00000   0.00000   0.00000   0.00000   0.00000   0.00000   0.00000   0.00000   0.00000   0.00000   0.00000   0.00000   0.00000   0.00000   0.00000   0.00000   0.00000   0.00000   0.00000   0.00000   0.00000   0.00000   0.00000   0.00000   0.00000   0.00000   0.00000   0.00000   0.00000   0.00000   0.00000   0.00000   0.00000   0.00000   0.00000   0.00000   0.00000   0.00000   0.00000   0.00000   0.00000   0.00000   0.00000   0.00000   0.00000   0.00000   0.00000   0.00000   0.00000   0.00000   0.00000   0.00000   0.00000   0.00000   0.00000   0.00000   0.00000   0.00000   0.00000   0.00000   0.00000   0.00000   0.00000   0.00000   0.00000   0.00000   0.00000   0.00000   0.00000   0.00000   0.00000   0.00000   0.00000   0.00000   0.00000   0.00000   0.00000   0.00000   0.00000   0.00000   0.00000   0.00000   0.00000   0.00000   0.00000   0.00000   0.00000   0.00000   0.00000   0.00000   0.00000   0.00000   0.00000   0.00000   0.00000   0.00000   0.00000   0.00000   0.00000   0.00000   0.00000   0.00000   0.00000   0.00000   0.00000   0.00000   0.00000   0.00000   0.00000   0.00000   0.00000   0.00000   0.00000   0.00000   0.00000   0.00000   0.00000   0.00000   0.00000   0.00000   0.00000   0.00000   0.00000   0.00000   0.00000   0.00000   0.00000   0.00000   0.00000   0.00000   0.00000   0.00000   0.00000   0.00000   0.00000   0.00000   0.00000   0.00000   0.00000   0.00000   0.00000   0.00000   0.00000   0.00000   0.00000   0.00000   0.00000   0.00000   0.00000   0.00000   0.00000   0.00000   0.00000   0.00000   0.00000   0.00000   0.00000   0.00000   0.00000   0.00000   0.00000   0.00000   0.00000   0.00000   0.00000   0.00000   0.00000   0.00000   0.00000   0.00000   0.00000   0.00000   0.00000   0.00000   0.00000   0.00000   0.00000   0.00000   0.00000   0.00000   0.00000   0.00000   0.00000   0.00000   0.00000   0.00000   0.00000   0.00000   0.00000   0.00000   0.00000   0.00000   0.00000   0.00000   0.00000   0.00000   0.00000   0.00000   0.00000   0.00000   0.00000   0.00000   0.00000   0.00000   0.00000   0.00000   0.00000   0.00000   0.00000   0.00000   0.00000   0.00000   0.00000   0.00000   0.00000   0.00000   0.00000   0.00000   0.00000   0.00000   0.00000   0.00000   0.00000   0.00000   0.00000   0.00000   0.00000   0.00000   0.00000   0.00000   0.00000   0.00000   0.00000   0.00000   0.00000   0.00000
-15.88176   0.00000   0.00000   0.00000   0.00000   0.00000   0.00000   0.00000   0.00000   0.00000   0.00000   0.00000   0.00000   0.00000   0.00000   0.00000   0.00000   0.00000   0.00000   0.00000   0.00000   0.00000   0.00000   0.00000   0.00000   0.00000   0.00000   0.00000   0.00000   0.00000   0.00000   0.00000   0.00000   0.00000   0.00000   0.00000   0.00000   0.00000   0.00000   0.00000   0.00000   0.00000   0.00000   0.00000   0.00000   0.00000   0.00000   0.00000   0.00000   0.00000   0.00000   0.00000   0.00000   0.00000   0.00000   0.00000   0.00000   0.00000   0.00000   0.00000   0.00000   0.00000   0.00000   0.00000   0.00000   0.00000   0.00000   0.00000   0.00000   0.00000   0.00000   0.00000   0.00000   0.00000   0.00000   0.00000   0.00000   0.00000   0.00000   0.00000   0.00000   0.00000   0.00000   0.00000   0.00000   0.00000   0.00000   0.00000   0.00000   0.00000   0.00000   0.00000   0.00000   0.00000   0.00000   0.00000   0.00000   0.00000   0.00000   0.00000   0.00000   0.00000   0.00000   0.00000   0.00000   0.00000   0.00000   0.00000   0.00000   0.00000   0.00000   0.00000   0.00000   0.00000   0.00000   0.00000   0.00000   0.00000   0.00000   0.00000   0.00000   0.00000   0.00000   0.00000   0.00000   0.00000   0.00000   0.00000   0.00000   0.00000   0.00000   0.00000   0.00000   0.00000   0.00000   0.00000   0.00000   0.00000   0.00000   0.00000   0.00000   0.00000   0.00000   0.00000   0.00000   0.00000   0.00000   0.00000   0.00000   0.00000   0.00000   0.00000   0.00000   0.00000   0.00000   0.00000   0.00000   0.00000   0.00000   0.00000   0.00000   0.00000   0.00000   0.00000   0.00000   0.00000   0.00000   0.00000   0.00000   0.00000   0.00000   0.00000   0.00000   0.00000   0.00000   0.00000   0.00000   0.00000   0.00000   0.00000   0.00000   0.00000   0.00000   0.00000   0.00000   0.00000   0.00000   0.00000   0.00000   0.00000   0.00000   0.00000   0.00000   0.00000   0.00000   0.00000   0.00000   0.00000   0.00000   0.00000   0.00000   0.00000   0.00000   0.00000   0.00000   0.00000   0.00000   0.00000   0.00000   0.00000   0.00000   0.00000   0.00000   0.00000   0.00000   0.00000   0.00000   0.00000   0.00000   0.00000   0.00000   0.00000   0.00000   0.00000   0.00000   0.00000   0.00000   0.00000   0.00000   0.00000   0.00000   0.00000   0.00000   0.00000   0.00000   0.00000   0.00000   0.00000   0.00000   0.00000   0.00000   0.00000   0.00000   0.00000   0.00000   0.00000   0.00000   0.00000   0.00000   0.00000   0.00000   0.00000   0.00000   0.00000   0.00000   0.00000   0.00000   0.00000   0.00000   0.00000   0.00000   0.00000   0.00000   0.00000   0.00000   0.00000   0.00000   0.00000   0.00000   0.00000   0.00000   0.00000   0.00000   0.00000   0.00000   0.00000   0.00000   0.00000   0.00000   0.00000   0.00000   0.00000   0.00000   0.00000   0.00000   0.00000   0.00000   0.00000   0.00000   0.00000   0.00000   0.00000   0.00000   0.00000   0.00000   0.00000   0.00000   0.00000   0.00000   0.00000   0.00000   0.00000   0.00000   0.00000   0.00000   0.00000   0.00000   0.00000   0.00000   0.00000   0.00000   0.00000   0.00000   0.00000   0.00000   0.00000   0.00000   0.00000   0.00000   0.00000   0.00000   0.00000   0.00000   0.00000   0.00000   0.00000   0.00000   0.00000   0.00000   0.00000   0.00000   0.00000   0.00000   0.00000   0.00000   0.00000   0.00000   0.00000   0.00000   0.00000   0.00000   0.00000   0.00000   0.00000   0.00000   0.00000   0.00000   0.00000   0.00000   0.00000   0.00000   0.00000   0.00000   0.00000   0.00000   0.00000   0.00000   0.00000   0.00000   0.00000   0.00000   0.00000   0.00000   0.00000   0.00000   0.00000   0.00000   0.00000   0.00000   0.00000   0.00000   0.00000   0.00000   0.00000   0.00000   0.00000   0.00000   0.00000   0.00000   0.00000   0.00000   0.00000   0.00000   0.00000   0.00000   0.00000   0.00000   0.00000   0.00000   0.00000   0.00000   0.00000   0.00000   0.00000   0.00000   0.00000   0.00000   0.00000   0.00000   0.00000   0.00000   0.00000   0.00000   0.00000   0.00000   0.00000   0.00000   0.00000   0.00000   0.00000   0.00000   0.00000   0.00000   0.00000   0.00000   0.00000   0.00000   0.00000   0.00000   0.00000   0.00000   0.00000   0.00000   0.00000   0.00000   0.00000   0.00000   0.00000   0.00000   0.00000   0.00000   0.00000   0.00000   0.00000   0.00000   0.00000   0.00000   0.00000   0.00000   0.00000   0.00000   0.00000   0.00000   0.00000   0.00000   0.00000   0.00000   0.00000   0.00000   0.00000   0.00000   0.00000   0.00000   0.00000   0.00000   0.00000   0.00000   0.00000   0.00000