ESCALE ; pCOOP file generated by LOBSTER. Energy is shifted such that the Fermi level lies at 0 eV.
       385          1        501  -6.92557e+00   1.81245e+01   9.10650e+00 
Average
No.1:Mo2->Mo1(3.1436781433548862)
No.2:Mo2->Mo1(3.1270923578391567)
No.3:Mo3->Mo1(3.0372109395206106)
No.4:Mo3->Mo1(3.0364943321314657)
No.5:V5->Mo1(3.0396648004451636)
No.6:V5->Mo1(3.0400824069104257)
No.7:V7->Mo1(3.0401271714534075)
No.8:V7->Mo1(3.0397097958280908)
No.9:B9->Mo1(2.3662276984181001)
No.10:B10->Mo1(2.3609204607966041)
No.11:B11->Mo1(2.3661562579730901)
No.12:B12->Mo1(2.3608736321607964)
No.13:B13->Mo1(2.3660325013146837)
No.14:B14->Mo1(2.3607457750445522)
No.15:B15->Mo1(2.3663866518878378)
No.16:B16->Mo1(2.3611328054268004)
No.17:B17->Mo1(2.3739861146476313)
No.18:B18->Mo1(2.3697648718270123)
No.19:B19->Mo1(2.3737374863859104)
No.20:B20->Mo1(2.369474283864037)
No.21:B21->Mo1(3.8548609915270893)
No.22:B21->Mo1(3.8262538311257024)
No.23:B21->Mo1(3.8544967423388026)
No.24:B22->Mo1(3.8522308126982558)
No.25:B22->Mo1(3.8207960331362236)
No.26:B22->Mo1(3.8518347597050222)
No.27:B23->Mo1(3.8546053822979589)
No.28:B23->Mo1(3.826492054382741)
No.29:B23->Mo1(3.8544739343976002)
No.30:B24->Mo1(3.8519422651308313)
No.31:B24->Mo1(3.8210902200756443)
No.32:B24->Mo1(3.8518130706994098)
No.33:Mo4->Mo2(3.0368133665694108)
No.34:Mo4->Mo2(3.0368918846695534)
No.35:V6->Mo2(3.0399336140898026)
No.36:V6->Mo2(3.0398135831792166)
No.37:V8->Mo2(3.0403264807069514)
No.38:V8->Mo2(3.0395108016283783)
No.39:B9->Mo2(2.3650923216685378)
No.40:B10->Mo2(2.3612369949952567)
No.41:B11->Mo2(2.365103141015072)
No.42:B12->Mo2(2.3612651457102056)
No.43:B13->Mo2(2.3651663879675699)
No.44:B14->Mo2(2.3612646866871003)
No.45:B15->Mo2(2.3650942920590601)
No.46:B16->Mo2(2.3612750821606552)
No.47:B17->Mo2(2.3731995763542324)
No.48:B18->Mo2(2.3697084667502244)
No.49:B19->Mo2(2.3732200798283816)
No.50:B20->Mo2(2.3696389277873573)
No.51:B21->Mo2(3.8541819050959814)
No.52:B21->Mo2(3.8260300820795656)
No.53:B21->Mo2(3.8541959459376036)
No.54:B22->Mo2(3.8519900931716076)
No.55:B22->Mo2(3.8209795185252733)
No.56:B22->Mo2(3.851939094031215)
No.57:B23->Mo2(3.854131849280936)
No.58:B23->Mo2(3.8259357737504307)
No.59:B23->Mo2(3.8543787215011904)
No.60:B24->Mo2(3.851878757594791)
No.61:B24->Mo2(3.820947897205683)
No.62:B24->Mo2(3.8520946257047459)
No.63:Mo4->Mo3(3.143335452913508)
No.64:Mo4->Mo3(3.1274350304620087)
No.65:V5->Mo3(3.03978493414012)
No.66:V5->Mo3(3.0400513119418027)
No.67:V7->Mo3(3.0399461432580073)
No.68:V7->Mo3(3.0398002666473327)
No.69:B9->Mo3(2.3661385364103409)
No.70:B10->Mo3(2.3610285546205252)
No.71:B11->Mo3(2.3659012713578913)
No.72:B12->Mo3(2.3608226285727798)
No.73:B13->Mo3(2.3660141147072125)
No.74:B14->Mo3(2.360905697535288)
No.75:B15->Mo3(2.366161225257883)
No.76:B16->Mo3(2.3610663868738238)
No.77:B17->Mo3(3.8543540308375244)
No.78:B17->Mo3(3.8264899996712294)
No.79:B17->Mo3(3.854560142774301)
No.80:B18->Mo3(3.8519269135867136)
No.81:B18->Mo3(3.821027022986645)
No.82:B18->Mo3(3.8520492234943688)
No.83:B19->Mo3(3.8544225314696843)
No.84:B19->Mo3(3.8263312780268715)
No.85:B19->Mo3(3.8546751404581792)
No.86:B20->Mo3(3.8519091908232919)
No.87:B20->Mo3(3.8209451133741625)
No.88:B20->Mo3(3.8522000873861177)
No.89:B21->Mo3(2.3737377402193474)
No.90:B22->Mo3(2.3696488259385364)
No.91:B23->Mo3(2.3739093435510124)
No.92:B24->Mo3(2.3697954683479008)
No.93:V6->Mo4(3.0397030539623313)
No.94:V6->Mo4(3.0401330407169502)
No.95:V8->Mo4(3.039634376953821)
No.96:V8->Mo4(3.0401122575436812)
No.97:B9->Mo4(2.3649421762436234)
No.98:B10->Mo4(2.3612886710694121)
No.99:B11->Mo4(2.3648769263002887)
No.100:B12->Mo4(2.3613028554890398)
No.101:B13->Mo4(2.3649809727014612)
No.102:B14->Mo4(2.3613165424445848)
No.103:B15->Mo4(2.3650037083159718)
No.104:B16->Mo4(2.3613489938669896)
No.105:B17->Mo4(3.8541019238078684)
No.106:B17->Mo4(3.8260286876150706)
No.107:B17->Mo4(3.8540598775661645)
No.108:B18->Mo4(3.8521612660004712)
No.109:B18->Mo4(3.8210207974082793)
No.110:B18->Mo4(3.8520017729063656)
No.111:B19->Mo4(3.854100076303796)
No.112:B19->Mo4(3.825963831637984)
No.113:B19->Mo4(3.8541045376410161)
No.114:B20->Mo4(3.8520429871364898)
No.115:B20->Mo4(3.8210383842921738)
No.116:B20->Mo4(3.8520520817150929)
No.117:B21->Mo4(2.3731177727738175)
No.118:B22->Mo4(2.3697462658111714)
No.119:B23->Mo4(2.3732398049663002)
No.120:B24->Mo4(2.3697964825342535)
No.121:V6->V5(3.1288811535232322)
No.122:V6->V5(3.1418893402399521)
No.123:V7->V5(3.0370166403199197)
No.124:V7->V5(3.0366886095433712)
No.125:B9->V5(2.3314785782230065)
No.126:B10->V5(2.3333691130901864)
No.127:B11->V5(2.3316618361086179)
No.128:B12->V5(2.3334829918642015)
No.129:B13->V5(3.8286796744628795)
No.130:B13->V5(3.8698499454775197)
No.131:B13->V5(3.8284478262198709)
No.132:B14->V5(3.829833552114005)
No.133:B14->V5(3.8742012084996849)
No.134:B14->V5(3.8296429164646368)
No.135:B15->V5(3.8287078393243807)
No.136:B15->V5(3.8696591050335134)
No.137:B15->V5(3.8285787651517524)
No.138:B16->V5(3.8298752971627272)
No.139:B16->V5(3.8740760179608009)
No.140:B16->V5(3.8296825840831952)
No.141:B17->V5(2.3422595928570709)
No.142:B18->V5(2.3454957042942874)
No.143:B19->V5(2.3420059079216062)
No.144:B20->V5(2.3452657904325758)
No.145:B21->V5(2.3420868520088138)
No.146:B22->V5(2.3453475044285139)
No.147:B23->V5(2.3420800294781499)
No.148:B24->V5(2.3453853596621101)
No.149:V8->V6(3.0371603807143952)
No.150:V8->V6(3.0365449619851614)
No.151:B9->V6(2.3305981242728269)
No.152:B10->V6(2.333954178304479)
No.153:B11->V6(2.3303356753933424)
No.154:B12->V6(2.3336138277027718)
No.155:B13->V6(3.8281143691256507)
No.156:B13->V6(3.868957044889469)
No.157:B13->V6(3.8278930126527944)
No.158:B14->V6(3.8301526015579044)
No.159:B14->V6(3.8741490878459506)
No.160:B14->V6(3.829938815669538)
No.161:B15->V6(3.8279374925229428)
No.162:B15->V6(3.8692409411237985)
No.163:B15->V6(3.8278189185875959)
No.164:B16->V6(3.8299865877098789)
No.165:B16->V6(3.8745306523999146)
No.166:B16->V6(3.8297707130939602)
No.167:B17->V6(2.3415210980575614)
No.168:B18->V6(2.3454903161879352)
No.169:B19->V6(2.3414329311206314)
No.170:B20->V6(2.3453772096557652)
No.171:B21->V6(2.3413477633619286)
No.172:B22->V6(2.3452679077420431)
No.173:B23->V6(2.341554525060352)
No.174:B24->V6(2.3455284469317763)
No.175:V8->V7(3.1288251728431375)
No.176:V8->V7(3.1419453771363566)
No.177:B9->V7(3.8287386743255909)
No.178:B9->V7(3.8695623550179556)
No.179:B9->V7(3.8286446150982449)
No.180:B10->V7(3.8298937633187782)
No.181:B10->V7(3.8739172221832163)
No.182:B10->V7(3.8297821695826206)
No.183:B11->V7(3.8285419232772138)
No.184:B11->V7(3.86972101672138)
No.185:B11->V7(3.8287542633136877)
No.186:B12->V7(3.8296422335110916)
No.187:B12->V7(3.8741521633884832)
No.188:B12->V7(3.8298626907585658)
No.189:B13->V7(2.3315316990937047)
No.190:B14->V7(2.3334512452241909)
No.191:B15->V7(2.3314075599951067)
No.192:B16->V7(2.3332638370531793)
No.193:B17->V7(2.3421574181582789)
No.194:B18->V7(2.3453165634837316)
No.195:B19->V7(2.3421946905462674)
No.196:B20->V7(2.3454145175806751)
No.197:B21->V7(2.3420766195273348)
No.198:B22->V7(2.3453550098107732)
No.199:B23->V7(2.3421736114587239)
No.200:B24->V7(2.3454722552315772)
No.201:B9->V8(3.8277273986923492)
No.202:B9->V8(3.86932998816508)
No.203:B9->V8(3.8278718481273417)
No.204:B10->V8(3.8298486474262861)
No.205:B10->V8(3.874605450765106)
No.206:B10->V8(3.8299417684781778)
No.207:B11->V8(3.8279151875569783)
No.208:B11->V8(3.8685686928264449)
No.209:B11->V8(3.8283660650755906)
No.210:B12->V8(3.8299750674785757)
No.211:B12->V8(3.8739507088517802)
No.212:B12->V8(3.8304001971694874)
No.213:B13->V8(2.3300272833339553)
No.214:B14->V8(2.333464774430678)
No.215:B15->V8(2.330643699016306)
No.216:B16->V8(2.3340108183380526)
No.217:B17->V8(2.3417402670323346)
No.218:B18->V8(2.3456953626045722)
No.219:B19->V8(2.341208955431799)
No.220:B20->V8(2.3452335032486507)
No.221:B21->V8(2.3414553238029367)
No.222:B22->V8(2.3455114122624168)
No.223:B23->V8(2.3414389669428304)
No.224:B24->V8(2.3454711647182043)
No.225:B10->B9(3.1348834115522415)
No.226:B10->B9(3.135888839907488)
No.227:B11->B9(3.5356942980895534)
No.228:B11->B9(3.4561092599045597)
No.229:B11->B9(3.535871672540317)
No.230:B13->B9(3.0367754611073634)
No.231:B13->B9(3.0369297850677515)