  24   24    1    1
  2.0060284e+02   6.0798190e-10   6.0797292e-10   6.2707705e-10   5.0000000e-16
            1.000000e-04
  CAR
 DOS and projected DOS file by LOBSTER. Energy is shifted such that the Fermi level lies at 0 eV. 
     18.12453431      -6.92556589   501       9.10649824       1.00000000
-16.03206   0.00000   0.00000
-15.98196   0.00000   0.00000
-15.93186   0.00000   0.00000
-15.88176   0.00000   0.00000
-15.83166   0.00000   0.00000
-15.78156   0.00000   0.00000
-15.73146   0.00000   0.00000
-15.68136   0.00000   0.00000
-15.63126   0.00000   0.00000
-15.58116   0.00000   0.00000
-15.53106   0.00000   0.00000
-15.48096   0.00000   0.00000
-15.43086   0.00000   0.00000
-15.38076   0.00000   0.00000
-15.33066   0.00000   0.00000
-15.28056   0.00000   0.00000
-15.23046   0.00000   0.00000
-15.18036   0.00000   0.00000
-15.13026   0.00000   0.00000
-15.08016   0.00000   0.00000
-15.03006   0.00000   0.00000
-14.97996   0.00000   0.00000
-14.92986   0.00000   0.00000
-14.87976   0.00000   0.00000
-14.82966   0.00000   0.00000
-14.77956   0.03396   0.00170
-14.72946   0.31625   0.01755
-14.67936   0.47214   0.04120
-14.62926   0.60472   0.07150
-14.57916   0.69108   0.10612
-14.52906   0.80052   0.14623
-14.47896   0.88697   0.19066
-14.42886   0.95430   0.23847
-14.37876   1.02892   0.29002
-14.32866   1.11659   0.34596
-14.27856   1.18846   0.40551
-14.22846   1.24576   0.46792
-14.17836   1.31081   0.53359
-14.12826   1.38071   0.60277
-14.07816   1.46900   0.67636
-14.02806   1.64475   0.75876
-13.97796   1.65421   0.84164
-13.92786   1.64987   0.92430
-13.87776   1.66880   1.00791
-13.82766   1.70649   1.09340
-13.77756   1.85810   1.18649
-13.72745   2.01118   1.28725
-13.67735   2.16748   1.39585
-13.62725   2.08688   1.50040
-13.57715   1.97837   1.59952
-13.52705   1.94858   1.69714
-13.47695   2.00783   1.79773
-13.42685   2.16038   1.90597
-13.37675   2.27638   2.02001
-13.32665   2.48689   2.14461
-13.27655   2.68169   2.27896
-13.22645   2.71556   2.41501
-13.17635   2.76195   2.55339
-13.12625   2.95107   2.70123
-13.07615   3.10069   2.85658
-13.02605   3.25289   3.01955
-12.97595   3.22819   3.18128
-12.92585   3.32446   3.34784
-12.87575   3.06357   3.50132
-12.82565   2.95765   3.64950
-12.77555   3.39665   3.81968
-12.72545   3.88257   4.01419
-12.67535   4.29126   4.22919
-12.62525   4.54842   4.45706
-12.57515   4.92919   4.70402
-12.52505   4.55818   4.93238
-12.47495   4.53796   5.15973
-12.42485   5.04236   5.41236
-12.37475   4.92613   5.65916
-12.32465   4.84858   5.90207
-12.27455   4.48634   6.12684
-12.22445   4.47689   6.35113
-12.17435   4.45881   6.57452
-12.12425   4.28202   6.78905
-12.07415   4.51667   7.01534
-12.02405   4.96865   7.26427
-11.97395   4.82638   7.50607
-11.92385   5.05813   7.75948
-11.87375   5.08249   8.01412
-11.82365   5.26507   8.27790
-11.77355   5.68186   8.56256
-11.72345   6.09477   8.86791
-11.67335   6.21740   9.17940
-11.62325   6.71985   9.51607
-11.57315   6.88482   9.86100
-11.52305   6.65180  10.19425
-11.47295   6.99648  10.54478
-11.42285   6.86706  10.88882
-11.37275   5.05766  11.14221
-11.32265   4.07683  11.34646
-11.27255   3.64713  11.52918
-11.22244   3.19586  11.68930
-11.17234   4.71360  11.92545
-11.12224   5.36690  12.19433
-11.07214   5.27383  12.45855
-11.02204   5.49574  12.73389
-10.97194   5.91385  13.03018
-10.92184   5.94227  13.32788
-10.87174   6.32129  13.64458
-10.82164   6.48220  13.96934
-10.77154   5.69038  14.25443
-10.72144   5.09719  14.50980
-10.67134   4.29510  14.72499
-10.62124   3.41322  14.89599
-10.57114   2.90683  15.04162
-10.52104   2.60760  15.17226
-10.47094   2.48408  15.29672
-10.42084   2.41367  15.41764
-10.37074   2.46119  15.54095
-10.32064   2.97376  15.68993
-10.27054   2.62433  15.82141
-10.22044   2.31141  15.93721
-10.17034   1.94816  16.03482
-10.12024   2.10210  16.14013
-10.07014   2.26858  16.25379
-10.02004   2.10940  16.35947
 -9.96994   2.13525  16.46645
 -9.91984   2.28848  16.58110
 -9.86974   2.15775  16.68921
 -9.81964   2.45966  16.81243
 -9.76954   2.74214  16.94982
 -9.71944   3.39472  17.11989
 -9.66934   3.57495  17.29900
 -9.61924   4.30684  17.51477
 -9.56914   4.76044  17.75327
 -9.51904   4.89332  17.99843
 -9.46894   4.92095  18.24497
 -9.41884   4.75086  18.48299
 -9.36874   4.87078  18.72701
 -9.31864   5.08625  18.98184
 -9.26854   5.13343  19.23902
 -9.21844   5.29781  19.50444
 -9.16834   5.82801  19.79643
 -9.11824   5.27016  20.06046
 -9.06814   4.69798  20.29583
 -9.01804   4.45666  20.51911
 -8.96794   4.22294  20.73068
 -8.91784   4.21419  20.94182
 -8.86774   4.49772  21.16715
 -8.81764   4.92006  21.41365
 -8.76754   4.62054  21.64514
 -8.71743   4.56811  21.87400
 -8.66733   4.63413  22.10617
 -8.61723   4.63653  22.33846
 -8.56713   5.09626  22.59379
 -8.51703   5.04792  22.84669
 -8.46693   5.05676  23.10003
 -8.41683   5.11670  23.35638
 -8.36673   5.19250  23.61653
 -8.31663   5.30217  23.88217
 -8.26653   5.44914  24.15517
 -8.21643   5.80750  24.44613
 -8.16633   6.05135  24.74930
 -8.11623   5.32275  25.01597
 -8.06613   4.59017  25.24594
 -8.01603   4.33187  25.46297
 -7.96593   4.21782  25.67428
 -7.91583   4.30532  25.88998
 -7.86573   4.42647  26.11174
 -7.81563   4.66957  26.34569
 -7.76553   5.31166  26.61181
 -7.71543   5.42754  26.88373
 -7.66533   5.52622  27.16059
 -7.61523   5.47353  27.43482
 -7.56513   5.37003  27.70386
 -7.51503   5.33684  27.97123
 -7.46493   5.52725  28.24815
 -7.41483   5.93561  28.54552
 -7.36473   6.36174  28.86425
 -7.31463   6.43979  29.18688
 -7.26453   6.16132  29.49557
 -7.21443   5.96990  29.79466
 -7.16433   6.47487  30.11905
 -7.11423   6.29495  30.43443
 -7.06413   5.87416  30.72873
 -7.01403   5.57124  31.00785
 -6.96393   5.45618  31.28120
 -6.91383   6.05932  31.58478
 -6.86373   5.91372  31.88106
 -6.81363   6.48397  32.20590
 -6.76353   7.84619  32.59900
 -6.71343   9.20179  33.06001
 -6.66333   9.52274  33.53710
 -6.61323   9.18894  33.99747
 -6.56313   9.18145  34.45746
 -6.51303  10.96744  35.00693
 -6.46293  13.28155  35.67234
 -6.41283  11.79469  36.26326
 -6.36273  10.47505  36.78806
 -6.31263   9.83335  37.28071
 -6.26253   9.06864  37.73505
 -6.21242   9.03109  38.18751
 -6.16232   8.82540  38.62967
 -6.11222   8.36064  39.04854
 -6.06212   8.17247  39.45798
 -6.01202   9.13903  39.91585
 -5.96192   9.21418  40.37748
 -5.91182   9.42596  40.84972
 -5.86172  10.04933  41.35320
 -5.81162  10.33848  41.87116
 -5.76152  10.50987  42.39770
 -5.71142   9.01858  42.84953
 -5.66132   9.15389  43.30815
 -5.61122  10.55520  43.83696
 -5.56112  10.21807  44.34889
 -5.51102  10.70471  44.88520
 -5.46092  11.28796  45.45073
 -5.41082  12.91466  46.09775
 -5.36072  13.43124  46.77066
 -5.31062  12.80852  47.41237
 -5.26052  13.48222  48.08783
 -5.21042  12.60800  48.71950
 -5.16032  12.45249  49.34337
 -5.11022  12.97791  49.99357
 -5.06012  12.96089  50.64291
 -5.01002  12.60941  51.27464
 -4.95992  14.17304  51.98471
 -4.90982  14.60178  52.71627
 -4.85972  14.50938  53.44319
 -4.80962  17.24201  54.30702
 -4.75952  18.31665  55.22469
 -4.70942  18.61392  56.15725
 -4.65932  18.38440  57.07831
 -4.60922  17.32826  57.94646
 -4.55912  17.45913  58.82116
 -4.50902  16.27160  59.63638
 -4.45892  16.93411  60.48478
 -4.40882  16.96264  61.33461
 -4.35872  21.55091  62.41431
 -4.30862  20.03907  63.41828
 -4.25852  16.80473  64.26020
 -4.20842  12.80303  64.90163
 -4.15832  10.19305  65.41230
 -4.10822   9.80818  65.90370
 -4.05812  10.36503  66.42299
 -4.00802   9.56663  66.90228
 -3.95792   8.44163  67.32520
 -3.90782   8.76267  67.76422
 -3.85772   8.10493  68.17027
 -3.80762   8.36108  68.58917
 -3.75752   9.44707  69.06247
 -3.70741  11.08970  69.61806
 -3.65731  11.63001  70.20073
 -3.60721  10.91694  70.74767
 -3.55711   9.80796  71.23905
 -3.50701   8.82798  71.68133
 -3.45691   8.20600  72.09246
 -3.40681   7.59244  72.47284
 -3.35671   8.01826  72.87455
 -3.30661   7.67766  73.25921
 -3.25651   6.39435  73.57957
 -3.20641   5.47509  73.85387
 -3.15631   5.73799  74.14134
 -3.10621   5.38619  74.41119
 -3.05611   5.33978  74.67872
 -3.00601   5.15236  74.93685
 -2.95591   5.06599  75.19066
 -2.90581   5.10424  75.44638
 -2.85571   4.92636  75.69319
 -2.80561   5.61297  75.97440
 -2.75551   6.24847  76.28745
 -2.70541   6.67381  76.62181
 -2.65531   6.16301  76.93058
 -2.60521   5.66585  77.21444
 -2.55511   5.62636  77.49632
 -2.50501   5.71509  77.78265
 -2.45491   5.47926  78.05716
 -2.40481   4.94237  78.30477
 -2.35471   4.27339  78.51887
 -2.30461   3.98724  78.71863
 -2.25451   3.72621  78.90532
 -2.20441   3.36818  79.07406
 -2.15431   3.00898  79.22481
 -2.10421   2.71912  79.36104
 -2.05411   2.38699  79.48063
 -2.00401   2.04569  79.58312
 -1.95391   2.08156  79.68741
 -1.90381   2.26685  79.80098
 -1.85371   1.98824  79.90059
 -1.80361   1.78821  79.99018
 -1.75351   1.96484  80.08862
 -1.70341   2.52459  80.21510
 -1.65331   3.00644  80.36572
 -1.60321   3.51741  80.54195
 -1.55311   4.22774  80.75376
 -1.50301   4.78462  80.99347
 -1.45291   5.14936  81.25145
 -1.40281   5.04481  81.50420
 -1.35271   5.02627  81.75601
 -1.30261   4.98095  82.00556
 -1.25251   5.19253  82.26571
 -1.20240   5.50313  82.54142
 -1.15230   5.37300  82.81060
 -1.10220   5.49234  83.08577
 -1.05210   6.29324  83.40106
 -1.00200   6.73464  83.73847
 -0.95190   7.03458  84.09090
 -0.90180   7.13677  84.44846
 -0.85170   7.02910  84.80062
 -0.80160   6.49977  85.12626
 -0.75150   6.43087  85.44844
 -0.70140   6.31062  85.76461
 -0.65130   6.53372  86.09195
 -0.60120   7.26115  86.45573
 -0.55110   8.19343  86.86623
 -0.50100   8.73333  87.30377
 -0.45090   9.01766  87.75555
 -0.40080   9.72795  88.24293
 -0.35070  10.94933  88.79149
 -0.30060  10.82244  89.33370
 -0.25050   9.52187  89.81074
 -0.20040   8.25916  90.22453
 -0.15030   7.50766  90.60067
 -0.10020   7.66391  90.98463
 -0.05010   9.85120  91.47818
 -0.00000  10.42785  92.00061
  0.05010  12.16327  92.61000
  0.10020  13.00598  93.26160
  0.15030  12.51133  93.88842
  0.20040  12.35020  94.50717
  0.25050  12.75649  95.14627
  0.30060  14.64190  95.87983
  0.35070  15.91994  96.67742
  0.40080  16.85718  97.52197
  0.45090  18.15653  98.43162
  0.50100  16.74317  99.27045
  0.55110  17.04762 100.12454
  0.60120  17.24509 100.98852
  0.65130  20.33361 102.00724
  0.70140  20.59499 103.03905
  0.75150  20.41267 104.06173
  0.80160  20.93061 105.11036
  0.85170  20.94874 106.15990
  0.90180  20.72453 107.19820
  0.95190  22.24752 108.31281
  1.00200  24.32207 109.53135
  1.05210  22.93583 110.68044
  1.10220  22.29985 111.79766
  1.15230  23.88029 112.99407
  1.20240  24.04461 114.19871
  1.25251  21.81535 115.29166
  1.30261  20.90072 116.33879
  1.35271  18.18417 117.24982
  1.40281  17.27436 118.11527
  1.45291  15.58460 118.89606
  1.50301  14.15953 119.60546
  1.55311  13.29851 120.27172
  1.60321  13.13175 120.92962
  1.65331  11.50571 121.50606
  1.70341  11.89733 122.10212
  1.75351  12.98458 122.75265
  1.80361  13.82134 123.44510
  1.85371  12.85055 124.08891
  1.90381  11.14764 124.64741
  1.95391  12.78591 125.28799
  2.00401  13.91557 125.98516
  2.05411   9.83062 126.47768
  2.10421   9.34628 126.94593
  2.15431  10.13979 127.45394
  2.20441   8.37882 127.87372
  2.25451   7.91548 128.27028
  2.30461   8.95744 128.71905
  2.35471   8.86321 129.16310
  2.40481   8.08907 129.56837
  2.45491   7.99254 129.96879
  2.50501   8.04554 130.37188
  2.55511   6.94612 130.71988
  2.60521   7.08518 131.07485
  2.65531   8.20093 131.48572
  2.70541   8.83053 131.92813
  2.75551   9.32444 132.39528
  2.80561   9.61112 132.87680
  2.85571   9.04423 133.32992
  2.90581   8.23508 133.74250
  2.95591   7.44099 134.11529
  3.00601   7.25746 134.47890
  3.05611   7.67741 134.86353
  3.10621   7.86835 135.25774
  3.15631   7.59553 135.63828
  3.20641   7.98427 136.03829
  3.25651   7.92371 136.43527
  3.30661   7.75619 136.82386
  3.35671   8.21148 137.23525
  3.40681   7.41289 137.60664
  3.45691   8.31298 138.02312
  3.50701   8.55594 138.45178
  3.55711   7.99549 138.85235
  3.60721   8.04753 139.25554
  3.65731   7.52772 139.63268
  3.70741   6.78235 139.97247
  3.75752   6.20689 140.28344
  3.80762   5.74337 140.57118
  3.85772   5.73384 140.85845
  3.90782   4.99360 141.10863
  3.95792   4.92163 141.35521
  4.00802   5.05716 141.60857
  4.05812   5.69302 141.89379
  4.10822   6.51614 142.22025
  4.15832   6.83287 142.56258
  4.20842   6.94519 142.91053
  4.25852   7.31434 143.27698
  4.30862   7.05389 143.63039
  4.35872   6.99732 143.98095
  4.40882   7.19002 144.34117
  4.45892   7.77005 144.73046
  4.50902   7.81903 145.12219
  4.55912   7.22241 145.48404
  4.60922   6.60349 145.81487
  4.65932   6.14029 146.12250
  4.70942   6.07324 146.42677
  4.75952   6.45798 146.75032
  4.80962   6.39811 147.07086
  4.85972   6.08819 147.37588
  4.90982   6.02417 147.67770
  4.95992   6.05103 147.98085
  5.01002   6.55991 148.30951
  5.06012   6.94225 148.65732
  5.11022   7.03728 149.00988
  5.16032   7.00549 149.36086
  5.21042   7.03330 149.71323
  5.26052   7.28142 150.07803
  5.31062   7.57281 150.45743
  5.36072   7.98281 150.85737
  5.41082   8.12946 151.26466
  5.46092   8.24777 151.67787
  5.51102   8.43649 152.10054
  5.56112   8.56143 152.52947
  5.61122   8.64046 152.96236
  5.66132   8.69380 153.39792
  5.71142   8.79868 153.83874
  5.76152   9.16462 154.29789
  5.81162   8.98396 154.74799
  5.86172   9.16510 155.20716
  5.91182   9.46577 155.68140
  5.96192  10.12904 156.18886
  6.01202  10.21668 156.70072
  6.06212  10.23418 157.21345
  6.11222   9.70834 157.69984
  6.16232   9.91204 158.19644
  6.21242   9.27925 158.66133
  6.26253   8.78631 159.10153
  6.31263   8.47803 159.52628
  6.36273   8.31108 159.94267
  6.41283   8.76727 160.38191
  6.46293   8.92717 160.82916
  6.51303   8.34664 161.24733
  6.56313   7.26648 161.61138
  6.61323   7.11295 161.96774
  6.66333   7.25778 162.33136
  6.71343   7.37110 162.70065
  6.76353   7.78419 163.09064
  6.81363   8.10730 163.49682
  6.86373   7.99755 163.89750
  6.91383   7.30313 164.26338
  6.96393   7.26804 164.62751
  7.01403   8.03957 165.03030
  7.06413   9.12611 165.48752
  7.11423   9.39269 165.95809
  7.16433   9.45197 166.43164
  7.21443   9.70449 166.91784
  7.26453   9.41645 167.38960
  7.31463   8.85248 167.83311
  7.36473   9.86711 168.32746
  7.41483  11.30308 168.89375
  7.46493  11.22874 169.45631
  7.51503  10.90335 170.00257
  7.56513  10.06411 170.50678
  7.61523   9.76302 170.99591
  7.66533   9.73016 171.48339
  7.71543  10.05958 171.98738
  7.76553  11.15649 172.54632
  7.81563  10.51608 173.07318
  7.86573   9.62867 173.55558
  7.91583   9.18367 174.01568
  7.96593   9.07572 174.47038
  8.01603   9.15422 174.92901
  8.06613   9.12702 175.38627
  8.11623   9.02219 175.83829
  8.16633   8.93903 176.28613
  8.21643   9.11813 176.74295
  8.26653   9.20809 177.20428
  8.31663   9.08624 177.65950
  8.36673   9.01725 178.11127
  8.41683   8.86056 178.55519
  8.46693   8.84407 178.99827
  8.51703   8.74987 179.43664
  8.56713   9.45245 179.91021
  8.61723   9.68482 180.39543
  8.66733   9.78993 180.88590
  8.71743  10.13175 181.39351
  8.76754  10.88201 181.93870
  8.81764  10.29045 182.45425
  8.86774   9.71015 182.94073
  8.91784   9.58795 183.42109
  8.96794   9.39095 183.89158
  9.01804   9.55594 184.37033
      9.01803607     -16.03206413   501       9.10649824       1.00000000; Z= 42; 5s 4p_y 4p_z 4p_x 4d_xy 4d_yz 4d_z^2 4d_xz 4d_x^2-y^2 
-16.03206   0.00000   0.00000   0.00000   0.00000   0.00000   0.00000   0.00000   0.00000   0.00000
-15.98196   0.00000   0.00000   0.00000   0.00000   0.00000   0.00000   0.00000   0.00000   0.00000
-15.93186   0.00000   0.00000   0.00000   0.00000   0.00000   0.00000   0.00000   0.00000   0.00000
-15.88176   0.00000   0.00000   0.00000   0.00000   0.00000   0.00000   0.00000   0.00000   0.00000
-15.83166   0.00000   0.00000   0.00000   0.00000   0.00000   0.00000   0.00000   0.00000   0.00000
-15.78156   0.00000   0.00000   0.00000   0.00000   0.00000   0.00000   0.00000   0.00000   0.00000
-15.73146   0.00000   0.00000   0.00000   0.00000   0.00000   0.00000   0.00000   0.00000   0.00000
-15.68136   0.00000   0.00000   0.00000   0.00000   0.00000   0.00000   0.00000   0.00000   0.00000
-15.63126   0.00000   0.00000   0.00000   0.00000   0.00000   0.00000   0.00000   0.00000   0.00000
-15.58116   0.00000   0.00000   0.00000   0.00000   0.00000   0.00000   0.00000   0.00000   0.00000
-15.53106   0.00000   0.00000   0.00000   0.00000   0.00000   0.00000   0.00000   0.00000   0.00000
-15.48096   0.00000   0.00000   0.00000   0.00000   0.00000   0.00000   0.00000   0.00000   0.00000
-15.43086   0.00000   0.00000   0.00000   0.00000   0.00000   0.00000   0.00000   0.00000   0.00000
-15.38076   0.00000   0.00000   0.00000   0.00000   0.00000   0.00000   0.00000   0.00000   0.00000
-15.33066   0.00000   0.00000   0.00000   0.00000   0.00000   0.00000   0.00000   0.00000   0.00000
-15.28056   0.00000   0.00000   0.00000   0.00000   0.00000   0.00000   0.00000   0.00000   0.00000
-15.23046   0.00000   0.00000   0.00000   0.00000   0.00000   0.00000   0.00000   0.00000   0.00000
-15.18036   0.00000   0.00000   0.00000   0.00000   0.00000   0.00000   0.00000   0.00000   0.00000
-15.13026   0.00000   0.00000   0.00000   0.00000   0.00000   0.00000   0.00000   0.00000   0.00000
-15.08016   0.00000   0.00000   0.00000   0.00000   0.00000   0.00000   0.00000   0.00000   0.00000
-15.03006   0.00000   0.00000   0.00000   0.00000   0.00000   0.00000   0.00000   0.00000   0.00000
-14.97996   0.00000   0.00000   0.00000   0.00000   0.00000   0.00000   0.00000   0.00000   0.00000
-14.92986   0.00000   0.00000   0.00000   0.00000   0.00000   0.00000   0.00000   0.00000   0.00000
-14.87976   0.00000   0.00000   0.00000   0.00000   0.00000   0.00000   0.00000   0.00000   0.00000
-14.82966   0.00000   0.00000   0.00000   0.00000   0.00000   0.00000   0.00000   0.00000   0.00000
-14.77956   0.00134   0.00000  -0.00000   0.00000  -0.00000   0.00000   0.00004   0.00000  -0.00000
-14.72946   0.01217   0.00000  -0.00000   0.00000  -0.00000   0.00000   0.00041   0.00000   0.00000
-14.67936   0.01742   0.00000  -0.00001   0.00000   0.00000   0.00000   0.00062   0.00000   0.00000
-14.62926   0.02143   0.00001  -0.00002   0.00000   0.00000   0.00001   0.00080   0.00001   0.00000
-14.57916   0.02345   0.00001  -0.00003   0.00000   0.00001   0.00001   0.00093   0.00001   0.00001
-14.52906   0.02636   0.00001  -0.00004   0.00000   0.00001   0.00002   0.00108   0.00002   0.00001
-14.47896   0.02813   0.00002  -0.00005   0.00000   0.00002   0.00003   0.00121   0.00004   0.00002
-14.42886   0.02919   0.00002  -0.00007   0.00000   0.00003   0.00005   0.00132   0.00005   0.00003
-14.37876   0.03049   0.00003  -0.00008   0.00000   0.00004   0.00007   0.00143   0.00007   0.00004
-14.32866   0.03224   0.00003  -0.00010   0.00000   0.00006   0.00009   0.00156   0.00010   0.00005
-14.27856   0.03332   0.00004  -0.00012   0.00001   0.00007   0.00012   0.00168   0.00012   0.00007
-14.22846   0.03378   0.00006  -0.00014   0.00001   0.00010   0.00016   0.00179   0.00016   0.00009
-14.17836   0.03448   0.00008  -0.00016   0.00002   0.00012   0.00020   0.00190   0.00020   0.00011
-14.12826   0.03539   0.00010  -0.00019   0.00003   0.00014   0.00025   0.00202   0.00025   0.00013
-14.07816   0.03692   0.00013  -0.00021   0.00003   0.00017   0.00030   0.00215   0.00030   0.00015
-14.02806   0.04112   0.00015  -0.00027   0.00005   0.00020   0.00038   0.00229   0.00039   0.00018
-13.97796   0.03967   0.00018  -0.00028   0.00007   0.00024   0.00046   0.00242   0.00047   0.00022
-13.92786   0.03778   0.00021  -0.00030   0.00009   0.00029   0.00054   0.00257   0.00055   0.00025
-13.87776   0.03676   0.00023  -0.00031   0.00011   0.00033   0.00061   0.00274   0.00063   0.00029
-13.82766   0.03587   0.00025  -0.00032   0.00013   0.00040   0.00070   0.00298   0.00072   0.00034
-13.77756   0.03805   0.00027  -0.00036   0.00016   0.00048   0.00080   0.00331   0.00082   0.00041
-13.72745   0.04099   0.00029  -0.00044   0.00018   0.00052   0.00093   0.00346   0.00095   0.00045
-13.67735   0.04295   0.00032  -0.00050   0.00021   0.00059   0.00108   0.00387   0.00110   0.00054
-13.62725   0.04092   0.00030  -0.00055   0.00021   0.00054   0.00126   0.00352   0.00128   0.00052
-13.57715   0.03872   0.00026  -0.00060   0.00019   0.00049   0.00143   0.00304   0.00146   0.00048
-13.52705   0.03769   0.00024  -0.00065   0.00019   0.00049   0.00161   0.00290   0.00166   0.00049
-13.47695   0.03811   0.00023  -0.00070   0.00019   0.00053   0.00180   0.00295   0.00187   0.00055
-13.42685   0.03905   0.00024  -0.00075   0.00021   0.00062   0.00202   0.00318   0.00211   0.00065
-13.37675   0.03883   0.00025  -0.00081   0.00022   0.00070   0.00229   0.00335   0.00245   0.00073
-13.32665   0.04124   0.00033  -0.00088   0.00026   0.00088   0.00262   0.00372   0.00286   0.00088
-13.27655   0.04164   0.00035  -0.00095   0.00028   0.00103   0.00301   0.00393   0.00337   0.00102
-13.22645   0.04092   0.00032  -0.00103   0.00026   0.00105   0.00347   0.00380   0.00398   0.00105
-13.17635   0.04037   0.00031  -0.00111   0.00024   0.00109   0.00394   0.00376   0.00457   0.00109
-13.12625   0.04129   0.00030  -0.00128   0.00023   0.00119   0.00482   0.00385   0.00569   0.00118
-13.07615   0.04239   0.00028  -0.00148   0.00020   0.00126   0.00568   0.00387   0.00652   0.00124
-13.02605   0.04309   0.00026  -0.00168   0.00018   0.00133   0.00654   0.00390   0.00750   0.00129
-12.97595   0.03970   0.00025  -0.00166   0.00017   0.00142   0.00661   0.00404   0.00779   0.00139
-12.92585   0.03812   0.00025  -0.00171   0.00016   0.00162   0.00706   0.00446   0.00795   0.00164
-12.87575   0.03218   0.00022  -0.00158   0.00012   0.00160   0.00649   0.00429   0.00801   0.00157
-12.82565   0.02826   0.00020  -0.00159   0.00009   0.00160   0.00657   0.00417   0.00832   0.00161
-12.77555   0.02915   0.00018  -0.00194   0.00009   0.00177   0.00895   0.00429   0.01159   0.00188
-12.72545   0.03050   0.00016  -0.00232   0.00009   0.00202   0.01141   0.00454   0.01498   0.00226
-12.67535   0.03075   0.00015  -0.00258   0.00009   0.00235   0.01317   0.00495   0.01776   0.00271
-12.62525   0.03050   0.00013  -0.00310   0.00006   0.00242   0.01492   0.00499   0.01871   0.00267
-12.57515   0.03068   0.00012  -0.00364   0.00003   0.00255   0.01703   0.00523   0.02191   0.00268
-12.52505   0.02789   0.00013  -0.00313   0.00002   0.00263   0.01804   0.00536   0.02345   0.00273
-12.47495   0.02757   0.00017  -0.00264  -0.00000   0.00314   0.02022   0.00625   0.02871   0.00307
-12.42485   0.02772   0.00015  -0.00292  -0.00004   0.00350   0.02415   0.00728   0.03461   0.00365
-12.37475   0.02563   0.00007  -0.00310  -0.00009   0.00351   0.02511   0.00702   0.03224   0.00365
-12.32465   0.02399   0.00001  -0.00330  -0.00009   0.00346   0.02805   0.00627   0.03294   0.00367
-12.27455   0.02189  -0.00001  -0.00314  -0.00011   0.00339   0.02823   0.00581   0.03018   0.00351
-12.22445   0.02091  -0.00003  -0.00321  -0.00014   0.00355   0.03023   0.00591   0.03004   0.00364
-12.17435   0.02102  -0.00006  -0.00317  -0.00017   0.00385   0.03120   0.00630   0.02880   0.00392
-12.12425   0.02044  -0.00010  -0.00308  -0.00020   0.00407   0.03081   0.00656   0.02504   0.00419
-12.07415   0.01915  -0.00014  -0.00339  -0.00022   0.00417   0.03604   0.00661   0.02877   0.00442
-12.02405   0.01907  -0.00017  -0.00382  -0.00026   0.00464   0.04207   0.00740   0.03311   0.00498
-11.97395   0.01831  -0.00019  -0.00387  -0.00026   0.00483   0.04129   0.00734   0.03146   0.00507
-11.92385   0.01793  -0.00023  -0.00422  -0.00030   0.00514   0.04542   0.00766   0.03421   0.00543
-11.87375   0.01663  -0.00027  -0.00452  -0.00031   0.00500   0.05010   0.00721   0.03671   0.00533
-11.82365   0.01559  -0.00032  -0.00495  -0.00034   0.00504   0.05653   0.00715   0.04002   0.00545
-11.77355   0.01484  -0.00039  -0.00533  -0.00038   0.00531   0.07149   0.00748   0.04726   0.00574
-11.72345   0.01423  -0.00047  -0.00537  -0.00044   0.00582   0.08681   0.00808   0.05615   0.00616
-11.67335   0.01323  -0.00054  -0.00502  -0.00048   0.00601   0.09895   0.00819   0.06245   0.00631
-11.62325   0.01226  -0.00064  -0.00487  -0.00054   0.00606   0.12683   0.00815   0.07489   0.00648
-11.57315   0.01224  -0.00074  -0.00403  -0.00059   0.00664   0.14479   0.00892   0.08225   0.00673
-11.52305   0.01162  -0.00079  -0.00355  -0.00064   0.00691   0.13088   0.00911   0.08300   0.00737
-11.47295   0.01086  -0.00094  -0.00373  -0.00080   0.00773   0.11356   0.01057   0.08776   0.00852
-11.42285   0.00906  -0.00098  -0.00341  -0.00096   0.00840   0.09718   0.01097   0.08851   0.00869
-11.37275   0.00651  -0.00087  -0.00175  -0.00088   0.00696   0.07012   0.00846   0.06684   0.00686
-11.32265   0.00511  -0.00080  -0.00108  -0.00077   0.00548   0.05463   0.00673   0.05491   0.00583
-11.27255   0.00419  -0.00074  -0.00074  -0.00070   0.00466   0.04689   0.00570   0.05396   0.00536
-11.22244   0.00331  -0.00071  -0.00060  -0.00069   0.00393   0.03738   0.00435   0.04735   0.00444
-11.17234   0.00326  -0.00082  -0.00124  -0.00089   0.00517   0.05390   0.00518   0.08198   0.00592
-11.12224   0.00309  -0.00086  -0.00133  -0.00101   0.00626   0.05771   0.00612   0.09623   0.00729
-11.07214   0.00301  -0.00083  -0.00124  -0.00103   0.00672   0.05321   0.00640   0.09122   0.00812
-11.02204   0.00317  -0.00090  -0.00119  -0.00110   0.00808   0.05225   0.00722   0.08845   0.01009
-10.97194   0.00371  -0.00102  -0.00116  -0.00121   0.00943   0.05495   0.00867   0.09002   0.01147
-10.92184   0.00366  -0.00113  -0.00108  -0.00134   0.01182   0.05350   0.01018   0.08232   0.01240
-10.87174   0.00359  -0.00134  -0.00114  -0.00155   0.01407   0.05411   0.01109   0.07918   0.01406
-10.82164   0.00345  -0.00152  -0.00137  -0.00160   0.01386   0.05601   0.01031   0.07520   0.01435
-10.77154   0.00283  -0.00140  -0.00140  -0.00138   0.01184   0.05068   0.00864   0.06321   0.01275
-10.72144   0.00226  -0.00133  -0.00125  -0.00128   0.01152   0.04532   0.00869   0.05418   0.01289
-10.67134   0.00178  -0.00126  -0.00090  -0.00118   0.01009   0.03997   0.00737   0.04649   0.01117
-10.62124   0.00137  -0.00107  -0.00056  -0.00099   0.00777   0.03476   0.00528   0.04073   0.00851
-10.57114   0.00108  -0.00090  -0.00048  -0.00083   0.00638   0.03147   0.00405   0.03674   0.00693
-10.52104   0.00091  -0.00080  -0.00043  -0.00073   0.00578   0.02912   0.00350   0.03329   0.00626
-10.47094   0.00077  -0.00079  -0.00039  -0.00072   0.00576   0.02794   0.00331   0.03082   0.00621
-10.42084   0.00067  -0.00086  -0.00032  -0.00078   0.00615   0.02604   0.00339   0.02799   0.00657
-10.37074   0.00057  -0.00102  -0.00023  -0.00094   0.00737   0.02324   0.00386   0.02468   0.00817
-10.32064   0.00060  -0.00137  -0.00017  -0.00118   0.01091   0.02143   0.00638   0.02239   0.01254
-10.27054   0.00045  -0.00133  -0.00013  -0.00121   0.00983   0.01863   0.00495   0.01878   0.01104
-10.22044   0.00045  -0.00124  -0.00011  -0.00111   0.00990   0.01433   0.00480   0.01415   0.01131
-10.17034   0.00046  -0.00109  -0.00009  -0.00092   0.00982   0.01012   0.00462   0.01011   0.01131
-10.12024   0.00049  -0.00123  -0.00010  -0.00101   0.01150   0.00832   0.00559   0.00830   0.01325
-10.07014   0.00059  -0.00135  -0.00013  -0.00106   0.01348   0.00654   0.00693   0.00650   0.01561
-10.02004   0.00069  -0.00114  -0.00016  -0.00092   0.01351   0.00647   0.00670   0.00657   0.01562
 -9.96994   0.00082  -0.00111  -0.00021  -0.00089   0.01455   0.00551   0.00733   0.00571   0.01649
 -9.91984   0.00085  -0.00119  -0.00022  -0.00101   0.01552   0.00597   0.00777   0.00811   0.01760
 -9.86974   0.00091  -0.00102  -0.00025  -0.00087   0.01538   0.00521   0.00821   0.00692   0.01762
 -9.81964   0.00100  -0.00107  -0.00029  -0.00072   0.01716   0.01201   0.00912   0.00955   0.01779
 -9.76954   0.00113  -0.00115  -0.00034  -0.00080   0.01921   0.01301   0.01036   0.01226   0.02068
 -9.71944   0.00122  -0.00142  -0.00040  -0.00102   0.02399   0.01670   0.01292   0.01713   0.02563
 -9.66934   0.00147  -0.00139  -0.00055  -0.00109   0.02477   0.02107   0.01224   0.02161   0.02605
 -9.61924   0.00184  -0.00169  -0.00074  -0.00145   0.02885   0.02933   0.01222   0.03062   0.03078
 -9.56914   0.00209  -0.00187  -0.00095  -0.00161   0.03196   0.03470   0.01198   0.03532   0.03381
 -9.51904   0.00215  -0.00191  -0.00107  -0.00167   0.03288   0.03649   0.01137   0.03746   0.03523
 -9.46894   0.00214  -0.00193  -0.00117  -0.00166   0.03380   0.03615   0.01108   0.03710   0.03599
 -9.41884   0.00214  -0.00175  -0.00129  -0.00153   0.03232   0.03583   0.01088   0.03726   0.03414
 -9.36874   0.00217  -0.00177  -0.00145  -0.00154   0.03309   0.03700   0.01094   0.03914   0.03488
 -9.31864   0.00222  -0.00180  -0.00169  -0.00154   0.03416   0.03976   0.01117   0.04321   0.03563
 -9.26854   0.00220  -0.00174  -0.00183  -0.00151   0.03366   0.04160   0.01119   0.04595   0.03519
 -9.21844   0.00218  -0.00170  -0.00202  -0.00150   0.03399   0.04425   0.01118   0.05127   0.03581
 -9.16834   0.00214  -0.00180  -0.00241  -0.00157   0.03654   0.04970   0.01166   0.06086   0.03955
 -9.11824   0.00194  -0.00152  -0.00237  -0.00133   0.03263   0.04801   0.00925   0.06005   0.03427
 -9.06814   0.00180  -0.00136  -0.00215  -0.00116   0.03066   0.04331   0.00794   0.05084   0.03079
 -9.01804   0.00199  -0.00132  -0.00197  -0.00104   0.03051   0.04136   0.00767   0.04353   0.03051
 -8.96794   0.00380  -0.00118  -0.00184  -0.00093   0.02945   0.03679   0.00935   0.03614   0.03051
 -8.91784   0.00662  -0.00103  -0.00190  -0.00087   0.02870   0.03327   0.01280   0.03135   0.03068
 -8.86774   0.00884  -0.00105  -0.00231  -0.00089   0.02872   0.03504   0.01643   0.03209   0.02816
 -8.81764   0.01066  -0.00111  -0.00278  -0.00099   0.02932   0.03752   0.02007   0.03471   0.02785