  COHP#       atomMU       atomNU     distance     translation      ICOHP (at) eF   for spin  1
      1          Mo2          Mo1      3.14368       0   0   0           -0.48249 
      2          Mo2          Mo1      3.12709       0   0   1           -0.51302 
      3          Mo3          Mo1      3.03721      -1  -1   0           -0.54748 
      4          Mo3          Mo1      3.03649       0   0   0           -0.54712 
      5           V5          Mo1      3.03966       0  -1   0           -0.39204 
      6           V5          Mo1      3.04008       0   0   0           -0.39180 
      7           V7          Mo1      3.04013      -1   0   0           -0.38605 
      8           V7          Mo1      3.03971       0   0   0           -0.38972 
      9           B9          Mo1      2.36623      -1  -1   0           -1.79533 
     10          B10          Mo1      2.36092      -1  -1   1           -1.81737 
     11          B11          Mo1      2.36616       0   0   0           -1.79530 
     12          B12          Mo1      2.36087       0   0   1           -1.81681 
     13          B13          Mo1      2.36603       0   0   0           -1.79540 
     14          B14          Mo1      2.36075       0   0   1           -1.81658 
     15          B15          Mo1      2.36639      -1  -1   0           -1.79305 
     16          B16          Mo1      2.36113      -1  -1   1           -1.81489 
     17          B17          Mo1      2.37399      -1   0   0           -1.75872 
     18          B18          Mo1      2.36976      -1   0   1           -1.77253 
     19          B19          Mo1      2.37374       0  -1   0           -1.75983 
     20          B20          Mo1      2.36947       0  -1   1           -1.77399 
     21          Mo4          Mo2      3.03681      -1  -1   0           -0.54807 
     22          Mo4          Mo2      3.03689       0   0   0           -0.54607 
     23           V6          Mo2      3.03993       0  -1   0           -0.39132 
     24           V6          Mo2      3.03981       0   0   0           -0.39219 
     25           V8          Mo2      3.04033      -1   0   0           -0.38604 
     26           V8          Mo2      3.03951       0   0   0           -0.38938 
     27           B9          Mo2      2.36509      -1  -1   0           -1.79970 
     28          B10          Mo2      2.36124      -1  -1   0           -1.81553 
     29          B11          Mo2      2.36510       0   0   0           -1.79921 
     30          B12          Mo2      2.36127       0   0   0           -1.81542 
     31          B13          Mo2      2.36517       0   0   0           -1.79800 
     32          B14          Mo2      2.36126       0   0   0           -1.81472 
     33          B15          Mo2      2.36509      -1  -1   0           -1.79845 
     34          B16          Mo2      2.36128      -1  -1   0           -1.81390 
     35          B17          Mo2      2.37320      -1   0   0           -1.76093 
     36          B18          Mo2      2.36971      -1   0   0           -1.77292 
     37          B19          Mo2      2.37322       0  -1   0           -1.76125 
     38          B20          Mo2      2.36964       0  -1   0           -1.77366 
     39          Mo4          Mo3      3.14334       0   0   0           -0.48255 
     40          Mo4          Mo3      3.12744       0   0   1           -0.51181 
     41           V5          Mo3      3.03978       0   0   0           -0.39081 
     42           V5          Mo3      3.04005       1   0   0           -0.38910 
     43           V7          Mo3      3.03995       0   0   0           -0.38606 
     44           V7          Mo3      3.03980       0   1   0           -0.38526 
     45           B9          Mo3      2.36614       0   0   0           -1.79537 
     46          B10          Mo3      2.36103       0   0   1           -1.81640 
     47          B11          Mo3      2.36590       0   0   0           -1.79696 
     48          B12          Mo3      2.36082       0   0   1           -1.81768 
     49          B13          Mo3      2.36601       0   0   0           -1.79520 
     50          B14          Mo3      2.36091       0   0   1           -1.81577 
     51          B15          Mo3      2.36616       0   0   0           -1.79450 
     52          B16          Mo3      2.36107       0   0   1           -1.81562 
     53          B21          Mo3      2.37374       0   0   0           -1.76058 
     54          B22          Mo3      2.36965       0   0   1           -1.77423 
     55          B23          Mo3      2.37391       0   0   0           -1.75937 
     56          B24          Mo3      2.36980       0   0   1           -1.77296 
     57           V6          Mo4      3.03970       0   0   0           -0.39118 
     58           V6          Mo4      3.04013       1   0   0           -0.38839 
     59           V8          Mo4      3.03963       0   0   0           -0.38617 
     60           V8          Mo4      3.04011       0   1   0           -0.38479 
     61           B9          Mo4      2.36494       0   0   0           -1.80020 
     62          B10          Mo4      2.36129       0   0   0           -1.81521 
     63          B11          Mo4      2.36488       0   0   0           -1.80059 
     64          B12          Mo4      2.36130       0   0   0           -1.81551 
     65          B13          Mo4      2.36498       0   0   0           -1.79857 
     66          B14          Mo4      2.36132       0   0   0           -1.81404 
     67          B15          Mo4      2.36500       0   0   0           -1.79943 
     68          B16          Mo4      2.36135       0   0   0           -1.81426 
     69          B21          Mo4      2.37312       0   0   0           -1.76229 
     70          B22          Mo4      2.36975       0   0   0           -1.77360 
     71          B23          Mo4      2.37324       0   0   0           -1.76161 
     72          B24          Mo4      2.36980       0   0   0           -1.77334 
     73           V6           V5      3.12888       0   0   0           -0.25662 
     74           V6           V5      3.14189       0   0   1           -0.24475 
     75           V7           V5      3.03702      -1   0   0           -0.31986 
     76           V7           V5      3.03669       0   1   0           -0.32010 
     77           B9           V5      2.33148      -1   0   0           -1.25861 
     78          B10           V5      2.33337      -1   0   1           -1.25229 
     79          B11           V5      2.33166       0   0   0           -1.25765 
     80          B12           V5      2.33348       0   0   1           -1.25156 
     81          B17           V5      2.34226      -1   0   0           -1.22809 
     82          B18           V5      2.34550      -1   0   1           -1.21602 
     83          B19           V5      2.34201       0   0   0           -1.22877 
     84          B20           V5      2.34527       0   0   1           -1.21684 
     85          B21           V5      2.34209       0   0   0           -1.22850 
     86          B22           V5      2.34535       0   0   1           -1.21628 
     87          B23           V5      2.34208      -1   0   0           -1.22860 
     88          B24           V5      2.34539      -1   0   1           -1.21644 
     89           V8           V6      3.03716      -1   0   0           -0.31953 
     90           V8           V6      3.03654       0   1   0           -0.32006 
     91           B9           V6      2.33060      -1   0   0           -1.26074 
     92          B10           V6      2.33395      -1   0   0           -1.25058 
     93          B11           V6      2.33034       0   0   0           -1.26127 
     94          B12           V6      2.33361       0   0   0           -1.25124 
     95          B17           V6      2.34152      -1   0   0           -1.22972 
     96          B18           V6      2.34549      -1   0   0           -1.21633 
     97          B19           V6      2.34143       0   0   0           -1.22992 
     98          B20           V6      2.34538       0   0   0           -1.21650 
     99          B21           V6      2.34135       0   0   0           -1.23002 
    100          B22           V6      2.34527       0   0   0           -1.21673 
    101          B23           V6      2.34155      -1   0   0           -1.22965 
    102          B24           V6      2.34553      -1   0   0           -1.21615 
    103           V8           V7      3.12883       0   0   0           -0.25574 
    104           V8           V7      3.14195       0   0   1           -0.24377 
    105          B13           V7      2.33153       0   0   0           -1.25880 
    106          B14           V7      2.33345       0   0   1           -1.25264 
    107          B15           V7      2.33141       0  -1   0           -1.25975 
    108          B16           V7      2.33326       0  -1   1           -1.25397 
    109          B17           V7      2.34216       0   0   0           -1.22869 
    110          B18           V7      2.34532       0   0   1           -1.21696 
    111          B19           V7      2.34219       0  -1   0           -1.22827 
    112          B20           V7      2.34541       0  -1   1           -1.21627 
    113          B21           V7      2.34208       0  -1   0           -1.22878 
    114          B22           V7      2.34536       0  -1   1           -1.21660 
    115          B23           V7      2.34217       0   0   0           -1.22856 
    116          B24           V7      2.34547       0   0   1           -1.21629 
    117          B13           V8      2.33003       0   0   0           -1.26337 
    118          B14           V8      2.33346       0   0   0           -1.25263 
    119          B15           V8      2.33064       0  -1   0           -1.26181 
    120          B16           V8      2.33401       0  -1   0           -1.25114 
    121          B17           V8      2.34174       0   0   0           -1.22923 
    122          B18           V8      2.34570       0   0   0           -1.21587 
    123          B19           V8      2.34121       0  -1   0           -1.23068 
    124          B20           V8      2.34523       0  -1   0           -1.21716 
    125          B21           V8      2.34146       0  -1   0           -1.23004 
    126          B22           V8      2.34551       0  -1   0           -1.21635 
    127          B23           V8      2.34144       0   0   0           -1.23009 
    128          B24           V8      2.34547       0   0   0           -1.21645 
    129          B10           B9      3.13488       0   0   0           -0.12593 
    130          B10           B9      3.13589       0   0   1           -0.12568 
    131          B11           B9      3.45611       1   0   0            0.01311 
    132          B13           B9      3.03678       0   0   0           -0.06960 
    133          B13           B9      3.03693       1   1   0           -0.06971 
    134          B15           B9      1.81101       0   0   0           -5.89457 
    135          B17           B9      2.99626       0   0   0           -0.10696 
    136          B17           B9      3.08368       0   1   0           -0.05504 
    137          B19           B9      1.75156       1   0   0           -6.93343 
    138          B21           B9      3.08372       0   0   0           -0.05501 
    139          B21           B9      2.99631       1   0   0           -0.10696 
    140          B23           B9      1.75145       0   0   0           -6.93508 
    141          B12          B10      3.45129       1   0   0            0.01370 
    142          B14          B10      3.03674       0   0   0           -0.06866 
    143          B14          B10      3.03697       1   1   0           -0.06871 
    144          B16          B10      1.81580       0   0   0           -5.82500 
    145          B18          B10      2.99238       0   0   0           -0.10893 
    146          B18          B10      3.08760       0   1   0           -0.05331 
    147          B20          B10      1.75145       1   0   0           -6.92944 
    148          B22          B10      3.08755       0   0   0           -0.05334 
    149          B22          B10      2.99252       1   0   0           -0.10889 
    150          B24          B10      1.75125       0   0   0           -6.93262 
    151          B12          B11      3.13478       0   0   0           -0.12590 
    152          B12          B11      3.13600       0   0   1           -0.12557 
    153          B13          B11      1.81101       0   0   0           -5.89584 
    154          B15          B11      3.03690      -1  -1   0           -0.06969 
    155          B15          B11      3.03680       0   0   0           -0.06961 
    156          B17          B11      1.75159      -1   0   0           -6.93195 
    157          B19          B11      3.08371       0  -1   0           -0.05515 
    158          B19          B11      2.99623       0   0   0           -0.10678 
    159          B21          B11      1.75147       0   0   0           -6.93201 
    160          B23          B11      2.99619      -1   0   0           -0.10677 
    161          B23          B11      3.08383       0   0   0           -0.05502 
    162          B14          B12      1.81581       0   0   0           -5.82625 
    163          B16          B12      3.03695      -1  -1   0           -0.06869 
    164          B16          B12      3.03676       0   0   0           -0.06868 
    165          B18          B12      1.75149      -1   0   0           -6.92765 
    166          B20          B12      3.08765       0  -1   0           -0.05342 
    167          B20          B12      2.99232       0   0   0           -0.10873 
    168          B22          B12      1.75124       0   0   0           -6.92979 
    169          B24          B12      2.99238      -1   0   0           -0.10869 
    170          B24          B12      3.08769       0   0   0           -0.05334 
    171          B14          B13      3.13479       0   0   0           -0.12594 
    172          B14          B13      3.13598       0   0   1           -0.12564 
    173          B15          B13      3.45585       0  -1   0            0.01314 
    174          B17          B13      3.08381      -1   0   0           -0.05517 
    175          B17          B13      2.99622       0   0   0           -0.10668 
    176          B19          B13      1.75148       0  -1   0           -6.93227 
    177          B21          B13      2.99613       0  -1   0           -0.10675 
    178          B21          B13      3.08381       0   0   0           -0.05518 
    179          B23          B13      1.75160       0   0   0           -6.93076 
    180          B16          B14      3.45108       0  -1   0            0.01374 
    181          B18          B14      3.08777      -1   0   0           -0.05344 
    182          B18          B14      2.99229       0   0   0           -0.10864 
    183          B20          B14      1.75135       0  -1   0           -6.92836 
    184          B22          B14      2.99238       0  -1   0           -0.10867 
    185          B22          B14      3.08759       0   0   0           -0.05350 
    186          B24          B14      1.75139       0   0   0           -6.92814 
    187          B16          B15      3.13485       0   0   0           -0.12604 
    188          B16          B15      3.13592       0   0   1           -0.12575 
    189          B17          B15      1.75142       0   1   0           -6.93624 
    190          B19          B15      2.99624       0   0   0           -0.10688 
    191          B19          B15      3.08379       1   0   0           -0.05516 
    192          B21          B15      1.75152       0   0   0           -6.93346 
    193          B23          B15      3.08386       0   0   0           -0.05507 
    194          B23          B15      2.99608       0   1   0           -0.10693 
    195          B18          B16      1.75128       0   1   0           -6.93279 
    196          B20          B16      2.99232       0   0   0           -0.10885 
    197          B20          B16      3.08775       1   0   0           -0.05343 
    198          B22          B16      1.75130       0   0   0           -6.93110 
    199          B24          B16      3.08767       0   0   0           -0.05338 
    200          B24          B16      2.99231       0   1   0           -0.10887 
    201          B18          B17      3.13496       0   0   0           -0.13849 
    202          B18          B17      3.13581       0   0   1           -0.13824 
    203          B19          B17      3.48526       0  -1   0            0.01092 
    204          B19          B17      3.48515       1   0   0            0.01096 
    205          B21          B17      3.03686       0  -1   0           -0.09170 
    206          B21          B17      3.03685       1   0   0           -0.09165 
    207          B23          B17      1.70989       0   0   0           -7.78135 
    208          B20          B18      3.48311       0  -1   0            0.01109 
    209          B20          B18      3.48314       1   0   0            0.01113 
    210          B22          B18      3.03682       0  -1   0           -0.09220 
    211          B22          B18      3.03688       1   0   0           -0.09213 
    212          B24          B18      1.70575       0   0   0           -7.83953 
    213          B20          B19      3.13490       0   0   0           -0.13840 
    214          B20          B19      3.13587       0   0   1           -0.13814 
    215          B21          B19      1.70996       0   0   0           -7.78002 
    216          B23          B19      3.03674      -1   0   0           -0.09163 
    217          B23          B19      3.03697       0   1   0           -0.09172 
    218          B22          B20      1.70585       0   0   0           -7.83790 
    219          B24          B20      3.03676      -1   0   0           -0.09210 
    220          B24          B20      3.03694       0   1   0           -0.09222 
    221          B22          B21      3.13492       0   0   0           -0.13842 
    222          B22          B21      3.13586       0   0   1           -0.13813 
    223          B23          B21      3.48505      -1   0   0            0.01095 
    224          B23          B21      3.48515       0   1   0            0.01093 
    225          B24          B22      3.48307      -1   0   0            0.01111 
    226          B24          B22      3.48321       0   1   0            0.01109 
    227          B24          B23      3.13496       0   0   0           -0.13846 
    228          B24          B23      3.13582       0   0   1           -0.13823 
