ESCALE ; pCOHP file generated by LOBSTER. Energy is shifted such that the Fermi level lies at 0 eV.
       289          1        501  -7.02930e+00   1.80208e+01   9.00277e+00 
Average
No.1:V2->V1(3.0265740307880789)
No.2:V2->V1(3.0265740302927737)
No.3:V3->V1(2.9962460459838103)
No.4:V3->V1(2.9962461607872926)
No.5:V5->V1(2.9962461030661047)
No.6:V5->V1(2.9962461037562291)
No.7:V7->V1(2.996245703373094)
No.8:V7->V1(2.9962458321275256)
No.9:B9->V1(2.2983764173135235)
No.10:B10->V1(2.2983764952620911)
No.11:B11->V1(2.2983764700354175)
No.12:B12->V1(2.2983765479839833)
No.13:B15->V1(2.2983764925069097)
No.14:B16->V1(2.2983765704554746)
No.15:B17->V1(2.2983762771806138)
No.16:B18->V1(2.2983763551291863)
No.17:B21->V1(2.2983768857894455)
No.18:B22->V1(2.2983769637379972)
No.19:B23->V1(2.298376700040631)
No.20:B24->V1(2.2983767779891888)
No.21:V4->V2(2.9962460459838103)
No.22:V4->V2(2.9962461607872926)
No.23:V6->V2(2.9962461030661047)
No.24:V6->V2(2.9962461037562291)
No.25:V8->V2(2.996245703373094)
No.26:V8->V2(2.9962458321275256)
No.27:B9->V2(2.2983764179658142)
No.28:B10->V2(2.2983763396911332)
No.29:B11->V2(2.2983764706877081)
No.30:B12->V2(2.2983763924130289)
No.31:B15->V2(2.2983764931591999)
No.32:B16->V2(2.2983764148845216)
No.33:B17->V2(2.2983762778329044)
No.34:B18->V2(2.2983761995582186)
No.35:B21->V2(2.2983768864417358)
No.36:B22->V2(2.2983768081670708)
No.37:B23->V2(2.2983767006929212)
No.38:B24->V2(2.29837662241825)
No.39:V4->V3(3.0265740307880789)
No.40:V4->V3(3.0265740302927737)
No.41:V5->V3(2.9962458322754033)
No.42:V5->V3(2.9962457032252163)
No.43:V7->V3(2.9962461040519841)
No.44:V7->V3(2.9962461027703498)
No.45:B9->V3(2.2983765029640035)
No.46:B10->V3(2.2983765809125685)
No.47:B11->V3(2.2983764173135381)
No.48:B12->V3(2.2983764952621057)
No.49:B13->V3(2.2983763534629231)
No.50:B14->V3(2.2983764314114925)
No.51:B19->V3(2.2983762653498663)
No.52:B20->V3(2.2983763432984392)
No.53:B21->V3(2.2983764173135404)
No.54:B22->V3(2.298376495262108)
No.55:B23->V3(2.298376567415644)
No.56:B24->V3(2.2983766453642063)
No.57:V6->V4(2.9962458322754033)
No.58:V6->V4(2.9962457032252163)
No.59:V8->V4(2.9962461040519841)
No.60:V8->V4(2.9962461027703498)
No.61:B9->V4(2.2983765036162942)
No.62:B10->V4(2.2983764253416159)
No.63:B11->V4(2.2983764179658288)
No.64:B12->V4(2.2983763396911479)
No.65:B13->V4(2.2983763541152133)
No.66:B14->V4(2.2983762758405306)
No.67:B19->V4(2.2983762660021569)
No.68:B20->V4(2.2983761877274707)
No.69:B21->V4(2.2983764179658306)
No.70:B22->V4(2.2983763396911501)
No.71:B23->V4(2.2983765680679347)
No.72:B24->V4(2.2983764897932586)
No.73:V6->V5(3.0265740307880789)
No.74:V6->V5(3.0265740302927737)
No.75:V7->V5(2.9962460454908704)
No.76:V7->V5(2.996246161280232)
No.77:B11->V5(2.2983764920570744)
No.78:B12->V5(2.2983765700056393)
No.79:B13->V5(2.2983764173135235)
No.80:B14->V5(2.2983764952620911)
No.81:B15->V5(2.2983764700354175)
No.82:B16->V5(2.2983765479839833)
No.83:B17->V5(2.2983765787964878)
No.84:B18->V5(2.2983766567450497)
No.85:B19->V5(2.2983767000406408)
No.86:B20->V5(2.298376777989199)
No.87:B21->V5(2.298375970637601)
No.88:B22->V5(2.2983760485861842)
No.89:V8->V6(2.9962460454908704)
No.90:V8->V6(2.996246161280232)
No.91:B11->V6(2.2983764927093651)
No.92:B12->V6(2.2983764144346868)
No.93:B13->V6(2.2983764179658142)
No.94:B14->V6(2.2983763396911332)
No.95:B15->V6(2.2983764706877081)
No.96:B16->V6(2.2983763924130289)
No.97:B17->V6(2.298376579448778)
No.98:B18->V6(2.2983765011741029)
No.99:B19->V6(2.2983767006929314)
No.100:B20->V6(2.2983766224182602)
No.101:B21->V6(2.2983759712898921)
No.102:B22->V6(2.2983758930151961)
No.103:V8->V7(3.0265740307880789)
No.104:V8->V7(3.0265740302927737)
No.105:B9->V7(2.2983763536557014)
No.106:B10->V7(2.2983764316042712)
No.107:B13->V7(2.29837650232139)
No.108:B14->V7(2.2983765802699545)
No.109:B15->V7(2.2983764173135381)
No.110:B16->V7(2.2983764952621057)
No.111:B17->V7(2.2983764173135151)
No.112:B18->V7(2.2983764952620827)
No.113:B19->V7(2.2983764146581902)
No.114:B20->V7(2.2983764926067574)
No.115:B23->V7(2.2983761117570474)
No.116:B24->V7(2.2983761897056252)
No.117:B9->V8(2.298376354307992)
No.118:B10->V8(2.2983762760333089)
No.119:B13->V8(2.2983765029736802)
No.120:B14->V8(2.2983764246990024)
No.121:B15->V8(2.2983764179658288)
No.122:B16->V8(2.2983763396911479)
No.123:B17->V8(2.2983764179658053)
No.124:B18->V8(2.2983763396911248)
No.125:B19->V8(2.2983764153104804)
No.126:B20->V8(2.2983763370357995)
No.127:B23->V8(2.298376112409338)
No.128:B24->V8(2.2983760341346469)
No.129:B10->B9(3.0265739128953899)
No.130:B10->B9(3.0265741481854627)
No.131:B11->B9(2.9962461046467697)
No.132:B11->B9(2.9962461021243394)
No.133:B13->B9(2.9962461030661047)
No.134:B13->B9(2.9962461037562291)
No.135:B15->B9(2.9962456442172187)
No.136:B15->B9(2.9962458912834022)
No.137:B17->B9(1.7298835258624925)
No.138:B18->B9(3.4860646384238714)
No.139:B18->B9(3.4860648427008654)
No.140:B19->B9(1.7298829264174631)
No.141:B20->B9(3.4860643409623919)
No.142:B20->B9(3.4860645452394028)
No.143:B21->B9(1.7298839394353251)
No.144:B22->B9(3.4860648436503863)
No.145:B22->B9(3.4860650479273678)
No.146:B23->B9(3.4597663028641361)
No.147:B23->B9(3.4597671066418112)
No.148:B23->B9(3.4597671690535843)
No.149:B12->B10(2.9962461046467697)
No.150:B12->B10(2.9962461021243394)
No.151:B14->B10(2.9962461030661047)
No.152:B14->B10(2.9962461037562291)
No.153:B16->B10(2.9962456442172187)
No.154:B16->B10(2.9962458912834022)
No.155:B17->B10(3.4860648427008654)
No.156:B17->B10(3.4860646384238714)
No.157:B18->B10(1.7298835258624925)
No.158:B19->B10(3.4860645452394028)
No.159:B19->B10(3.4860643409623919)
No.160:B20->B10(1.7298829264174631)
No.161:B21->B10(3.4860650479273678)
No.162:B21->B10(3.4860648436503863)
No.163:B22->B10(1.7298839394353251)
No.164:B24->B10(3.4597663028641361)
No.165:B24->B10(3.4597671066418112)
No.166:B24->B10(3.4597671690535843)
No.167:B12->B11(3.0265739128953899)
No.168:B12->B11(3.0265741481854627)
No.169:B13->B11(2.99624589093834)
No.170:B13->B11(2.9962456445622805)
No.171:B15->B11(2.9962461030661052)
No.172:B15->B11(2.9962461037562291)
No.173:B17->B11(1.7298833020574107)
No.174:B18->B11(3.4860645273654876)
No.175:B18->B11(3.4860647316424878)
No.176:B19->B11(1.7298838464027178)
No.177:B20->B11(3.4860647974849766)
No.178:B20->B11(3.4860650017619612)
No.179:B21->B11(3.4597662992527893)
No.180:B21->B11(3.4597674858930634)
No.181:B21->B11(3.4597667934136287)
No.182:B23->B11(1.7298836494786676)
No.183:B24->B11(3.4860646997657034)
No.184:B24->B11(3.4860649040426934)
No.185:B14->B12(2.99624589093834)
No.186:B14->B12(2.9962456445622805)
No.187:B16->B12(2.9962461030661052)
No.188:B16->B12(2.9962461037562291)
No.189:B17->B12(3.4860647316424878)
No.190:B17->B12(3.4860645273654876)
No.191:B18->B12(1.7298833020574107)
No.192:B19->B12(3.4860650017619612)
No.193:B19->B12(3.4860647974849766)
No.194:B20->B12(1.7298838464027178)
No.195:B22->B12(3.4597662992527893)
No.196:B22->B12(3.4597674858930634)
No.197:B22->B12(3.4597667934136287)
No.198:B23->B12(3.4860649040426934)
No.199:B23->B12(3.4860646997657034)
No.200:B24->B12(1.7298836494786676)
No.201:B14->B13(3.0265739128953899)
No.202:B14->B13(3.0265741481854627)
No.203:B15->B13(2.9962461046467692)
No.204:B15->B13(2.9962461021243398)
No.205:B17->B13(1.7298835315551027)
No.206:B18->B13(3.4860646412487055)
No.207:B18->B13(3.4860648455256986)
No.208:B19->B13(3.45976650667617)
No.209:B19->B13(3.4597669028297653)
No.210:B19->B13(3.4597671690536065)
No.211:B21->B13(1.7298831185799677)
No.212:B22->B13(3.4860644363188218)
No.213:B22->B13(3.4860646405958273)
No.214:B23->B13(1.7298829264175102)
No.215:B24->B13(3.4860643409624155)
No.216:B24->B13(3.4860645452394263)
No.217:B16->B14(2.9962461046467692)
No.218:B16->B14(2.9962461021243398)
No.219:B17->B14(3.4860648455256986)
No.220:B17->B14(3.4860646412487055)
No.221:B18->B14(1.7298835315551027)
No.222:B20->B14(3.45976650667617)
No.223:B20->B14(3.4597669028297653)
No.224:B20->B14(3.4597671690536065)
No.225:B21->B14(3.4860646405958273)
No.226:B21->B14(3.4860644363188218)
No.227:B22->B14(1.7298831185799677)
No.228:B23->B14(3.4860645452394263)
No.229:B23->B14(3.4860643409624155)
No.230:B24->B14(1.7298829264175102)
No.231:B16->B15(3.0265739128953899)
No.232:B16->B15(3.0265741481854627)
No.233:B17->B15(3.4597667071329998)
No.234:B17->B15(3.4597670780128227)
No.235:B17->B15(3.4597667934136589)
No.236:B19->B15(1.7298834456666663)
No.237:B20->B15(3.4860645986284431)
No.238:B20->B15(3.4860648029054389)
No.239:B21->B15(1.7298833020575328)
No.240:B22->B15(3.4860645273655484)
No.241:B22->B15(3.4860647316425486)
No.242:B23->B15(1.7298836431883728)
No.243:B24->B15(3.4860646966442816)
No.244:B24->B15(3.4860649009212716)
No.245:B18->B16(3.4597667071329998)
No.246:B18->B16(3.4597670780128227)
No.247:B18->B16(3.4597667934136589)
No.248:B19->B16(3.4860648029054389)
No.249:B19->B16(3.4860645986284431)
No.250:B20->B16(1.7298834456666663)
No.251:B21->B16(3.4860647316425486)
No.252:B21->B16(3.4860645273655484)
No.253:B22->B16(1.7298833020575328)
No.254:B23->B16(3.4860649009212716)
No.255:B23->B16(3.4860646966442816)
No.256:B24->B16(1.7298836431883728)
No.257:B18->B17(3.0265739128953899)
No.258:B18->B17(3.0265741481854627)
No.259:B19->B17(2.9962457841065273)
No.260:B19->B17(2.996246422664576)
No.261:B21->B17(2.9962456327767257)
No.262:B21->B17(2.9962465740456086)
No.263:B23->B17(2.9962454410028352)
No.264:B23->B17(2.9962460944977849)
No.265:B20->B18(2.9962457841065273)
No.266:B20->B18(2.996246422664576)
No.267:B22->B18(2.9962456327767257)
No.268:B22->B18(2.9962465740456086)
No.269:B24->B18(2.9962454410028352)
No.270:B24->B18(2.9962460944977849)
No.271:B20->B19(3.0265739128953899)
No.272:B20->B19(3.0265741481854627)
No.273:B21->B19(2.9962457416822792)
No.274:B21->B19(2.996245793818483)
No.275:B23->B19(2.996245868414376)
No.276:B23->B19(2.9962463384079578)
No.277:B22->B20(2.9962457416822792)
No.278:B22->B20(2.996245793818483)
No.279:B24->B20(2.996245868414376)
No.280:B24->B20(2.9962463384079578)
No.281:B22->B21(3.0265739128953899)
No.282:B22->B21(3.0265741481854627)
No.283:B23->B21(2.9962456662876784)
No.284:B23->B21(2.9962465404834306)
No.285:B24->B22(2.9962456662876784)
No.286:B24->B22(2.9962465404834306)
No.287:B24->B23(3.0265739128953899)
No.288:B24->B23(3.0265741481854627)
-16.03206   0.00000   0.00000   0.00000   0.00000   0.00000   0.00000   0.00000   0.00000   0.00000   0.00000   0.00000   0.00000   0.00000   0.00000   0.00000   0.00000   0.00000   0.00000   0.00000   0.00000   0.00000   0.00000   0.00000   0.00000   0.00000   0.00000   0.00000   0.00000   0.00000   0.00000   0.00000   0.00000   0.00000   0.00000   0.00000   0.00000   0.00000   0.00000   0.00000   0.00000   0.00000   0.00000   0.00000   0.00000   0.00000   0.00000   0.00000   0.00000   0.00000   0.00000   0.00000   0.00000   0.00000   0.00000   0.00000   0.00000   0.00000   0.00000   0.00000   0.00000   0.00000   0.00000   0.00000   0.00000   0.00000   0.00000   0.00000   0.00000   0.00000   0.00000   0.00000   0.00000   0.00000   0.00000   0.00000   0.00000   0.00000   0.00000   0.00000   0.00000   0.00000   0.00000   0.00000   0.00000   0.00000   0.00000   0.00000   0.00000   0.00000   0.00000   0.00000   0.00000   0.00000   0.00000   0.00000   0.00000   0.00000   0.00000   0.00000   0.00000   0.00000   0.00000   0.00000   0.00000   0.00000   0.00000   0.00000   0.00000   0.00000   0.00000   0.00000   0.00000   0.00000   0.00000   0.00000   0.00000   0.00000   0.00000   0.00000   0.00000   0.00000   0.00000   0.00000   0.00000   0.00000   0.00000   0.00000   0.00000   0.00000   0.00000   0.00000   0.00000   0.00000   0.00000   0.00000   0.00000   0.00000   0.00000   0.00000   0.00000   0.00000   0.00000   0.00000   0.00000   0.00000   0.00000   0.00000   0.00000   0.00000   0.00000   0.00000   0.00000   0.00000   0.00000   0.00000   0.00000   0.00000   0.00000   0.00000   0.00000   0.00000   0.00000   0.00000   0.00000   0.00000   0.00000   0.00000   0.00000   0.00000   0.00000   0.00000   0.00000   0.00000   0.00000   0.00000   0.00000   0.00000   0.00000   0.00000   0.00000   0.00000   0.00000   0.00000   0.00000   0.00000   0.00000   0.00000   0.00000   0.00000   0.00000   0.00000   0.00000   0.00000   0.00000   0.00000   0.00000   0.00000   0.00000   0.00000   0.00000   0.00000   0.00000   0.00000   0.00000   0.00000   0.00000   0.00000   0.00000   0.00000   0.00000   0.00000   0.00000   0.00000   0.00000   0.00000   0.00000   0.00000   0.00000   0.00000   0.00000   0.00000   0.00000   0.00000   0.00000   0.00000   0.00000   0.00000   0.00000   0.00000   0.00000   0.00000   0.00000   0.00000   0.00000   0.00000   0.00000   0.00000   0.00000   0.00000   0.00000   0.00000   0.00000   0.00000   0.00000   0.00000   0.00000   0.00000   0.00000   0.00000   0.00000   0.00000   0.00000   0.00000   0.00000   0.00000   0.00000   0.00000   0.00000   0.00000   0.00000   0.00000   0.00000   0.00000   0.00000   0.00000   0.00000   0.00000   0.00000   0.00000   0.00000   0.00000   0.00000   0.00000   0.00000   0.00000   0.00000   0.00000   0.00000   0.00000   0.00000   0.00000   0.00000   0.00000   0.00000   0.00000   0.00000   0.00000   0.00000   0.00000   0.00000   0.00000   0.00000   0.00000   0.00000   0.00000   0.00000   0.00000   0.00000   0.00000   0.00000   0.00000   0.00000   0.00000   0.00000   0.00000   0.00000   0.00000   0.00000   0.00000   0.00000   0.00000   0.00000   0.00000   0.00000   0.00000   0.00000   0.00000   0.00000   0.00000   0.00000   0.00000   0.00000   0.00000   0.00000   0.00000   0.00000   0.00000   0.00000   0.00000   0.00000   0.00000   0.00000   0.00000   0.00000   0.00000   0.00000   0.00000   0.00000   0.00000   0.00000   0.00000   0.00000   0.00000   0.00000   0.00000   0.00000   0.00000   0.00000   0.00000   0.00000   0.00000   0.00000   0.00000   0.00000   0.00000   0.00000   0.00000   0.00000   0.00000   0.00000   0.00000   0.00000   0.00000   0.00000   0.00000   0.00000   0.00000   0.00000   0.00000   0.00000   0.00000   0.00000   0.00000   0.00000   0.00000   0.00000   0.00000   0.00000   0.00000   0.00000   0.00000   0.00000   0.00000   0.00000   0.00000   0.00000   0.00000   0.00000   0.00000   0.00000   0.00000   0.00000   0.00000   0.00000   0.00000   0.00000   0.00000   0.00000   0.00000   0.00000   0.00000   0.00000   0.00000   0.00000   0.00000   0.00000   0.00000   0.00000   0.00000   0.00000   0.00000   0.00000   0.00000   0.00000   0.00000   0.00000   0.00000   0.00000   0.00000   0.00000   0.00000   0.00000   0.00000   0.00000   0.00000   0.00000   0.00000   0.00000   0.00000   0.00000   0.00000   0.00000   0.00000   0.00000   0.00000   0.00000   0.00000   0.00000   0.00000   0.00000   0.00000   0.00000   0.00000   0.00000   0.00000   0.00000   0.00000   0.00000   0.00000   0.00000   0.00000   0.00000   0.00000   0.00000   0.00000   0.00000   0.00000   0.00000   0.00000   0.00000   0.00000   0.00000   0.00000   0.00000   0.00000   0.00000   0.00000   0.00000   0.00000   0.00000   0.00000   0.00000   0.00000   0.00000   0.00000   0.00000   0.00000   0.00000   0.00000   0.00000   0.00000   0.00000   0.00000   0.00000   0.00000   0.00000   0.00000   0.00000   0.00000   0.00000   0.00000   0.00000   0.00000   0.00000   0.00000   0.00000   0.00000   0.00000   0.00000   0.00000   0.00000   0.00000   0.00000   0.00000   0.00000   0.00000   0.00000   0.00000   0.00000   0.00000   0.00000   0.00000   0.00000   0.00000   0.00000   0.00000   0.00000   0.00000   0.00000   0.00000   0.00000   0.00000   0.00000   0.00000   0.00000   0.00000   0.00000   0.00000   0.00000   0.00000   0.00000   0.00000   0.00000   0.00000   0.00000   0.00000   0.00000   0.00000   0.00000   0.00000   0.00000   0.00000   0.00000   0.00000   0.00000   0.00000   0.00000   0.00000   0.00000   0.00000   0.00000   0.00000   0.00000   0.00000   0.00000   0.00000   0.00000   0.00000   0.00000   0.00000   0.00000   0.00000   0.00000   0.00000   0.00000   0.00000   0.00000   0.00000   0.00000   0.00000   0.00000   0.00000   0.00000   0.00000   0.00000   0.00000   0.00000   0.00000
-15.98196   0.00000   0.00000   0.00000   0.00000   0.00000   0.00000   0.00000   0.00000   0.00000   0.00000   0.00000   0.00000   0.00000   0.00000   0.00000   0.00000   0.00000   0.00000   0.00000   0.00000   0.00000   0.00000   0.00000   0.00000   0.00000   0.00000   0.00000   0.00000   0.00000   0.00000   0.00000   0.00000   0.00000   0.00000   0.00000   0.00000   0.00000   0.00000   0.00000   0.00000   0.00000   0.00000   0.00000   0.00000   0.00000   0.00000   0.00000   0.00000   0.00000   0.00000   0.00000   0.00000   0.00000   0.00000   0.00000   0.00000   0.00000   0.00000   0.00000   0.00000   0.00000   0.00000   0.00000   0.00000   0.00000   0.00000   0.00000   0.00000   0.00000   0.00000   0.00000   0.00000   0.00000   0.00000   0.00000   0.00000   0.00000   0.00000   0.00000   0.00000   0.00000   0.00000   0.00000   0.00000   0.00000   0.00000   0.00000   0.00000   0.00000   0.00000   0.00000   0.00000   0.00000   0.00000   0.00000   0.00000   0.00000   0.00000   0.00000   0.00000   0.00000   0.00000   0.00000   0.00000   0.00000   0.00000   0.00000   0.00000   0.00000   0.00000   0.00000   0.00000   0.00000   0.00000   0.00000   0.00000   0.00000   0.00000   0.00000   0.00000   0.00000   0.00000   0.00000   0.00000   0.00000   0.00000   0.00000   0.00000   0.00000   0.00000   0.00000   0.00000   0.00000   0.00000   0.00000   0.00000   0.00000   0.00000   0.00000   0.00000   0.00000   0.00000   0.00000   0.00000   0.00000   0.00000   0.00000   0.00000   0.00000   0.00000   0.00000   0.00000   0.00000   0.00000   0.00000   0.00000   0.00000   0.00000   0.00000   0.00000   0.00000   0.00000   0.00000   0.00000   0.00000   0.00000   0.00000   0.00000   0.00000   0.00000   0.00000   0.00000   0.00000   0.00000   0.00000   0.00000   0.00000   0.00000   0.00000   0.00000   0.00000   0.00000   0.00000   0.00000   0.00000   0.00000   0.00000   0.00000   0.00000   0.00000   0.00000   0.00000   0.00000   0.00000   0.00000   0.00000   0.00000   0.00000   0.00000   0.00000   0.00000   0.00000   0.00000   0.00000   0.00000   0.00000   0.00000   0.00000   0.00000   0.00000   0.00000   0.00000   0.00000   0.00000   0.00000   0.00000   0.00000   0.00000   0.00000   0.00000   0.00000   0.00000   0.00000   0.00000   0.00000   0.00000   0.00000   0.00000   0.00000   0.00000   0.00000   0.00000   0.00000   0.00000   0.00000   0.00000   0.00000   0.00000   0.00000   0.00000   0.00000   0.00000   0.00000   0.00000   0.00000   0.00000   0.00000   0.00000   0.00000   0.00000   0.00000   0.00000   0.00000   0.00000   0.00000   0.00000   0.00000   0.00000   0.00000   0.00000   0.00000   0.00000   0.00000   0.00000   0.00000   0.00000   0.00000   0.00000   0.00000   0.00000   0.00000   0.00000   0.00000   0.00000   0.00000   0.00000   0.00000   0.00000   0.00000   0.00000   0.00000   0.00000   0.00000   0.00000   0.00000   0.00000   0.00000   0.00000   0.00000   0.00000   0.00000   0.00000   0.00000   0.00000   0.00000   0.00000   0.00000   0.00000   0.00000   0.00000   0.00000   0.00000   0.00000   0.00000   0.00000   0.00000   0.00000   0.00000   0.00000   0.00000   0.00000   0.00000   0.00000   0.00000   0.00000   0.00000   0.00000   0.00000   0.00000   0.00000   0.00000   0.00000   0.00000   0.00000   0.00000   0.00000   0.00000   0.00000   0.00000   0.00000   0.00000   0.00000   0.00000   0.00000   0.00000   0.00000   0.00000   0.00000   0.00000   0.00000   0.00000   0.00000   0.00000   0.00000   0.00000   0.00000   0.00000   0.00000   0.00000   0.00000   0.00000   0.00000   0.00000   0.00000   0.00000   0.00000   0.00000   0.00000   0.00000   0.00000   0.00000   0.00000   0.00000   0.00000   0.00000   0.00000   0.00000   0.00000   0.00000   0.00000   0.00000   0.00000   0.00000   0.00000   0.00000   0.00000   0.00000   0.00000   0.00000   0.00000   0.00000   0.00000   0.00000   0.00000   0.00000   0.00000   0.00000   0.00000   0.00000   0.00000   0.00000   0.00000   0.00000   0.00000   0.00000   0.00000   0.00000   0.00000   0.00000   0.00000   0.00000   0.00000   0.00000   0.00000   0.00000   0.00000   0.00000   0.00000   0.00000   0.00000   0.00000   0.00000   0.00000   0.00000   0.00000   0.00000   0.00000   0.00000   0.00000   0.00000   0.00000   0.00000   0.00000   0.00000   0.00000   0.00000   0.00000   0.00000   0.00000   0.00000   0.00000   0.00000   0.00000   0.00000   0.00000   0.00000   0.00000   0.00000   0.00000   0.00000   0.00000   0.00000   0.00000   0.00000   0.00000   0.00000   0.00000   0.00000   0.00000   0.00000   0.00000   0.00000   0.00000   0.00000   0.00000   0.00000   0.00000   0.00000   0.00000   0.00000   0.00000   0.00000   0.00000   0.00000   0.00000   0.00000   0.00000   0.00000   0.00000   0.00000   0.00000   0.00000   0.00000   0.00000   0.00000   0.00000   0.00000   0.00000   0.00000   0.00000   0.00000   0.00000   0.00000   0.00000   0.00000   0.00000   0.00000   0.00000   0.00000   0.00000   0.00000   0.00000   0.00000   0.00000   0.00000   0.00000   0.00000   0.00000   0.00000   0.00000   0.00000   0.00000   0.00000   0.00000   0.00000   0.00000   0.00000   0.00000   0.00000   0.00000   0.00000   0.00000   0.00000   0.00000   0.00000   0.00000   0.00000   0.00000   0.00000   0.00000   0.00000   0.00000   0.00000   0.00000   0.00000   0.00000   0.00000   0.00000   0.00000   0.00000   0.00000   0.00000   0.00000   0.00000   0.00000   0.00000   0.00000   0.00000   0.00000   0.00000   0.00000   0.00000   0.00000   0.00000   0.00000   0.00000   0.00000   0.00000   0.00000   0.00000   0.00000   0.00000   0.00000   0.00000   0.00000   0.00000   0.00000   0.00000   0.00000   0.00000   0.00000   0.00000   0.00000   0.00000   0.00000   0.00000   0.00000   0.00000   0.00000   0.00000   0.00000   0.00000   0.00000   0.00000   0.00000   0.00000   0.00000   0.00000
-15.93186   0.00000   0.00000   0.00000   0.00000   0.00000   0.00000   0.00000   0.00000   0.00000   0.00000   0.00000   0.00000   0.00000   0.00000   0.00000   0.00000   0.00000   0.00000   0.00000   0.00000   0.00000   0.00000   0.00000   0.00000   0.00000   0.00000   0.00000   0.00000   0.00000   0.00000   0.00000   0.00000   0.00000   0.00000   0.00000   0.00000   0.00000   0.00000   0.00000   0.00000   0.00000   0.00000   0.00000   0.00000   0.00000   0.00000   0.00000   0.00000   0.00000   0.00000   0.00000   0.00000   0.00000   0.00000   0.00000   0.00000   0.00000   0.00000   0.00000   0.00000   0.00000   0.00000   0.00000   0.00000   0.00000   0.00000   0.00000   0.00000   0.00000   0.00000   0.00000   0.00000   0.00000   0.00000   0.00000   0.00000   0.00000   0.00000   0.00000   0.00000   0.00000   0.00000   0.00000   0.00000   0.00000   0.00000   0.00000   0.00000   0.00000   0.00000   0.00000   0.00000   0.00000   0.00000   0.00000   0.00000   0.00000   0.00000   0.00000   0.00000   0.00000   0.00000   0.00000   0.00000   0.00000   0.00000   0.00000   0.00000   0.00000   0.00000   0.00000   0.00000   0.00000   0.00000   0.00000   0.00000   0.00000   0.00000   0.00000   0.00000   0.00000   0.00000   0.00000   0.00000   0.00000   0.00000   0.00000   0.00000   0.00000   0.00000   0.00000   0.00000   0.00000   0.00000   0.00000   0.00000   0.00000   0.00000   0.00000   0.00000   0.00000   0.00000   0.00000   0.00000   0.00000   0.00000   0.00000   0.00000   0.00000   0.00000   0.00000   0.00000   0.00000   0.00000   0.00000   0.00000   0.00000   0.00000   0.00000   0.00000   0.00000   0.00000   0.00000   0.00000   0.00000   0.00000   0.00000   0.00000   0.00000   0.00000   0.00000   0.00000   0.00000   0.00000   0.00000   0.00000   0.00000   0.00000   0.00000   0.00000   0.00000   0.00000   0.00000   0.00000   0.00000   0.00000   0.00000   0.00000   0.00000   0.00000   0.00000   0.00000   0.00000   0.00000   0.00000   0.00000   0.00000   0.00000   0.00000   0.00000   0.00000   0.00000   0.00000   0.00000   0.00000   0.00000   0.00000   0.00000   0.00000   0.00000   0.00000   0.00000   0.00000   0.00000   0.00000   0.00000   0.00000   0.00000   0.00000   0.00000   0.00000   0.00000   0.00000   0.00000   0.00000   0.00000   0.00000   0.00000   0.00000   0.00000   0.00000   0.00000   0.00000   0.00000   0.00000   0.00000   0.00000   0.00000   0.00000   0.00000   0.00000   0.00000   0.00000   0.00000   0.00000   0.00000   0.00000   0.00000   0.00000   0.00000   0.00000   0.00000   0.00000   0.00000   0.00000   0.00000   0.00000   0.00000   0.00000   0.00000   0.00000   0.00000   0.00000   0.00000   0.00000   0.00000   0.00000   0.00000   0.00000   0.00000   0.00000   0.00000   0.00000   0.00000   0.00000   0.00000   0.00000   0.00000   0.00000   0.00000   0.00000   0.00000   0.00000   0.00000   0.00000   0.00000   0.00000   0.00000   0.00000   0.00000   0.00000   0.00000   0.00000   0.00000   0.00000   0.00000   0.00000   0.00000   0.00000   0.00000   0.00000   0.00000   0.00000   0.00000   0.00000   0.00000   0.00000   0.00000   0.00000   0.00000   0.00000   0.00000   0.00000   0.00000   0.00000   0.00000   0.00000   0.00000   0.00000   0.00000   0.00000   0.00000   0.00000   0.00000   0.00000   0.00000   0.00000   0.00000   0.00000   0.00000   0.00000   0.00000   0.00000   0.00000   0.00000   0.00000   0.00000   0.00000   0.00000   0.00000   0.00000   0.00000   0.00000   0.00000   0.00000   0.00000   0.00000   0.00000   0.00000   0.00000   0.00000   0.00000   0.00000   0.00000   0.00000   0.00000   0.00000   0.00000   0.00000   0.00000   0.00000   0.00000   0.00000   0.00000   0.00000   0.00000   0.00000   0.00000   0.00000   0.00000   0.00000   0.00000   0.00000   0.00000   0.00000   0.00000   0.00000   0.00000   0.00000   0.00000   0.00000   0.00000   0.00000   0.00000   0.00000   0.00000   0.00000   0.00000   0.00000   0.00000   0.00000   0.00000   0.00000   0.00000   0.00000   0.00000   0.00000   0.00000   0.00000   0.00000   0.00000   0.00000   0.00000   0.00000   0.00000   0.00000   0.00000   0.00000   0.00000   0.00000   0.00000   0.00000   0.00000   0.00000   0.00000   0.00000   0.00000   0.00000   0.00000   0.00000   0.00000   0.00000   0.00000   0.00000   0.00000   0.00000   0.00000   0.00000   0.00000   0.00000   0.00000   0.00000   0.00000   0.00000   0.00000   0.00000   0.00000   0.00000   0.00000   0.00000   0.00000   0.00000   0.00000   0.00000   0.00000   0.00000   0.00000   0.00000   0.00000   0.00000   0.00000   0.00000   0.00000   0.00000   0.00000   0.00000   0.00000   0.00000   0.00000   0.00000   0.00000   0.00000   0.00000   0.00000   0.00000   0.00000   0.00000   0.00000   0.00000   0.00000   0.00000   0.00000   0.00000   0.00000   0.00000   0.00000   0.00000   0.00000   0.00000   0.00000   0.00000   0.00000   0.00000   0.00000   0.00000   0.00000   0.00000   0.00000   0.00000   0.00000   0.00000   0.00000   0.00000   0.00000   0.00000   0.00000   0.00000   0.00000   0.00000   0.00000   0.00000   0.00000   0.00000   0.00000   0.00000   0.00000   0.00000   0.00000   0.00000   0.00000   0.00000   0.00000   0.00000   0.00000   0.00000   0.00000   0.00000   0.00000   0.00000   0.00000   0.00000   0.00000   0.00000   0.00000   0.00000   0.00000   0.00000   0.00000   0.00000   0.00000   0.00000   0.00000   0.00000   0.00000   0.00000   0.00000   0.00000   0.00000   0.00000   0.00000   0.00000   0.00000   0.00000   0.00000   0.00000   0.00000   0.00000   0.00000   0.00000   0.00000   0.00000   0.00000   0.00000   0.00000   0.00000   0.00000   0.00000   0.00000   0.00000   0.00000   0.00000   0.00000   0.00000   0.00000   0.00000   0.00000   0.00000   0.00000   0.00000   0.00000   0.00000   0.00000   0.00000   0.00000   0.00000   0.00000   0.00000   0.00000