   24   24    1    1
  0.7843603E+01  0.5992492E-09  0.5992492E-09  0.6053148E-09  0.5000000E-15
   1.0000000000000000E-004
  CAR 
 Name                                    
     88    666    136

  0.3742002E-15  0.3742002E-15  0.3742002E-15  0.7513148E-03
    1       -5.698926   1.000000
    2       -3.438634   1.000000
    3       -1.580980   1.000000
    4       -1.580916   1.000000
    5       -1.580885   1.000000
    6       -1.497465   1.000000
    7       -1.497388   1.000000
    8       -1.497376   1.000000
    9       -1.352602   1.000000
   10       -1.352537   1.000000
   11       -1.352511   1.000000
   12        0.203486   1.000000
   13        0.629061   1.000000
   14        0.629143   1.000000
   15        0.629159   1.000000
   16        3.235307   1.000000
   17        3.235371   1.000000
   18        3.235389   1.000000
   19        4.092725   1.000000
   20        4.092764   1.000000
   21        4.092791   1.000000
   22        4.705762   1.000000
   23        4.705823   1.000000
   24        4.705851   1.000000
   25        4.802323   1.000000
   26        4.802362   1.000000
   27        4.802379   1.000000
   28        5.137987   1.000000
   29        5.138019   1.000000
   30        5.186903   1.000000
   31        5.186958   1.000000
   32        5.187012   1.000000
   33        5.582107   1.000000
   34        5.582159   1.000000
   35        5.582189   1.000000
   36        5.852304   1.000000
   37        6.541548   1.000000
   38        7.275373   1.000000
   39        7.275420   1.000000
   40        7.789073   1.000000
   41        7.789118   1.000000
   42        8.100407   1.000000
   43        8.100419   1.000000
   44        8.971063   0.974037
   45        8.971237   0.973702
   46        8.971261   0.834309
   47        9.409525   0.000000
   48        9.409573   0.000000
   49        9.774705   0.000000
   50       10.036277   0.000000
   51       10.036397   0.000000
   52       10.036440   0.000000
   53       10.204116   0.000000
   54       10.204297   0.000000
   55       10.204406   0.000000
   56       10.244730   0.000000
   57       10.244853   0.000000
   58       10.244897   0.000000
   59       10.596516   0.000000
   60       10.596603   0.000000
   61       10.596639   0.000000
   62       11.891099   0.000000
   63       11.891122   0.000000
   64       12.334150   0.000000
   65       12.334201   0.000000
   66       12.334291   0.000000
   67       12.436135   0.000000
   68       12.436167   0.000000
   69       12.436210   0.000000
   70       12.482537   0.000000
   71       12.482685   0.000000
   72       12.482704   0.000000
   73       13.446860   0.000000
   74       13.446905   0.000000
   75       13.446916   0.000000
   76       14.024256   0.000000
   77       14.024302   0.000000
   78       14.114774   0.000000
   79       14.114789   0.000000
   80       14.114827   0.000000
   81       15.000097   0.000000
   82       15.480104   0.000000
   83       15.480155   0.000000
   84       15.480220   0.000000
   85       15.526427   0.000000
   86       16.688431   0.000000
   87       16.688442   0.000000
   88       16.688465   0.000000
   89       16.747786   0.000000
   90       16.747846   0.000000
   91       16.747872   0.000000
   92       18.178484   0.000000
   93       18.704621   0.000000
   94       18.795224   0.000000
   95       18.795271   0.000000
   96       18.977500   0.000000
   97       19.638286   0.000000
   98       19.638368   0.000000
   99       19.638385   0.000000
  100       21.748774   0.000000
  101       21.748798   0.000000
  102       21.748844   0.000000
  103       21.823780   0.000000
  104       21.823826   0.000000
  105       21.823859   0.000000
  106       22.868253   0.000000
  107       23.530843   0.000000
  108       23.530869   0.000000
  109       23.530885   0.000000
  110       24.267401   0.000000
  111       24.267432   0.000000
  112       24.267448   0.000000
  113       25.295433   0.000000
  114       25.295469   0.000000
  115       25.295480   0.000000
  116       26.465637   0.000000
  117       26.465677   0.000000
  118       26.465690   0.000000
  119       26.485425   0.000000
  120       26.515886   0.000000
  121       26.544057   0.000000
  122       26.544104   0.000000
  123       26.544131   0.000000
  124       26.866033   0.000000
  125       26.866113   0.000000
  126       26.866163   0.000000
  127       27.413818   0.000000
  128       27.413876   0.000000
  129       27.413898   0.000000
  130       27.458208   0.000000
  131       27.458290   0.000000
  132       27.458312   0.000000
  133       27.573863   0.000000
  134       27.573919   0.000000
  135       28.563698   0.000000
  136       28.563746   0.000000

  0.9090909E-01  0.3782312E-15  0.3742002E-15  0.1502630E-02
    1       -5.659060   1.000000
    2       -3.418548   1.000000
    3       -2.100162   1.000000
    4       -1.746683   1.000000
    5       -1.746666   1.000000
    6       -1.677259   1.000000
    7       -1.584970   1.000000
    8       -1.584920   1.000000
    9       -1.046377   1.000000
   10       -1.046373   1.000000
   11       -0.715900   1.000000
   12        0.254466   1.000000
   13        0.654257   1.000000
   14        0.654326   1.000000
   15        0.777626   1.000000
   16        3.201803   1.000000
   17        3.201835   1.000000
   18        3.273713   1.000000
   19        3.864606   1.000000
   20        4.050745   1.000000
   21        4.050791   1.000000
   22        4.416388   1.000000
   23        4.416402   1.000000
   24        4.755269   1.000000
   25        4.755313   1.000000
   26        4.814326   1.000000
   27        4.882600   1.000000
   28        5.032923   1.000000
   29        5.137544   1.000000
   30        5.200356   1.000000
   31        5.214686   1.000000
   32        5.214736   1.000000
   33        5.606590   1.000000
   34        5.864725   1.000000
   35        5.948504   1.000000
   36        5.948534   1.000000
   37        6.480990   1.000000
   38        6.778593   1.000000
   39        6.806067   1.000000
   40        8.017406   1.000000
   41        8.134575   1.000000
   42        8.233370   1.000000
   43        8.281680   1.000000
   44        8.854716   1.011587
   45        8.854834   1.026691
   46        8.979671   0.804527
   47        9.400243   0.000000
   48        9.511849   0.000000
   49        9.784020   0.000000
   50       10.003667   0.000000
   51       10.003768   0.000000
   52       10.032061   0.000000
   53       10.186629   0.000000
   54       10.198866   0.000000
   55       10.200667   0.000000
   56       10.200814   0.000000
   57       10.267915   0.000000
   58       10.268043   0.000000
   59       10.541989   0.000000
   60       10.559124   0.000000
   61       10.559166   0.000000
   62       11.677177   0.000000
   63       11.692472   0.000000
   64       12.208202   0.000000
   65       12.267433   0.000000
   66       12.267537   0.000000
   67       12.406871   0.000000
   68       12.406938   0.000000
   69       12.425083   0.000000
   70       12.441851   0.000000
   71       12.574969   0.000000
   72       12.575012   0.000000
   73       13.460610   0.000000
   74       13.460662   0.000000
   75       13.560197   0.000000
   76       14.248574   0.000000
   77       14.259625   0.000000
   78       14.323272   0.000000
   79       14.384175   0.000000
   80       14.384210   0.000000
   81       15.063060   0.000000
   82       15.465651   0.000000
   83       15.466933   0.000000
   84       15.466984   0.000000
   85       15.641612   0.000000
   86       16.563960   0.000000
   87       16.719984   0.000000
   88       16.720015   0.000000
   89       16.881625   0.000000
   90       16.881652   0.000000
   91       16.916681   0.000000
   92       18.177298   0.000000
   93       18.569952   0.000000
   94       18.656995   0.000000
   95       18.841476   0.000000
   96       19.058011   0.000000
   97       19.131557   0.000000
   98       19.131593   0.000000
   99       19.747642   0.000000
  100       21.703784   0.000000
  101       21.724467   0.000000
  102       21.724519   0.000000
  103       21.751861   0.000000
  104       22.342217   0.000000
  105       22.342258   0.000000
  106       23.078729   0.000000
  107       23.258256   0.000000
  108       23.258274   0.000000
  109       23.329659   0.000000
  110       23.876411   0.000000
  111       24.120517   0.000000
  112       24.120541   0.000000
  113       24.842707   0.000000
  114       25.363790   0.000000
  115       25.363821   0.000000
  116       26.339705   0.000000
  117       26.450866   0.000000
  118       26.450887   0.000000
  119       26.486968   0.000000
  120       26.520239   0.000000
  121       26.520280   0.000000
  122       26.548102   0.000000
  123       26.548162   0.000000
  124       26.594261   0.000000
  125       26.838435   0.000000
  126       26.939318   0.000000
  127       26.968586   0.000000
  128       26.998302   0.000000
  129       27.374049   0.000000
  130       27.374085   0.000000
  131       27.394149   0.000000
  132       27.427818   0.000000
  133       27.427859   0.000000
  134       27.553382   0.000000
  135       29.261926   0.000000
  136       29.333849   0.000000

  0.1818182E+00  0.3988619E-15  0.3742002E-15  0.1502630E-02
    1       -5.540001   1.000000
    2       -3.358236   1.000000
    3       -2.729084   1.000000
    4       -1.996945   1.000000
    5       -1.996934   1.000000
    6       -1.908615   1.000000
    7       -1.595566   1.000000
    8       -1.595522   1.000000
    9       -0.627525   1.000000
   10       -0.627521   1.000000
   11        0.013847   1.000000
   12        0.405957   1.000000
   13        0.724471   1.000000
   14        0.724535   1.000000
   15        1.164469   1.000000
   16        3.109129   1.000000
   17        3.109156   1.000000
   18        3.388548   1.000000
   19        3.425399   1.000000
   20        3.791448   1.000000
   21        3.791460   1.000000
   22        3.960100   1.000000
   23        3.960132   1.000000
   24        4.728353   1.000000
   25        4.848334   1.000000
   26        4.865987   1.000000
   27        4.866041   1.000000
   28        5.134572   1.000000
   29        5.185092   1.000000
   30        5.241361   1.000000
   31        5.294026   1.000000
   32        5.294079   1.000000
   33        5.675390   1.000000
   34        5.901693   1.000000
   35        6.054239   1.000000
   36        6.185546   1.000000
   37        6.324494   1.000000
   38        6.516532   1.000000
   39        6.516571   1.000000
   40        7.786484   1.000000
   41        8.235760   1.000000
   42        8.565784   1.000000
   43        8.565904   1.000000
   44        8.807105   1.057942
   45        8.968191   0.526979
   46        9.004486   0.273246
   47        9.373155   0.000000
   48        9.790908   0.000000
   49        9.811279   0.000000
   50        9.888570   0.000000
   51        9.888619   0.000000
   52       10.022381   0.000000
   53       10.024032   0.000000
   54       10.180577   0.000000
   55       10.190725   0.000000
   56       10.190876   0.000000
   57       10.332353   0.000000
   58       10.332498   0.000000
   59       10.399220   0.000000
   60       10.477154   0.000000
   61       10.477236   0.000000
   62       11.226470   0.000000
   63       11.290204   0.000000
   64       11.908392   0.000000
   65       12.025890   0.000000
   66       12.026045   0.000000
   67       12.317470   0.000000
   68       12.372462   0.000000
   69       12.380067   0.000000
   70       12.380197   0.000000
   71       12.927544   0.000000
   72       12.927586   0.000000
   73       13.502459   0.000000
   74       13.502526   0.000000
   75       13.875969   0.000000
   76       14.614621   0.000000
   77       14.703281   0.000000
   78       15.026178   0.000000
   79       15.026217   0.000000
   80       15.026275   0.000000
   81       15.223377   0.000000
   82       15.425688   0.000000
   83       15.425731   0.000000
   84       15.452303   0.000000
   85       16.001983   0.000000
   86       16.437432   0.000000
   87       16.899614   0.000000
   88       16.899659   0.000000
   89       17.155778   0.000000
   90       17.172265   0.000000
   91       17.172290   0.000000
   92       18.170698   0.000000
   93       18.201975   0.000000
   94       18.258650   0.000000
   95       18.258684   0.000000
   96       18.287651   0.000000
   97       18.982932   0.000000
   98       19.311344   0.000000
   99       20.065262   0.000000
  100       21.346384   0.000000
  101       21.414026   0.000000
  102       21.414073   0.000000
  103       21.768495   0.000000
  104       22.548457   0.000000
  105       22.548484   0.000000
  106       22.800670   0.000000
  107       22.931147   0.000000
  108       23.470244   0.000000
  109       23.470286   0.000000
  110       23.643544   0.000000
  111       23.784465   0.000000
  112       23.784497   0.000000
  113       24.048975   0.000000
  114       25.452288   0.000000
  115       25.452313   0.000000
  116       25.490442   0.000000
  117       25.797225   0.000000
  118       25.883562   0.000000
  119       25.883614   0.000000
  120       26.301628   0.000000
  121       26.301654   0.000000
  122       26.592602   0.000000
  123       26.618916   0.000000
  124       26.618954   0.000000
  125       26.729981   0.000000
  126       26.823571   0.000000
  127       27.120222   0.000000
  128       27.120264   0.000000
  129       27.337151   0.000000
  130       27.380808   0.000000
  131       27.462689   0.000000
  132       27.462728   0.000000
  133       27.527746   0.000000
  134       27.824535   0.000000
  135       28.740376   0.000000
  136       28.740410   0.000000

  0.2727273E+00  0.4195187E-15  0.3742002E-15  0.1502630E-02
    1       -5.343345   1.000000
    2       -3.312559   1.000000
    3       -3.257607   1.000000
    4       -2.187637   1.000000
    5       -2.187574   1.000000
    6       -2.187567   1.000000
    7       -1.608993   1.000000
    8       -1.608956   1.000000
    9       -0.164989   1.000000
   10       -0.164982   1.000000
   11        0.653514   1.000000
   12        0.762317   1.000000
   13        0.823681   1.000000
   14        0.823739   1.000000
   15        1.699367   1.000000
   16        2.918327   1.000000
   17        2.980566   1.000000
   18        2.980587   1.000000
   19        3.147851   1.000000
   20        3.147863   1.000000
   21        3.579136   1.000000
   22        3.867702   1.000000
   23        3.867722   1.000000
   24        4.257447   1.000000
   25        4.899157   1.000000
   26        4.984701   1.000000
   27        4.984769   1.000000
   28        5.125002   1.000000
   29        5.291143   1.000000
   30        5.311744   1.000000
   31        5.411466   1.000000
   32        5.411526   1.000000
   33        5.512183   1.000000
   34        5.598438   1.000000
   35        5.774712   1.000000
   36        5.953167   1.000000
   37        6.121222   1.000000
   38        7.071466   1.000000
   39        7.071521   1.000000
   40        7.450757   1.000000
   41        8.217081   1.000000
   42        8.217206   1.000000
   43        8.399935   1.000000
   44        9.043877   0.279602
   45        9.330787  -0.005197
   46        9.340101   0.000000
   47        9.653208   0.000000
   48        9.668495   0.000000
   49        9.668521   0.000000
   50        9.778503   0.000000
   51        9.854370   0.000000
   52       10.026086   0.000000
   53       10.146491   0.000000
   54       10.177470   0.000000
   55       10.177623   0.000000
   56       10.189365   0.000000
   57       10.221636   0.000000
   58       10.407151   0.000000
   59       10.407282   0.000000
   60       10.421496   0.000000
   61       10.421664   0.000000
   62       10.757103   0.000000
   63       10.885759   0.000000
   64       11.535685   0.000000
   65       11.790533   0.000000
   66       11.790692   0.000000
   67       12.104302   0.000000
   68       12.232258   0.000000
   69       12.375720   0.000000
   70       12.375854   0.000000
   71       13.371151   0.000000
   72       13.371194   0.000000
   73       13.571804   0.000000
   74       13.571894   0.000000
   75       14.326780   0.000000
   76       15.074600   0.000000
   77       15.134431   0.000000
   78       15.352783   0.000000
   79       15.352815   0.000000
   80       15.406863   0.000000
   81       15.512332   0.000000
   82       15.865443   0.000000
   83       15.865482   0.000000
   84       15.929954   0.000000
   85       16.309584   0.000000
   86       16.613711   0.000000
   87       17.215478   0.000000
   88       17.215525   0.000000
   89       17.415100   0.000000
   90       17.440630   0.000000
   91       17.440666   0.000000
   92       17.558748   0.000000
   93       17.558773   0.000000
   94       17.684810   0.000000
   95       17.795344   0.000000
   96       18.150082   0.000000
   97       19.227352   0.000000
   98       19.718341   0.000000
   99       20.564927   0.000000
  100       20.772869   0.000000
  101       20.890124   0.000000
  102       20.890168   0.000000
  103       21.573621   0.000000
  104       21.573653   0.000000
  105       21.751421   0.000000
  106       21.823215   0.000000
  107       22.097166   0.000000
  108       23.211341   0.000000
  109       23.431719   0.000000
  110       23.431757   0.000000
  111       24.440069   0.000000
  112       24.444898   0.000000
  113       24.693462   0.000000
  114       24.693503   0.000000
  115       24.766206   0.000000
  116       25.207581   0.000000
  117       25.207626   0.000000
  118       25.427978   0.000000
  119       25.428010   0.000000
  120       26.276259   0.000000
  121       26.276288   0.000000
  122       26.534919   0.000000
  123       26.534942   0.000000
  124       26.748144   0.000000
  125       26.850487   0.000000
  126       26.911993   0.000000
  127       26.912028   0.000000
  128       27.181376   0.000000
  129       27.249070   0.000000
  130       27.495788   0.000000
  131       27.495824   0.000000
  132       27.903855   0.000000
  133       27.975930   0.000000
  134       28.254318   0.000000
  135       28.414042   0.000000
  136       28.414082   0.000000

  0.3636364E+00  0.4089374E-15  0.3742002E-15  0.1502630E-02
    1       -5.071664   1.000000
    2       -3.843910   1.000000
    3       -3.116708   1.000000
    4       -2.464609   1.000000
    5       -2.315504   1.000000
    6       -2.315499   1.000000
    7       -1.620936   1.000000
    8       -1.620906   1.000000
    9        0.313720   1.000000
   10        0.313727   1.000000
   11        0.924453   1.000000
   12        0.924503   1.000000
   13        0.989413   1.000000
   14        1.517786   1.000000
   15        2.327506   1.000000
   16        2.390751   1.000000
   17        2.540816   1.000000
   18        2.540827   1.000000
   19        2.852912   1.000000
   20        2.852927   1.000000
   21        3.664420   1.000000
   22        3.797520   1.000000
   23        3.797530   1.000000
   24        3.844269   1.000000
   25        4.518081   1.000000
   26        4.958731   1.000000
   27        5.063682   1.000000
   28        5.079091   1.000000
   29        5.079169   1.000000
   30        5.103872   1.000000
   31        5.413697   1.000000
   32        5.538537   1.000000
   33        5.538606   1.000000
   34        5.863644   1.000000
   35        5.881399   1.000000
   36        5.910603   1.000000
   37        5.996806   1.000000
   38        7.057708   1.000000
   39        7.567017   1.000000
   40        7.567103   1.000000
   41        7.906680   1.000000
   42        7.906815   1.000000
   43        8.620053   1.000000
   44        9.094986  -0.102408
   45        9.276944   0.000000
   46        9.374144   0.000000
   47        9.374225   0.000000
   48        9.487791   0.000000
   49        9.829851   0.000000
   50        9.909773   0.000000
   51       10.058457   0.000000
   52       10.076171   0.000000
   53       10.097298   0.000000
   54       10.165170   0.000000
   55       10.165325   0.000000
   56       10.301681   0.000000
   57       10.368412   0.000000
   58       10.368568   0.000000
   59       10.370903   0.000000
   60       10.508500   0.000000
   61       10.508692   0.000000
   62       10.550149   0.000000
   63       10.652887   0.000000
   64       11.134659   0.000000
   65       11.625820   0.000000
   66       11.625982   0.000000
   67       11.796200   0.000000
   68       11.968924   0.000000
   69       12.374374   0.000000
   70       12.374508   0.000000
   71       13.657698   0.000000
   72       13.657817   0.000000
   73       13.791980   0.000000
   74       13.792032   0.000000
   75       14.814221   0.000000
   76       15.250336   0.000000
   77       15.250364   0.000000
   78       15.480399   0.000000
   79       15.518661   0.000000
   80       15.588061   0.000000
   81       15.711502   0.000000
   82       16.162138   0.000000
   83       16.804268   0.000000
   84       16.804311   0.000000
   85       16.816321   0.000000
   86       16.816359   0.000000
   87       16.957787   0.000000
   88       17.108302   0.000000
   89       17.250884   0.000000
   90       17.404427   0.000000
   91       17.569925   0.000000
   92       17.569954   0.000000
   93       17.658647   0.000000
   94       18.024478   0.000000
   95       18.024498   0.000000
   96       18.104233   0.000000
   97       19.584811   0.000000
   98       20.032158   0.000000
   99       20.218779   0.000000
  100       20.218817   0.000000
  101       20.253374   0.000000
  102       20.484062   0.000000
  103       20.484095   0.000000
  104       20.505084   0.000000
  105       21.214191   0.000000
  106       21.354103   0.000000
  107       21.962287   0.000000
  108       22.389905   0.000000
  109       23.156960   0.000000
  110       23.156997   0.000000
  111       23.498399   0.000000
  112       23.776321   0.000000
  113       24.681428   0.000000
  114       24.681467   0.000000
  115       25.341992   0.000000
  116       25.342024   0.000000
  117       25.386597   0.000000
  118       25.838116   0.000000
  119       25.838155   0.000000
  120       26.212831   0.000000
  121       26.212856   0.000000
  122       26.340852   0.000000
  123       26.340878   0.000000
  124       26.815452   0.000000
  125       26.946951   0.000000
  126       26.946978   0.000000
  127       27.139996   0.000000
  128       27.272338   0.000000
  129       27.480825   0.000000
  130       27.480856   0.000000
  131       27.606114   0.000000
  132       27.840631   0.000000
  133       28.265913   0.000000
  134       28.265958   0.000000
  135       28.731810   0.000000
  136       28.827197   0.000000

  0.4545455E+00  0.3642606E-15  0.3742002E-15  0.1502630E-02
    1       -4.728357   1.000000
    2       -4.317557   1.000000
    3       -2.936050   1.000000
    4       -2.717297   1.000000
    5       -2.379680   1.000000
    6       -2.379677   1.000000
    7       -1.627857   1.000000
    8       -1.627831   1.000000
    9        0.711602   1.000000
   10        0.711606   1.000000
   11        0.990225   1.000000
   12        0.990271   1.000000
   13        1.402322   1.000000
   14        1.876411   1.000000
   15        2.076848   1.000000
   16        2.076856   1.000000
   17        2.266396   1.000000
   18        2.771186   1.000000
   19        2.771195   1.000000
   20        2.990013   1.000000
   21        3.019261   1.000000
   22        3.755047   1.000000
   23        3.760302   1.000000
   24        3.760305   1.000000
   25        4.182043   1.000000
   26        4.589769   1.000000
   27        5.017813   1.000000
   28        5.067947   1.000000
   29        5.130696   1.000000
   30        5.130781   1.000000
   31        5.548619   1.000000
   32        5.626878   1.000000
   33        5.626955   1.000000
   34        5.715847   1.000000
   35        5.966617   1.000000
   36        6.006717   1.000000
   37        6.243220   1.000000
   38        6.646284   1.000000
   39        7.719220   1.000000
   40        7.719364   1.000000
   41        7.920531   1.000000
   42        7.920668   1.000000
   43        8.885528   1.019118
   44        9.112895  -0.000705
   45        9.113038   0.000000
   46        9.153989   0.000000
   47        9.181475   0.000000
   48        9.216318   0.000000
   49        9.972701   0.000000
   50       10.027045   0.000000
   51       10.037332   0.000000
   52       10.120522   0.000000
   53       10.143961   0.000000
   54       10.157815   0.000000
   55       10.157971   0.000000
   56       10.285855   0.000000
   57       10.303328   0.000000
   58       10.352392   0.000000
   59       10.352561   0.000000
   60       10.562720   0.000000
   61       10.562927   0.000000
   62       10.718286   0.000000
   63       10.887300   0.000000
   64       11.134838   0.000000
   65       11.389535   0.000000
   66       11.542884   0.000000
   67       11.543048   0.000000
   68       11.589558   0.000000
   69       12.373896   0.000000
   70       12.374031   0.000000
   71       13.724622   0.000000
   72       13.724763   0.000000
   73       14.071472   0.000000
   74       14.071543   0.000000
   75       15.153789   0.000000
   76       15.153835   0.000000
   77       15.226908   0.000000
   78       15.472447   0.000000
   79       15.757794   0.000000
   80       15.981684   0.000000
   81       16.066240   0.000000
   82       16.131284   0.000000
   83       16.445590   0.000000
   84       16.445640   0.000000
   85       16.548314   0.000000
   86       16.690001   0.000000
   87       17.737559   0.000000
   88       17.737590   0.000000
   89       17.797854   0.000000
   90       17.797862   0.000000
   91       17.857960   0.000000
   92       17.991854   0.000000
   93       18.077725   0.000000
   94       18.304875   0.000000
   95       18.551965   0.000000
   96       18.552021   0.000000
   97       19.186558   0.000000
   98       19.268022   0.000000
   99       19.478968   0.000000
  100       19.478992   0.000000
  101       19.552367   0.000000
  102       19.552401   0.000000
  103       20.063050   0.000000
  104       20.659778   0.000000
  105       20.891522   0.000000
  106       21.610226   0.000000
  107       21.982099   0.000000
  108       22.252049   0.000000
  109       22.756627   0.000000
  110       22.842893   0.000000
  111       23.002689   0.000000
  112       23.002721   0.000000
  113       24.394698   0.000000
  114       24.394734   0.000000
  115       25.283577   0.000000
  116       25.283607   0.000000
  117       26.007385   0.000000
  118       26.007413   0.000000
  119       26.375072   0.000000
  120       26.394496   0.000000
  121       26.394519   0.000000
  122       26.699287   0.000000
  123       26.699328   0.000000
  124       26.910439   0.000000
  125       26.986937   0.000000
  126       26.986962   0.000000
  127       27.022614   0.000000
  128       27.268419   0.000000
  129       27.340252   0.000000
  130       27.340278   0.000000
  131       27.749878   0.000000
  132       27.914438   0.000000
  133       28.206972   0.000000
  134       28.207020   0.000000
  135       29.531194   0.000000
  136       29.581402   0.000000

  0.3742002E-15  0.9090909E-01  0.3742002E-15  0.1502630E-02
    1       -5.659060   1.000000
    2       -3.418548   1.000000
    3       -2.100162   1.000000
    4       -1.746692   1.000000
    5       -1.746657   1.000000
    6       -1.677260   1.000000
    7       -1.584968   1.000000
    8       -1.584921   1.000000
    9       -1.046383   1.000000
   10       -1.046366   1.000000
   11       -0.715900   1.000000
   12        0.254466   1.000000
   13        0.654247   1.000000
   14        0.654336   1.000000
   15        0.777626   1.000000
   16        3.201787   1.000000
   17        3.201851   1.000000
   18        3.273714   1.000000
   19        3.864605   1.000000
   20        4.050749   1.000000
   21        4.050788   1.000000
   22        4.416374   1.000000
   23        4.416415   1.000000
   24        4.755276   1.000000
   25        4.755305   1.000000
   26        4.814327   1.000000
   27        4.882600   1.000000
   28        5.032922   1.000000
   29        5.137545   1.000000
   30        5.200357   1.000000
   31        5.214684   1.000000
   32        5.214737   1.000000
   33        5.606590   1.000000
   34        5.864725   1.000000
   35        5.948482   1.000000
   36        5.948557   1.000000
   37        6.480990   1.000000
   38        6.778593   1.000000
   39        6.806067   1.000000
   40        8.017406   1.000000
   41        8.134574   1.000000
   42        8.233369   1.000000
   43        8.281682   1.000000
   44        8.854695   1.011589
   45        8.854855   1.026687
   46        8.979671   0.804529
   47        9.400242   0.000000
   48        9.511849   0.000000
   49        9.784020   0.000000
   50       10.003671   0.000000
   51       10.003765   0.000000
   52       10.032061   0.000000
   53       10.186629   0.000000
   54       10.198871   0.000000
   55       10.200617   0.000000
   56       10.200859   0.000000
   57       10.267921   0.000000
   58       10.268036   0.000000
   59       10.541990   0.000000
   60       10.559101   0.000000
   61       10.559189   0.000000
   62       11.677176   0.000000
   63       11.692473   0.000000
   64       12.208202   0.000000
   65       12.267419   0.000000
   66       12.267551   0.000000
   67       12.406864   0.000000
   68       12.406945   0.000000
   69       12.425081   0.000000
   70       12.441852   0.000000
   71       12.574965   0.000000
   72       12.575018   0.000000
   73       13.460621   0.000000
   74       13.460652   0.000000