  COHP#       atomMU       atomNU     distance     translation      ICOHP (at) eF   for spin  1
      1           V2           V1      3.02657       0   0   0           -0.37827 
      2           V2           V1      3.02657       0   0   1           -0.37829 
      3           V3           V1      2.99625       1   0   0           -0.32836 
      4           V3           V1      2.99625       1   1   0           -0.32803 
      5           V5           V1      2.99625       0   0   0           -0.32825 
      6           V5           V1      2.99625       1   0   0           -0.32819 
      7           V7           V1      2.99625       0   0   0           -0.32905 
      8           V7           V1      2.99625       1   1   0           -0.32903 
      9           B9           V1      2.29838       0   0   0           -1.38482 
     10          B10           V1      2.29838       0   0   1           -1.38504 
     11          B11           V1      2.29838       0   1   0           -1.38571 
     12          B12           V1      2.29838       0   1   1           -1.38496 
     13          B15           V1      2.29838       1   1   0           -1.38517 
     14          B16           V1      2.29838       1   1   1           -1.38524 
     15          B17           V1      2.29838       0   0   0           -1.38540 
     16          B18           V1      2.29838       0   0   1           -1.38516 
     17          B21           V1      2.29838       1   0   0           -1.38557 
     18          B22           V1      2.29838       1   0   1           -1.38577 
     19          B23           V1      2.29838       1   1   0           -1.38532 
     20          B24           V1      2.29838       1   1   1           -1.38531 
     21           V4           V2      2.99625       1   0   0           -0.32821 
     22           V4           V2      2.99625       1   1   0           -0.32794 
     23           V6           V2      2.99625       0   0   0           -0.32843 
     24           V6           V2      2.99625       1   0   0           -0.32835 
     25           V8           V2      2.99625       0   0   0           -0.32915 
     26           V8           V2      2.99625       1   1   0           -0.32908 
     27           B9           V2      2.29838       0   0   0           -1.38502 
     28          B10           V2      2.29838       0   0   0           -1.38479 
     29          B11           V2      2.29838       0   1   0           -1.38493 
     30          B12           V2      2.29838       0   1   0           -1.38563 
     31          B15           V2      2.29838       1   1   0           -1.38521 
     32          B16           V2      2.29838       1   1   0           -1.38522 
     33          B17           V2      2.29838       0   0   0           -1.38519 
     34          B18           V2      2.29838       0   0   0           -1.38549 
     35          B21           V2      2.29838       1   0   0           -1.38577 
     36          B22           V2      2.29838       1   0   0           -1.38552 
     37          B23           V2      2.29838       1   1   0           -1.38532 
     38          B24           V2      2.29838       1   1   0           -1.38534 
     39           V4           V3      3.02657       0   0   0           -0.37933 
     40           V4           V3      3.02657       0   0   1           -0.37934 
     41           V5           V3      2.99625      -1  -1   0           -0.32750 
     42           V5           V3      2.99625       0   0   0           -0.32727 
     43           V7           V3      2.99625      -1   0   0           -0.32845 
     44           V7           V3      2.99625       0   0   0           -0.32785 
     45           B9           V3      2.29838      -1   0   0           -1.38559 
     46          B10           V3      2.29838      -1   0   1           -1.38505 
     47          B11           V3      2.29838      -1   0   0           -1.38532 
     48          B12           V3      2.29838      -1   0   1           -1.38533 
     49          B13           V3      2.29838       0   0   0           -1.38534 
     50          B14           V3      2.29838       0   0   1           -1.38549 
     51          B19           V3      2.29838      -1   0   0           -1.38551 
     52          B20           V3      2.29838      -1   0   1           -1.38532 
     53          B21           V3      2.29838       0   0   0           -1.38521 
     54          B22           V3      2.29838       0   0   1           -1.38479 
     55          B23           V3      2.29838       0   0   0           -1.38478 
     56          B24           V3      2.29838       0   0   1           -1.38521 
     57           V6           V4      2.99625      -1  -1   0           -0.32760 
     58           V6           V4      2.99625       0   0   0           -0.32739 
     59           V8           V4      2.99625      -1   0   0           -0.32856 
     60           V8           V4      2.99625       0   0   0           -0.32791 
     61           B9           V4      2.29838      -1   0   0           -1.38503 
     62          B10           V4      2.29838      -1   0   0           -1.38553 
     63          B11           V4      2.29838      -1   0   0           -1.38527 
     64          B12           V4      2.29838      -1   0   0           -1.38526 
     65          B13           V4      2.29838       0   0   0           -1.38545 
     66          B14           V4      2.29838       0   0   0           -1.38538 
     67          B19           V4      2.29838      -1   0   0           -1.38538 
     68          B20           V4      2.29838      -1   0   0           -1.38562 
     69          B21           V4      2.29838       0   0   0           -1.38479 
     70          B22           V4      2.29838       0   0   0           -1.38523 
     71          B23           V4      2.29838       0   0   0           -1.38522 
     72          B24           V4      2.29838       0   0   0           -1.38475 
     73           V6           V5      3.02657       0   0   0           -0.37884 
     74           V6           V5      3.02657       0   0   1           -0.37886 
     75           V7           V5      2.99625       0   0   0           -0.32712 
     76           V7           V5      2.99625       0   1   0           -0.32812 
     77          B11           V5      2.29838       0   1   0           -1.38499 
     78          B12           V5      2.29838       0   1   1           -1.38564 
     79          B13           V5      2.29838       0   0   0           -1.38520 
     80          B14           V5      2.29838       0   0   1           -1.38559 
     81          B15           V5      2.29838       0   1   0           -1.38525 
     82          B16           V5      2.29838       0   1   1           -1.38519 
     83          B17           V5      2.29838       0   0   0           -1.38473 
     84          B18           V5      2.29838       0   0   1           -1.38538 
     85          B19           V5      2.29838       0   1   0           -1.38519 
     86          B20           V5      2.29838       0   1   1           -1.38520 
     87          B21           V5      2.29838       0   0   0           -1.38513 
     88          B22           V5      2.29838       0   0   1           -1.38532 
     89           V8           V6      2.99625       0   0   0           -0.32697 
     90           V8           V6      2.99625       0   1   0           -0.32797 
     91          B11           V6      2.29838       0   1   0           -1.38562 
     92          B12           V6      2.29838       0   1   0           -1.38504 
     93          B13           V6      2.29838       0   0   0           -1.38557 
     94          B14           V6      2.29838       0   0   0           -1.38517 
     95          B15           V6      2.29838       0   1   0           -1.38518 
     96          B16           V6      2.29838       0   1   0           -1.38520 
     97          B17           V6      2.29838       0   0   0           -1.38541 
     98          B18           V6      2.29838       0   0   0           -1.38471 
     99          B19           V6      2.29838       0   1   0           -1.38521 
    100          B20           V6      2.29838       0   1   0           -1.38521 
    101          B21           V6      2.29838       0   0   0           -1.38531 
    102          B22           V6      2.29838       0   0   0           -1.38518 
    103           V8           V7      3.02657       0   0   0           -0.37971 
    104           V8           V7      3.02657       0   0   1           -0.37972 
    105           B9           V7      2.29838       0   0   0           -1.38517 
    106          B10           V7      2.29838       0   0   1           -1.38541 
    107          B13           V7      2.29838       0   0   0           -1.38578 
    108          B14           V7      2.29838       0   0   1           -1.38509 
    109          B15           V7      2.29838       0   0   0           -1.38516 
    110          B16           V7      2.29838       0   0   1           -1.38525 
    111          B17           V7      2.29838       0   0   0           -1.38546 
    112          B18           V7      2.29838       0   0   1           -1.38506 
    113          B19           V7      2.29838       0   0   0           -1.38549 
    114          B20           V7      2.29838       0   0   1           -1.38565 
    115          B23           V7      2.29838       0   0   0           -1.38531 
    116          B24           V7      2.29838       0   0   1           -1.38503 
    117           B9           V8      2.29838       0   0   0           -1.38537 
    118          B10           V8      2.29838       0   0   0           -1.38520 
    119          B13           V8      2.29838       0   0   0           -1.38510 
    120          B14           V8      2.29838       0   0   0           -1.38574 
    121          B15           V8      2.29838       0   0   0           -1.38522 
    122          B16           V8      2.29838       0   0   0           -1.38512 
    123          B17           V8      2.29838       0   0   0           -1.38506 
    124          B18           V8      2.29838       0   0   0           -1.38547 
    125          B19           V8      2.29838       0   0   0           -1.38564 
    126          B20           V8      2.29838       0   0   0           -1.38543 
    127          B23           V8      2.29838       0   0   0           -1.38505 
    128          B24           V8      2.29838       0   0   0           -1.38539 
    129          B10           B9      3.02657       0   0   0           -0.20264 
    130          B10           B9      3.02657       0   0   1           -0.20264 
    131          B11           B9      2.99625       0   0   0           -0.10441 
    132          B11           B9      2.99625       0   1   0           -0.10428 
    133          B13           B9      2.99625       0   0   0           -0.10447 
    134          B13           B9      2.99625       1   0   0           -0.10445 
    135          B15           B9      2.99625       0   0   0           -0.10435 
    136          B15           B9      2.99625       1   1   0           -0.10439 
    137          B17           B9      1.72988       0   0   0           -7.38120 
    138          B18           B9      3.48606       0   0   0           -0.01329 
    139          B18           B9      3.48606       0   0   1           -0.01328 
    140          B19           B9      1.72988       0   0   0           -7.38001 
    141          B20           B9      3.48606       0   0   0           -0.01328 
    142          B20           B9      3.48606       0   0   1           -0.01327 
    143          B21           B9      1.72988       1   0   0           -7.38044 
    144          B22           B9      3.48606       1   0   0           -0.01329 
    145          B22           B9      3.48607       1   0   1           -0.01328 
    146          B23           B9      3.45977       0   0   0            0.01054 
    147          B23           B9      3.45977       1   0   0            0.01054 
    148          B23           B9      3.45977       1   1   0            0.01052 
    149          B12          B10      2.99625       0   0   0           -0.10441 
    150          B12          B10      2.99625       0   1   0           -0.10428 
    151          B14          B10      2.99625       0   0   0           -0.10447 
    152          B14          B10      2.99625       1   0   0           -0.10446 
    153          B16          B10      2.99625       0   0   0           -0.10436 
    154          B16          B10      2.99625       1   1   0           -0.10439 
    155          B17          B10      3.48606       0   0  -1           -0.01328 
    156          B17          B10      3.48606       0   0   0           -0.01328 
    157          B18          B10      1.72988       0   0   0           -7.38117 
    158          B19          B10      3.48606       0   0  -1           -0.01328 
    159          B19          B10      3.48606       0   0   0           -0.01328 
    160          B20          B10      1.72988       0   0   0           -7.37999 
    161          B21          B10      3.48607       1   0  -1           -0.01329 
    162          B21          B10      3.48606       1   0   0           -0.01328 
    163          B22          B10      1.72988       1   0   0           -7.38047 
    164          B24          B10      3.45977       0   0   0            0.01054 
    165          B24          B10      3.45977       1   0   0            0.01054 
    166          B24          B10      3.45977       1   1   0            0.01052 
    167          B12          B11      3.02657       0   0   0           -0.20264 
    168          B12          B11      3.02657       0   0   1           -0.20264 
    169          B13          B11      2.99625       0  -1   0           -0.10451 
    170          B13          B11      2.99625       1   0   0           -0.10450 
    171          B15          B11      2.99625       0   0   0           -0.10441 
    172          B15          B11      2.99625       1   0   0           -0.10432 
    173          B17          B11      1.72988       0  -1   0           -7.38004 
    174          B18          B11      3.48606       0  -1   0           -0.01328 
    175          B18          B11      3.48606       0  -1   1           -0.01329 
    176          B19          B11      1.72988       0   0   0           -7.37945 
    177          B20          B11      3.48606       0   0   0           -0.01327 
    178          B20          B11      3.48607       0   0   1           -0.01324 
    179          B21          B11      3.45977       0  -1   0            0.01051 
    180          B21          B11      3.45977       1  -1   0            0.01044 
    181          B21          B11      3.45977       1   0   0            0.01053 
    182          B23          B11      1.72988       1   0   0           -7.38043 
    183          B24          B11      3.48606       1   0   0           -0.01329 
    184          B24          B11      3.48606       1   0   1           -0.01329 
    185          B14          B12      2.99625       0  -1   0           -0.10452 
    186          B14          B12      2.99625       1   0   0           -0.10451 
    187          B16          B12      2.99625       0   0   0           -0.10442 
    188          B16          B12      2.99625       1   0   0           -0.10432 
    189          B17          B12      3.48606       0  -1  -1           -0.01328 
    190          B17          B12      3.48606       0  -1   0           -0.01329 
    191          B18          B12      1.72988       0  -1   0           -7.38000 
    192          B19          B12      3.48607       0   0  -1           -0.01327 
    193          B19          B12      3.48606       0   0   0           -0.01324 
    194          B20          B12      1.72988       0   0   0           -7.37941 
    195          B22          B12      3.45977       0  -1   0            0.01051 
    196          B22          B12      3.45977       1  -1   0            0.01044 
    197          B22          B12      3.45977       1   0   0            0.01053 
    198          B23          B12      3.48606       1   0  -1           -0.01329 
    199          B23          B12      3.48606       1   0   0           -0.01329 
    200          B24          B12      1.72988       1   0   0           -7.38045 
    201          B14          B13      3.02657       0   0   0           -0.20265 
    202          B14          B13      3.02657       0   0   1           -0.20265 
    203          B15          B13      2.99625       0   0   0           -0.10443 
    204          B15          B13      2.99625       0   1   0           -0.10448 
    205          B17          B13      1.72988       0   0   0           -7.37983 
    206          B18          B13      3.48606       0   0   0           -0.01325 
    207          B18          B13      3.48606       0   0   1           -0.01327 
    208          B19          B13      3.45977      -1   0   0            0.01054 
    209          B19          B13      3.45977       0   0   0            0.01056 
    210          B19          B13      3.45977       0   1   0            0.01056 
    211          B21          B13      1.72988       0   0   0           -7.37921 
    212          B22          B13      3.48606       0   0   0           -0.01326 
    213          B22          B13      3.48606       0   0   1           -0.01323 
    214          B23          B13      1.72988       0   0   0           -7.37975 
    215          B24          B13      3.48606       0   0   0           -0.01325 
    216          B24          B13      3.48606       0   0   1           -0.01326 
    217          B16          B14      2.99625       0   0   0           -0.10443 
    218          B16          B14      2.99625       0   1   0           -0.10447 
    219          B17          B14      3.48606       0   0  -1           -0.01325 
    220          B17          B14      3.48606       0   0   0           -0.01327 
    221          B18          B14      1.72988       0   0   0           -7.37986 
    222          B20          B14      3.45977      -1   0   0            0.01054 
    223          B20          B14      3.45977       0   0   0            0.01055 
    224          B20          B14      3.45977       0   1   0            0.01056 
    225          B21          B14      3.48606       0   0  -1           -0.01326 
    226          B21          B14      3.48606       0   0   0           -0.01323 
    227          B22          B14      1.72988       0   0   0           -7.37918 
    228          B23          B14      3.48606       0   0  -1           -0.01325 
    229          B23          B14      3.48606       0   0   0           -0.01326 
    230          B24          B14      1.72988       0   0   0           -7.37973 
    231          B16          B15      3.02657       0   0   0           -0.20265 
    232          B16          B15      3.02657       0   0   1           -0.20265 
    233          B17          B15      3.45977      -1  -1   0            0.01051 
    234          B17          B15      3.45977       0  -1   0            0.01052 
    235          B17          B15      3.45977       0   0   0            0.01052 
    236          B19          B15      1.72988       0   0   0           -7.37977 
    237          B20          B15      3.48606       0   0   0           -0.01327 
    238          B20          B15      3.48606       0   0   1           -0.01328 
    239          B21          B15      1.72988       0  -1   0           -7.38047 
    240          B22          B15      3.48606       0  -1   0           -0.01328 
    241          B22          B15      3.48606       0  -1   1           -0.01329 
    242          B23          B15      1.72988       0   0   0           -7.38127 
    243          B24          B15      3.48606       0   0   0           -0.01329 
    244          B24          B15      3.48606       0   0   1           -0.01329 
    245          B18          B16      3.45977      -1  -1   0            0.01051 
    246          B18          B16      3.45977       0  -1   0            0.01052 
    247          B18          B16      3.45977       0   0   0            0.01052 
    248          B19          B16      3.48606       0   0  -1           -0.01327 
    249          B19          B16      3.48606       0   0   0           -0.01328 
    250          B20          B16      1.72988       0   0   0           -7.37981 
    251          B21          B16      3.48606       0  -1  -1           -0.01328 
    252          B21          B16      3.48606       0  -1   0           -0.01329 
    253          B22          B16      1.72988       0  -1   0           -7.38046 
    254          B23          B16      3.48606       0   0  -1           -0.01329 
    255          B23          B16      3.48606       0   0   0           -0.01329 
    256          B24          B16      1.72988       0   0   0           -7.38124 
    257          B18          B17      3.02657       0   0   0           -0.20266 
    258          B18          B17      3.02657       0   0   1           -0.20266 
    259          B19          B17      2.99625       0   0   0           -0.10444 
    260          B19          B17      2.99625       0   1   0           -0.10447 
    261          B21          B17      2.99625       0   0   0           -0.10440 
    262          B21          B17      2.99625       1   0   0           -0.10433 
    263          B23          B17      2.99625       0   0   0           -0.10439 
    264          B23          B17      2.99625       1   1   0           -0.10443 
    265          B20          B18      2.99625       0   0   0           -0.10444 
    266          B20          B18      2.99625       0   1   0           -0.10446 
    267          B22          B18      2.99625       0   0   0           -0.10440 
    268          B22          B18      2.99625       1   0   0           -0.10433 
    269          B24          B18      2.99625       0   0   0           -0.10439 
    270          B24          B18      2.99625       1   1   0           -0.10443 
    271          B20          B19      3.02657       0   0   0           -0.20261 
    272          B20          B19      3.02657       0   0   1           -0.20261 
    273          B21          B19      2.99625       0  -1   0           -0.10448 
    274          B21          B19      2.99625       1   0   0           -0.10447 
    275          B23          B19      2.99625       0   0   0           -0.10447 
    276          B23          B19      2.99625       1   0   0           -0.10445 
    277          B22          B20      2.99625       0  -1   0           -0.10448 
    278          B22          B20      2.99625       1   0   0           -0.10447 
    279          B24          B20      2.99625       0   0   0           -0.10448 
    280          B24          B20      2.99625       1   0   0           -0.10445 
    281          B22          B21      3.02657       0   0   0           -0.20265 
    282          B22          B21      3.02657       0   0   1           -0.20265 
    283          B23          B21      2.99625       0   0   0           -0.10440 
    284          B23          B21      2.99625       0   1   0           -0.10430 
    285          B24          B22      2.99625       0   0   0           -0.10440 
    286          B24          B22      2.99625       0   1   0           -0.10429 
    287          B24          B23      3.02657       0   0   0           -0.20266 
    288          B24          B23      3.02657       0   0   1           -0.20266 
