   51   51    1    1
  0.2316787E+02  0.8645320E-09  0.6085000E-09  0.2593596E-08  0.5000000E-15
   1.0000000000000000E-004
  CAR 
 Name                                    
    191    149    128

  0.3742002E-15  0.3742002E-15  0.3742002E-15  0.3367003E-02
    1      -13.919447   1.000000
    2      -12.610042   1.000000
    3      -12.409852   1.000000
    4      -11.953068   1.000000
    5      -11.655370   1.000000
    6      -11.160085   1.000000
    7      -11.111517   1.000000
    8      -11.059813   1.000000
    9      -11.057663   1.000000
   10      -10.620438   1.000000
   11      -10.616867   1.000000
   12      -10.316062   1.000000
   13      -10.166345   1.000000
   14      -10.116172   1.000000
   15       -9.803099   1.000000
   16       -9.751120   1.000000
   17       -9.176059   1.000000
   18       -8.813888   1.000000
   19       -8.798817   1.000000
   20       -8.745331   1.000000
   21       -8.666765   1.000000
   22       -8.548590   1.000000
   23       -8.472301   1.000000
   24       -8.061183   1.000000
   25       -7.957164   1.000000
   26       -7.932502   1.000000
   27       -7.368462   1.000000
   28       -7.252806   1.000000
   29       -6.842325   1.000000
   30       -6.747669   1.000000
   31       -6.436895   1.000000
   32       -6.425769   1.000000
   33       -6.299028   1.000000
   34       -5.946249   1.000000
   35       -5.892293   1.000000
   36       -5.618521   1.000000
   37       -5.567482   1.000000
   38       -5.496110   1.000000
   39       -5.370384   1.000000
   40       -5.273603   1.000000
   41       -5.224514   1.000000
   42       -5.126071   1.000000
   43       -5.058015   1.000000
   44       -4.982737   1.000000
   45       -4.965789   1.000000
   46       -4.807955   1.000000
   47       -4.704274   1.000000
   48       -4.661550   1.000000
   49       -4.525849   1.000000
   50       -4.467563   1.000000
   51       -4.462813   1.000000
   52       -4.401080   1.000000
   53       -4.384783   1.000000
   54       -4.338766   1.000000
   55       -4.271558   1.000000
   56       -4.118906   1.000000
   57       -4.032812   1.000000
   58       -4.002420   1.000000
   59       -3.993082   1.000000
   60       -3.966886   1.000000
   61       -3.801228   1.000000
   62       -3.700867   1.000000
   63       -3.473962   1.000000
   64       -3.396530   1.000000
   65       -3.337711   1.000000
   66       -3.322423   1.000000
   67       -3.260163   1.000000
   68       -3.242512   1.000000
   69       -3.182940   1.000000
   70       -3.171082   1.000000
   71       -3.155888   1.000000
   72       -2.985882   1.000000
   73       -2.671465   1.000000
   74       -2.607708   1.000000
   75       -2.475526   1.000000
   76       -2.438388   1.000000
   77       -2.197673   1.000000
   78       -2.149960   1.000000
   79       -2.142423   1.000000
   80       -2.136556   1.000000
   81       -1.841122   1.000000
   82       -1.677103   1.000000
   83       -1.446285   1.000000
   84       -1.215132   1.000000
   85       -1.054069   1.000000
   86       -1.015978   1.000000
   87       -0.974343   1.000000
   88       -0.885314   1.000000
   89       -0.797525   1.000000
   90       -0.285519   1.000000
   91       -0.221560   1.000000
   92        0.002022   1.018238
   93        0.105877   0.948422
   94        0.127111   0.845126
   95        0.142708   0.741855
   96        0.269882  -0.021907
   97        0.327411  -0.025528
   98        0.614354  -0.000000
   99        0.667141  -0.000000
  100        0.678176  -0.000000
  101        0.711898  -0.000000
  102        0.797734  -0.000000
  103        0.873463  -0.000000
  104        0.927110  -0.000000
  105        0.972659  -0.000000
  106        1.134017  -0.000000
  107        1.321809  -0.000000
  108        1.387588  -0.000000
  109        1.396460  -0.000000
  110        1.499730  -0.000000
  111        1.513159  -0.000000
  112        1.571815  -0.000000
  113        1.586672  -0.000000
  114        1.681044  -0.000000
  115        1.719109  -0.000000
  116        1.793108  -0.000000
  117        1.808316  -0.000000
  118        1.857423  -0.000000
  119        1.879741  -0.000000
  120        1.988701  -0.000000
  121        2.059431  -0.000000
  122        2.191386  -0.000000
  123        2.302800  -0.000000
  124        2.351592  -0.000000
  125        2.440024  -0.000000
  126        2.526427  -0.000000
  127        2.752327  -0.000000
  128        3.927249   0.000000

  0.1111111E+00  0.3729374E-15  0.3860503E-15  0.6734007E-02
    1      -13.892405   1.000000
    2      -12.587935   1.000000
    3      -12.530620   1.000000
    4      -11.892851   1.000000
    5      -11.638142   1.000000
    6      -11.163868   1.000000
    7      -11.121568   1.000000
    8      -11.061495   1.000000
    9      -11.052230   1.000000
   10      -10.620953   1.000000
   11      -10.615380   1.000000
   12      -10.341045   1.000000
   13      -10.156485   1.000000
   14      -10.113512   1.000000
   15       -9.785160   1.000000
   16       -9.732387   1.000000
   17       -9.166435   1.000000
   18       -8.828935   1.000000
   19       -8.786213   1.000000
   20       -8.727811   1.000000
   21       -8.679118   1.000000
   22       -8.549266   1.000000
   23       -8.510768   1.000000
   24       -8.060558   1.000000
   25       -7.994411   1.000000
   26       -7.957264   1.000000
   27       -7.414287   1.000000
   28       -7.309635   1.000000
   29       -6.800012   1.000000
   30       -6.700695   1.000000
   31       -6.418456   1.000000
   32       -6.403428   1.000000
   33       -6.298012   1.000000
   34       -5.935684   1.000000
   35       -5.885485   1.000000
   36       -5.622948   1.000000
   37       -5.545038   1.000000
   38       -5.490534   1.000000
   39       -5.379581   1.000000
   40       -5.290195   1.000000
   41       -5.226355   1.000000
   42       -5.122989   1.000000
   43       -5.033848   1.000000
   44       -4.970517   1.000000
   45       -4.935954   1.000000
   46       -4.782197   1.000000
   47       -4.706670   1.000000
   48       -4.629583   1.000000
   49       -4.560159   1.000000
   50       -4.444052   1.000000
   51       -4.441348   1.000000
   52       -4.404747   1.000000
   53       -4.370771   1.000000
   54       -4.322335   1.000000
   55       -4.248670   1.000000
   56       -4.112669   1.000000
   57       -4.030682   1.000000
   58       -4.014770   1.000000
   59       -3.994833   1.000000
   60       -3.964235   1.000000
   61       -3.789104   1.000000
   62       -3.702105   1.000000
   63       -3.490374   1.000000
   64       -3.404339   1.000000
   65       -3.326341   1.000000
   66       -3.310992   1.000000
   67       -3.290641   1.000000
   68       -3.242212   1.000000
   69       -3.193489   1.000000
   70       -3.164809   1.000000
   71       -3.119797   1.000000
   72       -3.009486   1.000000
   73       -2.756265   1.000000
   74       -2.603680   1.000000
   75       -2.488825   1.000000
   76       -2.404322   1.000000
   77       -2.236770   1.000000
   78       -2.206785   1.000000
   79       -2.192711   1.000000
   80       -2.128485   1.000000
   81       -1.836181   1.000000
   82       -1.573562   1.000000
   83       -1.473260   1.000000
   84       -1.228950   1.000000
   85       -1.062044   1.000000
   86       -1.031958   1.000000
   87       -0.936444   1.000000
   88       -0.868938   1.000000
   89       -0.698806   1.000000
   90       -0.352520   1.000000
   91       -0.290904   1.000000
   92        0.021706   1.027190
   93        0.050609   1.035456
   94        0.159259   0.612906
   95        0.199175   0.284685
   96        0.285372  -0.033759
   97        0.301935  -0.034823
   98        0.608164  -0.000000
   99        0.625812  -0.000000
  100        0.676502  -0.000000
  101        0.738399  -0.000000
  102        0.822928  -0.000000
  103        0.893528  -0.000000
  104        0.946442  -0.000000
  105        0.978800  -0.000000
  106        1.163695  -0.000000
  107        1.325163  -0.000000
  108        1.373699  -0.000000
  109        1.416530  -0.000000
  110        1.497292  -0.000000
  111        1.541638  -0.000000
  112        1.588050  -0.000000
  113        1.610902  -0.000000
  114        1.684675  -0.000000
  115        1.744634  -0.000000
  116        1.773065  -0.000000
  117        1.784419  -0.000000
  118        1.864126  -0.000000
  119        1.878308  -0.000000
  120        1.988580  -0.000000
  121        2.062446  -0.000000
  122        2.154065  -0.000000
  123        2.250839  -0.000000
  124        2.298872  -0.000000
  125        2.319208  -0.000000
  126        2.397606  -0.000000
  127        2.592188  -0.000000
  128        3.028624   0.000000

  0.2222222E+00  0.3922785E-15  0.3630220E-15  0.6734007E-02
    1      -13.812049   1.000000
    2      -12.775130   1.000000
    3      -12.514484   1.000000
    4      -11.853580   1.000000
    5      -11.588354   1.000000
    6      -11.223827   1.000000
    7      -11.086838   1.000000
    8      -11.051613   1.000000
    9      -11.026802   1.000000
   10      -10.620456   1.000000
   11      -10.610809   1.000000
   12      -10.423588   1.000000
   13      -10.140124   1.000000
   14      -10.110949   1.000000
   15       -9.729260   1.000000
   16       -9.674145   1.000000
   17       -9.143195   1.000000
   18       -8.829260   1.000000
   19       -8.769253   1.000000
   20       -8.754202   1.000000
   21       -8.695236   1.000000
   22       -8.606129   1.000000
   23       -8.517855   1.000000
   24       -8.144680   1.000000
   25       -8.105019   1.000000
   26       -7.888812   1.000000
   27       -7.609118   1.000000
   28       -7.292808   1.000000
   29       -6.775648   1.000000
   30       -6.627302   1.000000
   31       -6.384447   1.000000
   32       -6.360499   1.000000
   33       -6.281105   1.000000
   34       -5.993777   1.000000
   35       -5.816211   1.000000
   36       -5.638007   1.000000
   37       -5.527829   1.000000
   38       -5.481120   1.000000
   39       -5.400935   1.000000
   40       -5.185886   1.000000
   41       -5.141423   1.000000
   42       -5.092905   1.000000
   43       -5.031574   1.000000
   44       -4.928196   1.000000
   45       -4.864474   1.000000
   46       -4.845078   1.000000
   47       -4.751488   1.000000
   48       -4.592700   1.000000
   49       -4.518450   1.000000
   50       -4.422642   1.000000
   51       -4.396822   1.000000
   52       -4.358103   1.000000
   53       -4.333075   1.000000
   54       -4.297594   1.000000
   55       -4.196419   1.000000
   56       -4.113920   1.000000
   57       -4.028487   1.000000
   58       -4.012314   1.000000
   59       -3.992104   1.000000
   60       -3.950418   1.000000
   61       -3.759695   1.000000
   62       -3.698486   1.000000
   63       -3.553653   1.000000
   64       -3.474867   1.000000
   65       -3.337755   1.000000
   66       -3.303564   1.000000
   67       -3.277220   1.000000
   68       -3.257879   1.000000
   69       -3.186932   1.000000
   70       -3.133715   1.000000
   71       -3.084384   1.000000
   72       -3.023814   1.000000
   73       -2.893882   1.000000
   74       -2.629641   1.000000
   75       -2.482163   1.000000
   76       -2.393083   1.000000
   77       -2.370651   1.000000
   78       -2.352422   1.000000
   79       -2.272075   1.000000
   80       -2.051980   1.000000
   81       -1.859122   1.000000
   82       -1.538264   1.000000
   83       -1.367999   1.000000
   84       -1.254496   1.000000
   85       -1.124275   1.000000
   86       -0.977297   1.000000
   87       -0.864108   1.000000
   88       -0.813223   1.000000
   89       -0.490959   1.000000
   90       -0.467196   1.000000
   91       -0.439629   1.000000
   92       -0.119561   1.000143
   93        0.119370   0.888018
   94        0.164121   0.572604
   95        0.199287   0.283843
   96        0.312025  -0.032029
   97        0.487712  -0.000039
   98        0.506883  -0.000012
   99        0.596712  -0.000000
  100        0.606015  -0.000000
  101        0.755584  -0.000000
  102        0.891185  -0.000000
  103        0.931230  -0.000000
  104        0.987401  -0.000000
  105        1.016196  -0.000000
  106        1.273943  -0.000000
  107        1.292015  -0.000000
  108        1.382340  -0.000000
  109        1.484814  -0.000000
  110        1.516839  -0.000000
  111        1.567787  -0.000000
  112        1.606795  -0.000000
  113        1.656780  -0.000000
  114        1.693474  -0.000000
  115        1.720064  -0.000000
  116        1.753204  -0.000000
  117        1.818296  -0.000000
  118        1.858041  -0.000000
  119        1.864516  -0.000000
  120        1.996272  -0.000000
  121        2.077622  -0.000000
  122        2.136266  -0.000000
  123        2.174020  -0.000000
  124        2.293055  -0.000000
  125        2.429379  -0.000000
  126        2.515402  -0.000000
  127        2.739927  -0.000000
  128        3.690864   0.000000

  0.3333333E+00  0.3713828E-15  0.3468587E-15  0.6734007E-02
    1      -13.680761   1.000000
    2      -13.036383   1.000000
    3      -12.402129   1.000000
    4      -11.931101   1.000000
    5      -11.515338   1.000000
    6      -11.274126   1.000000
    7      -11.048816   1.000000
    8      -11.035502   1.000000
    9      -10.961485   1.000000
   10      -10.622190   1.000000
   11      -10.605274   1.000000
   12      -10.545007   1.000000
   13      -10.134446   1.000000
   14      -10.114847   1.000000
   15       -9.640739   1.000000
   16       -9.579225   1.000000
   17       -9.133624   1.000000
   18       -8.926479   1.000000
   19       -8.833320   1.000000
   20       -8.745975   1.000000
   21       -8.669923   1.000000
   22       -8.562247   1.000000
   23       -8.505431   1.000000
   24       -8.267764   1.000000
   25       -8.238762   1.000000
   26       -7.873707   1.000000
   27       -7.707517   1.000000
   28       -7.158317   1.000000
   29       -6.910096   1.000000
   30       -6.618097   1.000000
   31       -6.362285   1.000000
   32       -6.309912   1.000000
   33       -6.242016   1.000000
   34       -6.123135   1.000000
   35       -5.718667   1.000000
   36       -5.680099   1.000000
   37       -5.417031   1.000000
   38       -5.391364   1.000000
   39       -5.329579   1.000000
   40       -5.135961   1.000000
   41       -5.105689   1.000000
   42       -5.077483   1.000000
   43       -5.037712   1.000000
   44       -4.934182   1.000000
   45       -4.859900   1.000000
   46       -4.785269   1.000000
   47       -4.727324   1.000000
   48       -4.575291   1.000000
   49       -4.491506   1.000000
   50       -4.400216   1.000000
   51       -4.376435   1.000000
   52       -4.314178   1.000000
   53       -4.295081   1.000000
   54       -4.252058   1.000000
   55       -4.140403   1.000000
   56       -4.102686   1.000000
   57       -4.071780   1.000000
   58       -3.954242   1.000000
   59       -3.936737   1.000000
   60       -3.904940   1.000000
   61       -3.773975   1.000000
   62       -3.700583   1.000000
   63       -3.603460   1.000000
   64       -3.582699   1.000000
   65       -3.339437   1.000000
   66       -3.324454   1.000000
   67       -3.308126   1.000000
   68       -3.260403   1.000000
   69       -3.242804   1.000000
   70       -3.111665   1.000000
   71       -3.060205   1.000000
   72       -2.917076   1.000000
   73       -2.905498   1.000000
   74       -2.709688   1.000000
   75       -2.601338   1.000000
   76       -2.543255   1.000000
   77       -2.474682   1.000000
   78       -2.377282   1.000000
   79       -2.285205   1.000000
   80       -2.029412   1.000000
   81       -1.822189   1.000000
   82       -1.595175   1.000000
   83       -1.426847   1.000000
   84       -1.211813   1.000000
   85       -1.065201   1.000000
   86       -0.843039   1.000000
   87       -0.795970   1.000000
   88       -0.707815   1.000000
   89       -0.629285   1.000000
   90       -0.588383   1.000000
   91       -0.315322   1.000000
   92       -0.160480   1.000013
   93        0.088884   0.999254
   94        0.130463   0.824753
   95        0.240756   0.047228
   96        0.390124  -0.004381
   97        0.421385  -0.001230
   98        0.462786  -0.000161
   99        0.519240  -0.000005
  100        0.723413  -0.000000
  101        0.879086  -0.000000
  102        0.929337  -0.000000
  103        0.965311  -0.000000
  104        1.008268  -0.000000
  105        1.115592  -0.000000
  106        1.141222  -0.000000
  107        1.429800  -0.000000
  108        1.471578  -0.000000
  109        1.521781  -0.000000
  110        1.548426  -0.000000
  111        1.605942  -0.000000
  112        1.637289  -0.000000
  113        1.645114  -0.000000
  114        1.667741  -0.000000
  115        1.715125  -0.000000
  116        1.761242  -0.000000
  117        1.786392  -0.000000
  118        1.838874  -0.000000
  119        1.890599  -0.000000
  120        1.953501  -0.000000
  121        2.018638  -0.000000
  122        2.033880  -0.000000
  123        2.143251  -0.000000
  124        2.187412  -0.000000
  125        2.258547  -0.000000
  126        2.285615  -0.000000
  127        2.570048  -0.000000
  128        2.595246  -0.000000

  0.4444444E+00  0.3870091E-15  0.3932070E-15  0.6734007E-02
    1      -13.502860   1.000000
    2      -13.284315   1.000000
    3      -12.257756   1.000000
    4      -12.080528   1.000000
    5      -11.442919   1.000000
    6      -11.315749   1.000000
    7      -11.033051   1.000000
    8      -11.024327   1.000000
    9      -10.853818   1.000000
   10      -10.711926   1.000000
   11      -10.604316   1.000000
   12      -10.586880   1.000000
   13      -10.137507   1.000000
   14      -10.121086   1.000000
   15       -9.556812   1.000000
   16       -9.479757   1.000000
   17       -9.157935   1.000000
   18       -9.036741   1.000000
   19       -8.932964   1.000000
   20       -8.704276   1.000000
   21       -8.576728   1.000000
   22       -8.549306   1.000000
   23       -8.450151   1.000000
   24       -8.337145   1.000000
   25       -8.306831   1.000000
   26       -8.123924   1.000000
   27       -7.464152   1.000000
   28       -7.174416   1.000000
   29       -6.978278   1.000000
   30       -6.630329   1.000000
   31       -6.477158   1.000000
   32       -6.293615   1.000000
   33       -6.234869   1.000000
   34       -6.116146   1.000000
   35       -5.705903   1.000000
   36       -5.527289   1.000000
   37       -5.370892   1.000000
   38       -5.316243   1.000000
   39       -5.299801   1.000000
   40       -5.216047   1.000000
   41       -5.131445   1.000000
   42       -5.077486   1.000000
   43       -5.055396   1.000000
   44       -4.862179   1.000000
   45       -4.787926   1.000000
   46       -4.741307   1.000000
   47       -4.627762   1.000000
   48       -4.593235   1.000000
   49       -4.544726   1.000000
   50       -4.443250   1.000000
   51       -4.359152   1.000000
   52       -4.276550   1.000000
   53       -4.235733   1.000000
   54       -4.203839   1.000000
   55       -4.186936   1.000000
   56       -4.048855   1.000000
   57       -4.013399   1.000000
   58       -3.951477   1.000000
   59       -3.931854   1.000000
   60       -3.844529   1.000000
   61       -3.778881   1.000000
   62       -3.714230   1.000000
   63       -3.659466   1.000000
   64       -3.577453   1.000000
   65       -3.520383   1.000000
   66       -3.306020   1.000000
   67       -3.288126   1.000000
   68       -3.252553   1.000000
   69       -3.243534   1.000000
   70       -3.079001   1.000000
   71       -2.990697   1.000000
   72       -2.895041   1.000000
   73       -2.853050   1.000000
   74       -2.795483   1.000000
   75       -2.746599   1.000000
   76       -2.634690   1.000000
   77       -2.590914   1.000000
   78       -2.307382   1.000000
   79       -2.257022   1.000000
   80       -2.140010   1.000000
   81       -1.680587   1.000000
   82       -1.628152   1.000000
   83       -1.525172   1.000000
   84       -1.278235   1.000000
   85       -0.928510   1.000000
   86       -0.832102   1.000000
   87       -0.771626   1.000000
   88       -0.726789   1.000000
   89       -0.606018   1.000000
   90       -0.477810   1.000000
   91       -0.413753   1.000000
   92       -0.085955   1.000779
   93        0.071100   1.026743
   94        0.108829   0.936774
   95        0.181041   0.429976
   96        0.343299  -0.018302
   97        0.390261  -0.004359
   98        0.464306  -0.000148
   99        0.684561  -0.000000
  100        0.721284  -0.000000
  101        0.849928  -0.000000
  102        0.908640  -0.000000
  103        0.956000  -0.000000
  104        1.013140  -0.000000
  105        1.290319  -0.000000
  106        1.301696  -0.000000
  107        1.432329  -0.000000
  108        1.520020  -0.000000
  109        1.543666  -0.000000
  110        1.564554  -0.000000
  111        1.576340  -0.000000
  112        1.639475  -0.000000
  113        1.654034  -0.000000
  114        1.673271  -0.000000
  115        1.708901  -0.000000
  116        1.763557  -0.000000
  117        1.778804  -0.000000
  118        1.798518  -0.000000
  119        1.845160  -0.000000
  120        1.957415  -0.000000
  121        1.987603  -0.000000
  122        2.055235  -0.000000
  123        2.122035  -0.000000
  124        2.194428  -0.000000
  125        2.255818  -0.000000
  126        2.398479  -0.000000
  127        2.588986  -0.000000
  128        3.611936   0.000000

  0.3742002E-15  0.9090909E-01  0.3596334E-15  0.6734007E-02
    1      -13.886064   1.000000
    2      -12.580684   1.000000
    3      -12.416832   1.000000
    4      -11.919806   1.000000
    5      -11.634365   1.000000
    6      -11.270200   1.000000
    7      -11.233922   1.000000
    8      -11.111245   1.000000
    9      -11.074435   1.000000
   10      -10.656602   1.000000
   11      -10.606313   1.000000
   12      -10.296086   1.000000
   13      -10.114588   1.000000
   14      -10.050824   1.000000
   15       -9.797926   1.000000
   16       -9.742674   1.000000
   17       -9.152175   1.000000
   18       -8.998521   1.000000
   19       -8.889269   1.000000
   20       -8.705870   1.000000
   21       -8.627968   1.000000
   22       -8.479080   1.000000
   23       -8.268631   1.000000
   24       -7.967086   1.000000
   25       -7.841501   1.000000
   26       -7.798646   1.000000
   27       -7.359088   1.000000
   28       -7.286418   1.000000
   29       -6.810363   1.000000
   30       -6.728853   1.000000
   31       -6.475839   1.000000
   32       -6.423935   1.000000
   33       -6.290578   1.000000
   34       -5.958906   1.000000
   35       -5.905340   1.000000
   36       -5.647004   1.000000
   37       -5.561515   1.000000
   38       -5.481602   1.000000
   39       -5.320377   1.000000
   40       -5.260431   1.000000
   41       -5.244305   1.000000
   42       -5.156861   1.000000
   43       -5.086459   1.000000
   44       -5.009019   1.000000
   45       -4.966336   1.000000
   46       -4.927025   1.000000
   47       -4.783451   1.000000
   48       -4.692569   1.000000
   49       -4.614653   1.000000
   50       -4.506743   1.000000
   51       -4.466606   1.000000
   52       -4.420209   1.000000
   53       -4.351231   1.000000
   54       -4.326400   1.000000
   55       -4.292772   1.000000
   56       -4.229874   1.000000
   57       -4.086108   1.000000
   58       -4.000209   1.000000
   59       -3.941215   1.000000
   60       -3.837033   1.000000
   61       -3.801956   1.000000
   62       -3.713719   1.000000
   63       -3.486637   1.000000
   64       -3.424813   1.000000
   65       -3.375597   1.000000
   66       -3.350967   1.000000
   67       -3.282239   1.000000
   68       -3.260713   1.000000
   69       -3.148642   1.000000
   70       -3.137393   1.000000
   71       -3.096825   1.000000
   72       -3.015564   1.000000
   73       -2.749088   1.000000
   74       -2.613487   1.000000
   75       -2.457443   1.000000
   76       -2.372635   1.000000
   77       -2.202917   1.000000
   78       -2.182536   1.000000
   79       -2.115159   1.000000
   80       -2.091046   1.000000
   81       -1.835673   1.000000
   82       -1.655395   1.000000
   83       -1.420415   1.000000
   84       -1.256737   1.000000
   85       -1.132941   1.000000
   86       -1.018278   1.000000
   87       -0.962658   1.000000
   88       -0.914132   1.000000
   89       -0.813875   1.000000
   90       -0.429048   1.000000
   91       -0.216714   1.000000
   92       -0.092559   1.000569
   93       -0.005316   1.015192
   94        0.046672   1.035269
   95        0.158948   0.615457
   96        0.255818   0.002482
   97        0.311237  -0.032306
   98        0.481587  -0.000056
   99        0.513168  -0.000008
  100        0.679285  -0.000000
  101        0.833187  -0.000000
  102        0.901052  -0.000000
  103        0.931614  -0.000000
  104        1.027848  -0.000000
  105        1.084251  -0.000000
  106        1.160757  -0.000000
  107        1.263712  -0.000000
  108        1.358795  -0.000000
  109        1.415208  -0.000000
  110        1.506882  -0.000000
  111        1.527827  -0.000000
  112        1.581686  -0.000000
  113        1.618850  -0.000000
  114        1.694451  -0.000000
  115        1.741472  -0.000000
  116        1.778982  -0.000000
  117        1.802700  -0.000000
  118        1.839028  -0.000000
  119        1.868707  -0.000000
  120        2.029482  -0.000000
  121        2.092688  -0.000000
  122        2.168250  -0.000000
  123        2.244313  -0.000000
  124        2.286119  -0.000000
  125        2.399367  -0.000000
  126        2.453130  -0.000000
  127        2.565319  -0.000000
  128        3.715868   0.000000

  0.1111111E+00  0.9090909E-01  0.4822234E-15  0.6734007E-02
    1      -13.837114   1.000000
    2      -12.607939   1.000000
    3      -12.534530   1.000000
    4      -11.847867   1.000000
    5      -11.602097   1.000000
    6      -11.314967   1.000000
    7      -11.187698   1.000000
    8      -11.148154   1.000000
    9      -11.060819   1.000000
   10      -10.668329   1.000000
   11      -10.539855   1.000000
   12      -10.347612   1.000000
   13      -10.148328   1.000000
   14      -10.068985   1.000000
   15       -9.744962   1.000000
   16       -9.693707   1.000000
   17       -9.146017   1.000000
   18       -9.020407   1.000000
   19       -8.853268   1.000000
   20       -8.724311   1.000000
   21       -8.650296   1.000000
   22       -8.483055   1.000000
   23       -8.301923   1.000000
   24       -7.995148   1.000000
   25       -7.858447   1.000000
   26       -7.835632   1.000000
   27       -7.492994   1.000000
   28       -7.295064   1.000000
   29       -6.780513   1.000000
   30       -6.653105   1.000000
   31       -6.505721   1.000000
   32       -6.345806   1.000000
   33       -6.271925   1.000000
   34       -5.969705   1.000000
   35       -5.907782   1.000000
   36       -5.641844   1.000000
   37       -5.529373   1.000000
   38       -5.436826   1.000000
   39       -5.398210   1.000000
   40       -5.241221   1.000000
   41       -5.205879   1.000000
   42       -5.134472   1.000000
   43       -5.050999   1.000000
   44       -4.995986   1.000000
   45       -4.960345   1.000000
   46       -4.915262   1.000000
   47       -4.752077   1.000000
   48       -4.664605   1.000000
   49       -4.565777   1.000000
   50       -4.456185   1.000000
   51       -4.433216   1.000000
   52       -4.415025   1.000000
   53       -4.376030   1.000000
   54       -4.298376   1.000000
   55       -4.275786   1.000000
   56       -4.214205   1.000000
   57       -4.077443   1.000000
   58       -4.029563   1.000000
   59       -3.943554   1.000000
   60       -3.837911   1.000000
   61       -3.774327   1.000000
   62       -3.706378   1.000000
   63       -3.518011   1.000000
   64       -3.457292   1.000000
   65       -3.414270   1.000000
   66       -3.337990   1.000000
   67       -3.280619   1.000000
   68       -3.237637   1.000000
   69       -3.168270   1.000000
   70       -3.141470   1.000000
   71       -3.058026   1.000000
   72       -3.010784   1.000000
   73       -2.831675   1.000000
   74       -2.640343   1.000000
   75       -2.482785   1.000000
   76       -2.360687   1.000000
   77       -2.333862   1.000000
   78       -2.253415   1.000000
   79       -2.142583   1.000000
   80       -2.060806   1.000000
   81       -1.878867   1.000000
   82       -1.580029   1.000000
   83       -1.397698   1.000000
   84       -1.311564   1.000000
   85       -1.159487   1.000000
   86       -0.991853   1.000000
   87       -0.909658   1.000000
   88       -0.818261   1.000000
   89       -0.691187   1.000000
   90       -0.498071   1.000000
   91       -0.281871   1.000000
   92       -0.079913   1.001028
   93       -0.021383   1.009623
   94        0.139476   0.764948
   95        0.174280   0.486933
   96        0.272818  -0.025213
   97        0.303640  -0.034484
   98        0.413443  -0.001736
   99        0.447681  -0.000354
  100        0.745120  -0.000000
  101        0.874201  -0.000000
  102        0.915381  -0.000000
  103        0.929559  -0.000000
  104        1.049908  -0.000000
  105        1.068562  -0.000000
  106        1.155383  -0.000000
  107        1.355357  -0.000000
  108        1.362217  -0.000000
  109        1.400735  -0.000000
  110        1.464675  -0.000000
  111        1.550019  -0.000000
  112        1.629306  -0.000000
  113        1.642443  -0.000000
  114        1.688104  -0.000000
  115        1.734998  -0.000000
  116        1.759549  -0.000000
  117        1.819250  -0.000000
  118        1.846513  -0.000000
  119        1.888441  -0.000000
  120        2.044679  -0.000000
  121        2.058966  -0.000000
  122        2.105572  -0.000000