 running on   48 total cores
 distrk:  each k-point on   48 cores,    1 groups
 distr:  one band on    6 cores,    8 groups
 using from now: INCAR     
 vasp.5.4.4.18Apr17-6-g9f103f2a35 (build Dec  7 2020 12:43:57) complex           
 POSCAR found type information on POSCAR  Mo V  B  H 
 POSCAR found :  4 types and      51 ions
 scaLAPACK will be used

 ----------------------------------------------------------------------------- 
|                                                                             |
|  ADVICE TO THIS USER RUNNING 'VASP/VAMP'   (HEAR YOUR MASTER'S VOICE ...):  |
|                                                                             |
|      You enforced a specific xc-type in the INCAR file,                     |
|      a different type was found on the POTCAR file                          |
|          I HOPE YOU KNOW, WHAT YOU ARE  DOING                               |
|                                                                             |
 ----------------------------------------------------------------------------- 

 LDA part: xc-table for Pade appr. of Perdew
 POSCAR, INCAR and KPOINTS ok, starting setup
 resort distribution
 resort distribution
 resort distribution
 resort distribution
 resort distribution
 resort distribution
 resort distribution
 resort distribution
 resort distribution
 resort distribution
 resort distribution
 resort distribution
 resort distribution
 resort distribution
 resort distribution
 resort distribution
 resort distribution
 resort distribution
 resort distribution
 resort distribution
 resort distribution
 resort distribution
 resort distribution
 resort distribution
 resort distribution
 resort distribution
 resort distribution
 resort distribution
 resort distribution
 resort distribution
 resort distribution
 resort distribution
 resort distribution
 resort distribution
 resort distribution
 resort distribution
 resort distribution
 resort distribution
 resort distribution
 resort distribution
 resort distribution
 resort distribution
 resort distribution
 resort distribution
 resort distribution
 resort distribution
 resort distribution
 resort distribution
 FFT: planning ...
 WAVECAR not read
 augmentation electrons   191.00949807508749     
 soft         electrons   0.0000000000000000     
 augmentation electrons   191.00949807508749     
 soft         electrons   0.0000000000000000     
 augmentation electrons   191.00949807508749     
 soft         electrons   0.0000000000000000     
 augmentation electrons   191.00949807508749     
 soft         electrons   0.0000000000000000     
 augmentation electrons   191.00949807508749     
 soft         electrons   0.0000000000000000     
 augmentation electrons   191.00949807508749     
 soft         electrons   0.0000000000000000     
 augmentation electrons   191.00949807508749     
 soft         electrons   0.0000000000000000     
 augmentation electrons   191.00949807508749     
 soft         electrons   0.0000000000000000     
 augmentation electrons   191.00949807508749     
 soft         electrons   0.0000000000000000     
 augmentation electrons   191.00949807508749     
 soft         electrons   0.0000000000000000     
 augmentation electrons   191.00949807508749     
 soft         electrons   0.0000000000000000     
 augmentation electrons   191.00949807508749     
 soft         electrons   0.0000000000000000     
 augmentation electrons   191.00949807508749     
 soft         electrons   0.0000000000000000     
 augmentation electrons   191.00949807508749     
 soft         electrons   0.0000000000000000     
 augmentation electrons   191.00949807508749     
 soft         electrons   0.0000000000000000     
 augmentation electrons   191.00949807508749     
 soft         electrons   0.0000000000000000     
 augmentation electrons   191.00949807508749     
 soft         electrons   0.0000000000000000     
 augmentation electrons   191.00949807508749     
 soft         electrons   0.0000000000000000     
 augmentation electrons   191.00949807508749     
 soft         electrons   0.0000000000000000     
 augmentation electrons   191.00949807508749     
 soft         electrons   0.0000000000000000     
 augmentation electrons   191.00949807508749     
 soft         electrons   0.0000000000000000     
 augmentation electrons   191.00949807508749     
 soft         electrons   0.0000000000000000     
 augmentation electrons   191.00949807508749     
 soft         electrons   0.0000000000000000     
 augmentation electrons   191.00949807508749     
 soft         electrons   0.0000000000000000     
 augmentation electrons   191.00949807508749     
 soft         electrons   0.0000000000000000     
 augmentation electrons   191.00949807508749     
 soft         electrons   0.0000000000000000     
 augmentation electrons   191.00949807508749     
 soft         electrons   0.0000000000000000     
 augmentation electrons   191.00949807508749     
 soft         electrons   0.0000000000000000     
 augmentation electrons   191.00949807508749     
 soft         electrons   0.0000000000000000     
 augmentation electrons   191.00949807508749     
 soft         electrons   0.0000000000000000     
 augmentation electrons   191.00949807508749     
 soft         electrons   0.0000000000000000     
 augmentation electrons   191.00949807508749     
 soft         electrons   0.0000000000000000     
 augmentation electrons   191.00949807508749     
 soft         electrons   0.0000000000000000     
 augmentation electrons   191.00949807508749     
 soft         electrons   0.0000000000000000     
 augmentation electrons   191.00949807508749     
 soft         electrons   0.0000000000000000     
 augmentation electrons   191.00949807508749     
 soft         electrons   0.0000000000000000     
 augmentation electrons   191.00949807508749     
 soft         electrons   0.0000000000000000     
 augmentation electrons   191.00949807508749     
 soft         electrons   0.0000000000000000     
 augmentation electrons   191.00949807508749     
 soft         electrons   0.0000000000000000     
 augmentation electrons   191.00949807508749     
 soft         electrons   0.0000000000000000     
 augmentation electrons   191.00949807508749     
 soft         electrons   0.0000000000000000     
 augmentation electrons   191.00949807508749     
 soft         electrons   0.0000000000000000     
 augmentation electrons   191.00949807508749     
 soft         electrons   0.0000000000000000     
 augmentation electrons   191.00949807508749     
 soft         electrons   0.0000000000000000     
 augmentation electrons   191.00949807508749     
 soft         electrons   0.0000000000000000     
 augmentation electrons   191.00949807508749     
 soft         electrons   0.0000000000000000     
 augmentation electrons   191.00949807508749     
 soft         electrons   0.0000000000000000     
 augmentation electrons   191.00949807508749     
 soft         electrons   0.0000000000000000     
 total        electrons   191.00949807508749     
 total        electrons   191.00949807508749     
 total        electrons   191.00949807508749     
 total        electrons   191.00949807508749     
 total        electrons   191.00949807508749     
 total        electrons   191.00949807508749     
 total        electrons   191.00949807508749     
 total        electrons   191.00949807508749     
 total        electrons   191.00949807508749     
 total        electrons   191.00949807508749     
 total        electrons   191.00949807508749     
 total        electrons   191.00949807508749     
 total        electrons   191.00949807508749     
 total        electrons   191.00949807508749     
 total        electrons   191.00949807508749     
 total        electrons   191.00949807508749     
 total        electrons   191.00949807508749     
 total        electrons   191.00949807508749     
 total        electrons   191.00949807508749     
 total        electrons   191.00949807508749     
 total        electrons   191.00949807508749     
 total        electrons   191.00949807508749     
 total        electrons   191.00949807508749     
 total        electrons   191.00949807508749     
 total        electrons   191.00949807508749     
 total        electrons   191.00949807508749     
 total        electrons   191.00949807508749     
 total        electrons   191.00949807508749     
 total        electrons   191.00949807508749     
 total        electrons   191.00949807508749     
 total        electrons   191.00949807508749     
 total        electrons   191.00949807508749     
 total        electrons   191.00949807508749     
 total        electrons   191.00949807508749     
 total        electrons   191.00949807508749     
 total        electrons   191.00949807508749     
 total        electrons   191.00949807508749     
 total        electrons   191.00949807508749     
 total        electrons   191.00949807508749     
 total        electrons   191.00949807508749     
 total        electrons   191.00949807508749     
 total        electrons   191.00949807508749     
 total        electrons   191.00949807508749     
 total        electrons   191.00949807508749     
 total        electrons   191.00949807508749     
 total        electrons   191.00949807508749     
 total        electrons   191.00949807508749     
 total        electrons   191.00949807508749     
 augmentation electrons   591.20326879775143     
 soft         electrons   0.0000000000000000     
 augmentation electrons   591.20326879775143     
 soft         electrons   0.0000000000000000     
 augmentation electrons   591.20326879775143     
 soft         electrons   0.0000000000000000     
 augmentation electrons   591.20326879775143     
 soft         electrons   0.0000000000000000     
 augmentation electrons   591.20326879775143     
 soft         electrons   0.0000000000000000     
 augmentation electrons   591.20326879775143     
 soft         electrons   0.0000000000000000     
 augmentation electrons   591.20326879775143     
 soft         electrons   0.0000000000000000     
 augmentation electrons   591.20326879775143     
 soft         electrons   0.0000000000000000     
 augmentation electrons   591.20326879775143     
 soft         electrons   0.0000000000000000     
 augmentation electrons   591.20326879775143     
 soft         electrons   0.0000000000000000     
 augmentation electrons   591.20326879775143     
 soft         electrons   0.0000000000000000     
 augmentation electrons   591.20326879775143     
 soft         electrons   0.0000000000000000     
 augmentation electrons   591.20326879775143     
 soft         electrons   0.0000000000000000     
 augmentation electrons   591.20326879775143     
 soft         electrons   0.0000000000000000     
 augmentation electrons   591.20326879775143     
 soft         electrons   0.0000000000000000     
 augmentation electrons   591.20326879775143     
 soft         electrons   0.0000000000000000     
 augmentation electrons   591.20326879775143     
 soft         electrons   0.0000000000000000     
 augmentation electrons   591.20326879775143     
 soft         electrons   0.0000000000000000     
 augmentation electrons   591.20326879775143     
 soft         electrons   0.0000000000000000     
 augmentation electrons   591.20326879775143     
 soft         electrons   0.0000000000000000     
 augmentation electrons   591.20326879775143     
 soft         electrons   0.0000000000000000     
 augmentation electrons   591.20326879775143     
 soft         electrons   0.0000000000000000     
 augmentation electrons   591.20326879775143     
 soft         electrons   0.0000000000000000     
 augmentation electrons   591.20326879775143     
 soft         electrons   0.0000000000000000     
 augmentation electrons   591.20326879775143     
 soft         electrons   0.0000000000000000     
 augmentation electrons   591.20326879775143     
 soft         electrons   0.0000000000000000     
 augmentation electrons   591.20326879775143     
 soft         electrons   0.0000000000000000     
 augmentation electrons   591.20326879775143     
 soft         electrons   0.0000000000000000     
 augmentation electrons   591.20326879775143     
 soft         electrons   0.0000000000000000     
 augmentation electrons   591.20326879775143     
 soft         electrons   0.0000000000000000     
 augmentation electrons   591.20326879775143     
 soft         electrons   0.0000000000000000     
 augmentation electrons   591.20326879775143     
 soft         electrons   0.0000000000000000     
 augmentation electrons   591.20326879775143     
 soft         electrons   0.0000000000000000     
 augmentation electrons   591.20326879775143     
 soft         electrons   0.0000000000000000     
 augmentation electrons   591.20326879775143     
 soft         electrons   0.0000000000000000     
 augmentation electrons   591.20326879775143     
 soft         electrons   0.0000000000000000     
 augmentation electrons   591.20326879775143     
 soft         electrons   0.0000000000000000     
 augmentation electrons   591.20326879775143     
 soft         electrons   0.0000000000000000     
 augmentation electrons   591.20326879775143     
 soft         electrons   0.0000000000000000     
 augmentation electrons   591.20326879775143     
 soft         electrons   0.0000000000000000     
 augmentation electrons   591.20326879775143     
 soft         electrons   0.0000000000000000     
 augmentation electrons   591.20326879775143     
 soft         electrons   0.0000000000000000     
 augmentation electrons   591.20326879775143     
 soft         electrons   0.0000000000000000     
 augmentation electrons   591.20326879775143     
 soft         electrons   0.0000000000000000     
 augmentation electrons   591.20326879775143     
 soft         electrons   0.0000000000000000     
 augmentation electrons   591.20326879775143     
 soft         electrons   0.0000000000000000     
 augmentation electrons   591.20326879775143     
 soft         electrons   0.0000000000000000     
 augmentation electrons   591.20326879775143     
 soft         electrons   0.0000000000000000     
 total        electrons   591.20326879775143     
 total        electrons   591.20326879775143     
 total        electrons   591.20326879775143     
 total        electrons   591.20326879775143     
 total        electrons   591.20326879775143     
 total        electrons   591.20326879775143     
 total        electrons   591.20326879775143     
 total        electrons   591.20326879775143     
 total        electrons   591.20326879775143     
 total        electrons   591.20326879775143     
 total        electrons   591.20326879775143     
 total        electrons   591.20326879775143     
 total        electrons   591.20326879775143     
 total        electrons   591.20326879775143     
 total        electrons   591.20326879775143     
 total        electrons   591.20326879775143     
 total        electrons   591.20326879775143     
 total        electrons   591.20326879775143     
 total        electrons   591.20326879775143     
 total        electrons   591.20326879775143     
 total        electrons   591.20326879775143     
 total        electrons   591.20326879775143     
 total        electrons   591.20326879775143     
 total        electrons   591.20326879775143     
 total        electrons   591.20326879775143     
 total        electrons   591.20326879775143     
 total        electrons   591.20326879775143     
 total        electrons   591.20326879775143     
 total        electrons   591.20326879775143     
 total        electrons   591.20326879775143     
 total        electrons   591.20326879775143     
 total        electrons   591.20326879775143     
 total        electrons   591.20326879775143     
 total        electrons   591.20326879775143     
 total        electrons   591.20326879775143     
 total        electrons   591.20326879775143     
 total        electrons   591.20326879775143     
 total        electrons   591.20326879775143     
 total        electrons   591.20326879775143     
 total        electrons   591.20326879775143     
 total        electrons   591.20326879775143     
 total        electrons   591.20326879775143     
 total        electrons   591.20326879775143     
 total        electrons   591.20326879775143     
 total        electrons   591.20326879775143     
 total        electrons   591.20326879775143     
 total        electrons   591.20326879775143     
 total        electrons   591.20326879775143     
 entering main loop
       N       E                     dE             d eps       ncg     rms          rms(c)
RMM:   1     0.195596854885E+04    0.19560E+04   -0.56929E+04 19072   0.105E+03
RMM:   2     0.436457965745E+03   -0.15195E+04   -0.17428E+04 19072   0.254E+02
RMM:   3    -0.284138108463E+02   -0.46487E+03   -0.58820E+03 19072   0.158E+02
RMM:   4    -0.215137403323E+03   -0.18672E+03   -0.19165E+03 19072   0.186E+02
RMM:   5    -0.322433935095E+03   -0.10730E+03   -0.84928E+02 19072   0.105E+02
RMM:   6    -0.374238454954E+03   -0.51805E+02   -0.40158E+02 19072   0.979E+01
RMM:   7    -0.403471662486E+03   -0.29233E+02   -0.25877E+02 19072   0.564E+01
RMM:   8    -0.420314261704E+03   -0.16843E+02   -0.14333E+02 19072   0.584E+01
RMM:   9    -0.448801658909E+03   -0.28487E+02   -0.27452E+02 60898   0.315E+01
RMM:  10    -0.453263829386E+03   -0.44622E+01   -0.39321E+01 61004   0.704E+00
RMM:  11    -0.454073246906E+03   -0.80942E+00   -0.54656E+00 62608   0.194E+00
RMM:  12    -0.454165626450E+03   -0.92380E-01   -0.57094E-01 61709   0.630E-01    0.117E+02
RMM:  13    -0.424521110670E+03    0.29645E+02   -0.75283E+02 58994   0.824E+01    0.611E+01
RMM:  14    -0.476146368607E+03   -0.51625E+02   -0.23147E+02 51447   0.402E+01    0.449E+01
RMM:  15    -0.407661124690E+03    0.68485E+02   -0.74914E+01 49986   0.242E+01    0.295E+01
RMM:  16    -0.394212667118E+03    0.13448E+02   -0.25639E+01 55227   0.149E+01    0.225E+01
RMM:  17    -0.385578002386E+03    0.86347E+01   -0.12791E+01 45842   0.134E+01    0.156E+01
RMM:  18    -0.385766036173E+03   -0.18803E+00   -0.32387E+00 55804   0.496E+00    0.135E+01
RMM:  19    -0.385782588177E+03   -0.16552E-01   -0.97430E-01 53412   0.217E+00    0.123E+01
RMM:  20    -0.385059991620E+03    0.72260E+00   -0.46721E+00 43059   0.901E+00    0.729E+00
RMM:  21    -0.384923798680E+03    0.13619E+00   -0.14500E+00 59725   0.256E+00    0.430E+00
RMM:  22    -0.384851056403E+03    0.72742E-01   -0.50889E-01 52167   0.214E+00    0.375E+00
RMM:  23    -0.384723685569E+03    0.12737E+00   -0.52375E-01 57026   0.175E+00    0.212E+00
RMM:  24    -0.384695419922E+03    0.28266E-01   -0.97512E-02 53959   0.960E-01    0.112E+00
RMM:  25    -0.384699820316E+03   -0.44004E-02   -0.51718E-02 50876   0.670E-01    0.121E+00
RMM:  26    -0.384685237298E+03    0.14583E-01   -0.26389E-02 49824   0.519E-01    0.676E-01
RMM:  27    -0.384678626448E+03    0.66109E-02   -0.15961E-02 46950   0.389E-01    0.176E-01
RMM:  28    -0.384678039414E+03    0.58703E-03   -0.98950E-03 58368   0.132E-01    0.119E-01
RMM:  29    -0.384677898920E+03    0.14049E-03   -0.35167E-03 48764   0.186E-01    0.182E-01
RMM:  30    -0.384678127932E+03   -0.22901E-03   -0.14944E-03 59374   0.752E-02    0.900E-02
RMM:  31    -0.384679144050E+03   -0.10161E-02   -0.69849E-04 47443   0.653E-02    0.102E-01
RMM:  32    -0.384680127175E+03   -0.98312E-03   -0.91990E-04 44717   0.118E-01    0.854E-02
RMM:  33    -0.384680357356E+03   -0.23018E-03   -0.35579E-04 53585   0.450E-02    0.358E-02
RMM:  34    -0.384680650770E+03   -0.29341E-03   -0.12785E-04 55948   0.209E-02    0.232E-02
RMM:  35    -0.384680798978E+03   -0.14821E-03   -0.73072E-05 44803   0.343E-02    0.314E-02
RMM:  36    -0.384680901947E+03   -0.10297E-03   -0.29907E-05 43752   0.175E-02    0.810E-03
RMM:  37    -0.384680955832E+03   -0.53885E-04   -0.19240E-05 40190   0.530E-03    0.582E-03
RMM:  38    -0.384680998414E+03   -0.42582E-04   -0.84166E-06 37276   0.540E-03    0.573E-03
RMM:  39    -0.384681060220E+03   -0.61807E-04   -0.56671E-06 36873   0.581E-03    0.677E-03
RMM:  40    -0.384681128989E+03   -0.68769E-04   -0.59086E-06 37465   0.363E-03    0.870E-03
RMM:  41    -0.384681169738E+03   -0.40749E-04   -0.41264E-06 34388   0.511E-03    0.148E-03
RMM:  42    -0.384681189280E+03   -0.19541E-04   -0.16518E-06 32529   0.278E-03    0.142E-03
RMM:  43    -0.384681207515E+03   -0.18235E-04   -0.16343E-06 31875   0.305E-03    0.240E-03
RMM:  44    -0.384681215542E+03   -0.80269E-05   -0.74860E-07 28982   0.289E-03    0.129E-03
RMM:  45    -0.384681218488E+03   -0.29463E-05   -0.51574E-07 25652   0.217E-03    0.155E-03
RMM:  46    -0.384681219666E+03   -0.11777E-05   -0.27365E-07 24166   0.192E-03    0.540E-04
RMM:  47    -0.384681220944E+03   -0.12782E-05   -0.21601E-07 20174   0.113E-03    0.472E-04
RMM:  48    -0.384681221326E+03   -0.38192E-06   -0.12748E-07 18924   0.115E-03
   1 F= -.38468122E+03 E0= -.38467962E+03  d E =-.480294E-02
 augmentation electrons   21.021330715107574     
 soft         electrons   170.03309044062559     
 augmentation electrons   21.021330715107574     
 soft         electrons   170.03309044062559     
 augmentation electrons   21.021330715107574     
 soft         electrons   170.03309044062559     
 augmentation electrons   21.021330715107574     
 soft         electrons   170.03309044062559     
 augmentation electrons   21.021330715107574     
 soft         electrons   170.03309044062559     
 augmentation electrons   21.021330715107574     
 soft         electrons   170.03309044062559     
 augmentation electrons   21.021330715107574     
 soft         electrons   170.03309044062559     
 augmentation electrons   21.021330715107574     
 soft         electrons   170.03309044062559     
 augmentation electrons   21.021330715107574     
 soft         electrons   170.03309044062559     
 augmentation electrons   21.021330715107574     
 soft         electrons   170.03309044062559     
 augmentation electrons   21.021330715107574     
 soft         electrons   170.03309044062559     
 augmentation electrons   21.021330715107574     
 soft         electrons   170.03309044062559     
 augmentation electrons   21.021330715107574     
 soft         electrons   170.03309044062559     
 augmentation electrons   21.021330715107574     
 soft         electrons   170.03309044062559     
 augmentation electrons   21.021330715107574     
 soft         electrons   170.03309044062559     
 augmentation electrons   21.021330715107574     
 soft         electrons   170.03309044062559     
 augmentation electrons   21.021330715107574     
 soft         electrons   170.03309044062559     
 augmentation electrons   21.021330715107574     
 soft         electrons   170.03309044062559     
 augmentation electrons   21.021330715107574     
 soft         electrons   170.03309044062559     
 augmentation electrons   21.021330715107574     
 soft         electrons   170.03309044062559     
 augmentation electrons   21.021330715107574     
 soft         electrons   170.03309044062559     
 augmentation electrons   21.021330715107574     
 soft         electrons   170.03309044062559     
 augmentation electrons   21.021330715107574     
 soft         electrons   170.03309044062559     
 augmentation electrons   21.021330715107574     
 soft         electrons   170.03309044062559     
 augmentation electrons   21.021330715107574     
 soft         electrons   170.03309044062559     
 augmentation electrons   21.021330715107574     
 soft         electrons   170.03309044062559     
 augmentation electrons   21.021330715107574     
 soft         electrons   170.03309044062559     
 augmentation electrons   21.021330715107574     
 soft         electrons   170.03309044062559     
 augmentation electrons   21.021330715107574     
 soft         electrons   170.03309044062559     
 augmentation electrons   21.021330715107574     
 soft         electrons   170.03309044062559     
 augmentation electrons   21.021330715107574     
 soft         electrons   170.03309044062559     
 augmentation electrons   21.021330715107574     
 soft         electrons   170.03309044062559     
 augmentation electrons   21.021330715107574     
 soft         electrons   170.03309044062559     
 augmentation electrons   21.021330715107574     
 soft         electrons   170.03309044062559     
 augmentation electrons   21.021330715107574     
 soft         electrons   170.03309044062559     
 augmentation electrons   21.021330715107574     
 soft         electrons   170.03309044062559     
 augmentation electrons   21.021330715107574     
 soft         electrons   170.03309044062559     
 augmentation electrons   21.021330715107574     
 soft         electrons   170.03309044062559     
 augmentation electrons   21.021330715107574     
 soft         electrons   170.03309044062559     
 augmentation electrons   21.021330715107574     
 soft         electrons   170.03309044062559     
 augmentation electrons   21.021330715107574     
 soft         electrons   170.03309044062559     
 augmentation electrons   21.021330715107574     
 soft         electrons   170.03309044062559     
 augmentation electrons   21.021330715107574     
 soft         electrons   170.03309044062559     
 augmentation electrons   21.021330715107574     
 soft         electrons   170.03309044062559     
 augmentation electrons   21.021330715107574     
 soft         electrons   170.03309044062559     
 augmentation electrons   21.021330715107574     
 soft         electrons   170.03309044062559     
 augmentation electrons   21.021330715107574     
 soft         electrons   170.03309044062559     
 augmentation electrons   21.021330715107574     
 soft         electrons   170.03309044062559     
 total        electrons   191.05442115573317     
 total        electrons   191.05442115573317     
 total        electrons   191.05442115573317     
 total        electrons   191.05442115573317     
 total        electrons   191.05442115573317     
 total        electrons   191.05442115573317     
 total        electrons   191.05442115573317     
 total        electrons   191.05442115573317     
 total        electrons   191.05442115573317     
 total        electrons   191.05442115573317     
 total        electrons   191.05442115573317     
 total        electrons   191.05442115573317     
 total        electrons   191.05442115573317     
 total        electrons   191.05442115573317     
 total        electrons   191.05442115573317     
 total        electrons   191.05442115573317     
 total        electrons   191.05442115573317     
 total        electrons   191.05442115573317     
 total        electrons   191.05442115573317     
 total        electrons   191.05442115573317     
 total        electrons   191.05442115573317     
 total        electrons   191.05442115573317     
 total        electrons   191.05442115573317     
 total        electrons   191.05442115573317     
 total        electrons   191.05442115573317     
 total        electrons   191.05442115573317     
 total        electrons   191.05442115573317     
 total        electrons   191.05442115573317     
 total        electrons   191.05442115573317     
 total        electrons   191.05442115573317     
 total        electrons   191.05442115573317     
 total        electrons   191.05442115573317     
 total        electrons   191.05442115573317     
 total        electrons   191.05442115573317     
 total        electrons   191.05442115573317     
 total        electrons   191.05442115573317     
 total        electrons   191.05442115573317     
 total        electrons   191.05442115573317     
 total        electrons   191.05442115573317     
 total        electrons   191.05442115573317     
 total        electrons   191.05442115573317     
 total        electrons   191.05442115573317     
 total        electrons   191.05442115573317     
 total        electrons   191.05442115573317     
 total        electrons   191.05442115573317     
 total        electrons   191.05442115573317     
 total        electrons   191.05442115573317     
 total        electrons   191.05442115573317     
Note: The following floating-point exceptions are signalling: IEEE_OVERFLOW_FLAG
Note: The following floating-point exceptions are signalling: IEEE_OVERFLOW_FLAG
Note: The following floating-point exceptions are signalling: IEEE_OVERFLOW_FLAG
Note: The following floating-point exceptions are signalling: IEEE_OVERFLOW_FLAG
Note: The following floating-point exceptions are signalling: IEEE_OVERFLOW_FLAG
Note: The following floating-point exceptions are signalling: IEEE_OVERFLOW_FLAG
Note: The following floating-point exceptions are signalling: IEEE_OVERFLOW_FLAG
Note: The following floating-point exceptions are signalling: IEEE_OVERFLOW_FLAG
Note: The following floating-point exceptions are signalling: IEEE_OVERFLOW_FLAG
Note: The following floating-point exceptions are signalling: IEEE_OVERFLOW_FLAG
Note: The following floating-point exceptions are signalling: IEEE_OVERFLOW_FLAG
Note: The following floating-point exceptions are signalling: IEEE_OVERFLOW_FLAG
Note: The following floating-point exceptions are signalling: IEEE_OVERFLOW_FLAG
Note: The following floating-point exceptions are signalling: IEEE_OVERFLOW_FLAG
Note: The following floating-point exceptions are signalling: IEEE_OVERFLOW_FLAG
Note: The following floating-point exceptions are signalling: IEEE_OVERFLOW_FLAG
Note: The following floating-point exceptions are signalling: IEEE_OVERFLOW_FLAG
Note: The following floating-point exceptions are signalling: IEEE_OVERFLOW_FLAG
Note: The following floating-point exceptions are signalling: IEEE_OVERFLOW_FLAG
Note: The following floating-point exceptions are signalling: IEEE_OVERFLOW_FLAG
Note: The following floating-point exceptions are signalling: IEEE_OVERFLOW_FLAG
Note: The following floating-point exceptions are signalling: IEEE_OVERFLOW_FLAG
Note: The following floating-point exceptions are signalling: IEEE_OVERFLOW_FLAG
Note: The following floating-point exceptions are signalling: IEEE_OVERFLOW_FLAG
Note: The following floating-point exceptions are signalling: IEEE_OVERFLOW_FLAG
Note: The following floating-point exceptions are signalling: IEEE_OVERFLOW_FLAG
Note: The following floating-point exceptions are signalling: IEEE_OVERFLOW_FLAG
Note: The following floating-point exceptions are signalling: IEEE_OVERFLOW_FLAG
Note: The following floating-point exceptions are signalling: IEEE_OVERFLOW_FLAG
Note: The following floating-point exceptions are signalling: IEEE_OVERFLOW_FLAG
Note: The following floating-point exceptions are signalling: IEEE_OVERFLOW_FLAG
Note: The following floating-point exceptions are signalling: IEEE_OVERFLOW_FLAG
Note: The following floating-point exceptions are signalling: IEEE_OVERFLOW_FLAG
Note: The following floating-point exceptions are signalling: IEEE_OVERFLOW_FLAG
Note: The following floating-point exceptions are signalling: IEEE_OVERFLOW_FLAG
Note: The following floating-point exceptions are signalling: IEEE_OVERFLOW_FLAG
Note: The following floating-point exceptions are signalling: IEEE_OVERFLOW_FLAG
Note: The following floating-point exceptions are signalling: IEEE_OVERFLOW_FLAG
Note: The following floating-point exceptions are signalling: IEEE_OVERFLOW_FLAG
Note: The following floating-point exceptions are signalling: IEEE_OVERFLOW_FLAG
Note: The following floating-point exceptions are signalling: IEEE_OVERFLOW_FLAG
Note: The following floating-point exceptions are signalling: IEEE_OVERFLOW_FLAG
Note: The following floating-point exceptions are signalling: IEEE_OVERFLOW_FLAG
Note: The following floating-point exceptions are signalling: IEEE_OVERFLOW_FLAG
Note: The following floating-point exceptions are signalling: IEEE_OVERFLOW_FLAG
Note: The following floating-point exceptions are signalling: IEEE_OVERFLOW_FLAG
Note: The following floating-point exceptions are signalling: IEEE_OVERFLOW_FLAG
Note: The following floating-point exceptions are signalling: IEEE_OVERFLOW_FLAG
