 running on    4 total cores
 distrk:  each k-point on    4 cores,    1 groups
 distr:  one band on    2 cores,    2 groups
 using from now: INCAR     
 vasp.5.4.4.18Apr17-6-g9f103f2a35 (build Dec  7 2020 12:43:57) complex           
 POSCAR found type information on POSCAR  Mo B 
 POSCAR found :  2 types and       3 ions
 scaLAPACK will be used
 LDA part: xc-table for Pade appr. of Perdew
 POSCAR, INCAR and KPOINTS ok, starting setup
 FFT: planning ...
 WAVECAR not read
 augmentation electrons   12.018373587906812     
 soft         electrons   0.0000000000000000     
 augmentation electrons   12.018373587906812     
 soft         electrons   0.0000000000000000     
 augmentation electrons   12.018373587906812     
 soft         electrons   0.0000000000000000     
 augmentation electrons   12.018373587906812     
 soft         electrons   0.0000000000000000     
 total        electrons   12.018373587906812     
 total        electrons   12.018373587906812     
 total        electrons   12.018373587906812     
 total        electrons   12.018373587906812     
 augmentation electrons   169.75791458332097     
 soft         electrons   0.0000000000000000     
 augmentation electrons   169.75791458332097     
 soft         electrons   0.0000000000000000     
 augmentation electrons   169.75791458332097     
 soft         electrons   0.0000000000000000     
 augmentation electrons   169.75791458332097     
 soft         electrons   0.0000000000000000     
 total        electrons   169.75791458332097     
 total        electrons   169.75791458332097     
 total        electrons   169.75791458332097     
 total        electrons   169.75791458332097     
 entering main loop
       N       E                     dE             d eps       ncg     rms          rms(c)
DAV:   1     0.314329683494E+02    0.31433E+02   -0.57181E+03  4320   0.105E+03
DAV:   2    -0.253216907640E+02   -0.56755E+02   -0.53846E+02  5156   0.219E+02
DAV:   3    -0.274905455019E+02   -0.21689E+01   -0.20800E+01  6000   0.381E+01
DAV:   4    -0.275167579465E+02   -0.26212E-01   -0.26020E-01  5436   0.318E+00
DAV:   5    -0.275171193953E+02   -0.36145E-03   -0.36104E-03  5594   0.282E-01    0.367E+01
RMM:   6    -0.238172431728E+02    0.36999E+01   -0.13010E+01  4334   0.224E+01    0.949E+00
RMM:   7    -0.237701111112E+02    0.47132E-01   -0.30206E-01  4328   0.331E+00    0.555E+00
RMM:   8    -0.237635026185E+02    0.66085E-02   -0.16640E-01  4320   0.357E+00    0.159E+00
RMM:   9    -0.237409438100E+02    0.22559E-01   -0.41381E-02  4320   0.143E+00    0.918E-02
RMM:  10    -0.237411439310E+02   -0.20012E-03   -0.24755E-03  4372   0.279E-01    0.135E-01
RMM:  11    -0.237408984496E+02    0.24548E-03   -0.28325E-04  4320   0.112E-01    0.242E-02
RMM:  12    -0.237408974688E+02    0.98078E-06   -0.54950E-06  3408   0.133E-02
   1 F= -.23740897E+02 E0= -.23740958E+02  d E =-.237409E+02
 curvature:   0.00 expect dE= 0.000E+00 dE for cont linesearch  0.000E+00
 trial: gam= 0.00000 g(F)=  0.162E-44 g(S)=  0.986E+00 ort = 0.000E+00 (trialstep = 0.100E+01)
 search vector abs. value=  0.986E+00
 bond charge predicted
       N       E                     dE             d eps       ncg     rms          rms(c)
DAV:   1    -0.241492439422E+02   -0.40835E+00   -0.24197E+01  4360   0.469E+01    0.148E+01
RMM:   2    -0.236804752901E+02    0.46877E+00   -0.12437E+00  4320   0.772E+00    0.576E+00
RMM:   3    -0.235911059352E+02    0.89369E-01   -0.10483E-01  4323   0.205E+00    0.363E+00
RMM:   4    -0.235720412015E+02    0.19065E-01   -0.48572E-02  4320   0.150E+00    0.326E-01
RMM:   5    -0.235722227993E+02   -0.18160E-03   -0.49938E-03  4354   0.411E-01    0.136E-01
RMM:   6    -0.235717565613E+02    0.46624E-03   -0.10111E-03  4321   0.217E-01    0.208E-02
RMM:   7    -0.235717547133E+02    0.18480E-05   -0.18835E-05  4250   0.277E-02    0.740E-03
RMM:   8    -0.235717554570E+02   -0.74374E-06   -0.10678E-06  2934   0.690E-03
   2 F= -.23571755E+02 E0= -.23571579E+02  d E =0.169142E+00
 trial-energy change:    0.169142  1 .order    0.085066   -0.986201    1.156333
 step:   0.4036(harm=  0.4603)  dis= 0.00000  next Energy=   -23.934395 (dE=-0.193E+00)
 bond charge predicted
       N       E                     dE             d eps       ncg     rms          rms(c)
DAV:   1    -0.241197888122E+02   -0.54803E+00   -0.89957E+00  4340   0.299E+01    0.880E+00
RMM:   2    -0.239554239188E+02    0.16436E+00   -0.26713E-01  4320   0.393E+00    0.303E+00
RMM:   3    -0.239291103921E+02    0.26314E-01   -0.29382E-02  4322   0.125E+00    0.132E+00
RMM:   4    -0.239244971732E+02    0.46132E-02   -0.12380E-02  4321   0.787E-01    0.105E-01
RMM:   5    -0.239246223628E+02   -0.12519E-03   -0.53149E-04  4351   0.145E-01    0.387E-02
RMM:   6    -0.239246232076E+02   -0.84473E-06   -0.13761E-04  4321   0.840E-02    0.388E-02
RMM:   7    -0.239246126752E+02    0.10532E-04   -0.21511E-05  4306   0.338E-02    0.254E-03
RMM:   8    -0.239246123596E+02    0.31561E-06   -0.37244E-07  2732   0.375E-03
   3 F= -.23924612E+02 E0= -.23924680E+02  d E =-.183715E+00
 curvature:  -0.23 expect dE=-0.102E-01 dE for cont linesearch -0.144E-03
 ZBRENT: interpolating
 opt :   0.3936  next Energy=   -23.924737 (dE=-0.184E+00)
 bond charge predicted
       N       E                     dE             d eps       ncg     rms          rms(c)
DAV:   1    -0.239248167768E+02   -0.20410E-03   -0.25346E-03  4744   0.500E-01    0.163E-01
RMM:   2    -0.239247738311E+02    0.42946E-04   -0.78683E-05  4319   0.668E-02    0.607E-02
RMM:   3    -0.239247684330E+02    0.53981E-05   -0.81365E-06  4240   0.203E-02    0.282E-02
RMM:   4    -0.239247686688E+02   -0.23589E-06   -0.32037E-06  3435   0.127E-02    0.183E-03
RMM:   5    -0.239247689259E+02   -0.25711E-06   -0.18231E-07  2340   0.372E-03
   4 F= -.23924769E+02 E0= -.23924836E+02  d E =-.183871E+00
 curvature:  -0.20 expect dE=-0.828E-02 dE for cont linesearch -0.171E-05
 trial: gam= 0.04563 g(F)=  0.146E-43 g(S)=  0.421E-01 ort =-0.293E-02 (trialstep = 0.879E+00)
 search vector abs. value=  0.439E-01
 bond charge predicted
       N       E                     dE             d eps       ncg     rms          rms(c)
DAV:   1    -0.239581957416E+02   -0.33427E-01   -0.11107E+00  4360   0.881E+00    0.481E-01
RMM:   2    -0.239541385445E+02    0.40572E-02   -0.24055E-02  4328   0.131E+00    0.458E-01
RMM:   3    -0.239537208673E+02    0.41768E-03   -0.73916E-04  4346   0.173E-01    0.256E-01
RMM:   4    -0.239536523005E+02    0.68567E-04   -0.37969E-04  4320   0.159E-01    0.374E-02
RMM:   5    -0.239536551472E+02   -0.28467E-05   -0.72008E-05  4330   0.575E-02    0.280E-02
RMM:   6    -0.239536517123E+02    0.34349E-05   -0.19770E-05  4296   0.311E-02    0.855E-03
RMM:   7    -0.239536512538E+02    0.45855E-06   -0.39733E-07  2817   0.566E-03
   5 F= -.23953651E+02 E0= -.23953510E+02  d E =-.288823E-01
 trial-energy change:   -0.028882  1 .order   -0.030909   -0.036849   -0.024968
 step:   2.7254(harm=  2.7254)  dis= 0.00000  next Energy=   -23.981913 (dE=-0.571E-01)
 bond charge predicted
       N       E                     dE             d eps       ncg     rms          rms(c)
DAV:   1    -0.239930690187E+02   -0.39417E-01   -0.48875E+00  4368   0.183E+01    0.997E-01
RMM:   2    -0.239781105417E+02    0.14958E-01   -0.95285E-02  4330   0.265E+00    0.940E-01
RMM:   3    -0.239761083977E+02    0.20021E-02   -0.29213E-03  4342   0.365E-01    0.528E-01
RMM:   4    -0.239757728393E+02    0.33556E-03   -0.17528E-03  4320   0.339E-01    0.716E-02
RMM:   5    -0.239757733995E+02   -0.56020E-06   -0.25987E-04  4328   0.110E-01    0.512E-02
RMM:   6    -0.239757658989E+02    0.75006E-05   -0.63060E-05  4322   0.577E-02    0.174E-02
RMM:   7    -0.239757636297E+02    0.22692E-05   -0.20833E-06  3063   0.111E-02    0.590E-03
RMM:   8    -0.239757633995E+02    0.23018E-06   -0.12653E-06  2880   0.739E-03
   6 F= -.23975763E+02 E0= -.23975928E+02  d E =-.509945E-01
 curvature:  -1.43 expect dE=-0.142E-01 dE for cont linesearch -0.230E-02
 ZBRENT: interpolating
 opt :   2.3032  next Energy=   -23.977541 (dE=-0.528E-01)
 bond charge predicted
       N       E                     dE             d eps       ncg     rms          rms(c)
DAV:   1    -0.239779944972E+02   -0.22309E-02   -0.25649E-01  4346   0.424E+00    0.238E-01
RMM:   2    -0.239770420975E+02    0.95240E-03   -0.49139E-03  4329   0.609E-01    0.221E-01
RMM:   3    -0.239769115178E+02    0.13058E-03   -0.16925E-04  4341   0.866E-02    0.123E-01
RMM:   4    -0.239768839705E+02    0.27547E-04   -0.86882E-05  4321   0.728E-02    0.187E-02
RMM:   5    -0.239768845799E+02   -0.60936E-06   -0.12163E-05  4314   0.251E-02    0.114E-02
RMM:   6    -0.239768838630E+02    0.71692E-06   -0.34965E-06  3622   0.134E-02
   7 F= -.23976884E+02 E0= -.23976742E+02  d E =-.521149E-01
 curvature:  -1.10 expect dE=-0.512E-02 dE for cont linesearch -0.276E-03
 ZBRENT: interpolating
 opt :   2.4225  next Energy=   -23.977082 (dE=-0.523E-01)
 bond charge predicted
       N       E                     dE             d eps       ncg     rms          rms(c)
DAV:   1    -0.239771308114E+02   -0.24623E-03   -0.20519E-02  4412   0.120E+00    0.650E-02
RMM:   2    -0.239770669068E+02    0.63905E-04   -0.36813E-04  4327   0.169E-01    0.603E-02
RMM:   3    -0.239770588443E+02    0.80625E-05   -0.12837E-05  4164   0.238E-02    0.336E-02
RMM:   4    -0.239770583035E+02    0.54084E-06   -0.66007E-06  4257   0.207E-02    0.510E-03
RMM:   5    -0.239770583797E+02   -0.76196E-07   -0.77367E-07  2660   0.681E-03
   8 F= -.23977058E+02 E0= -.23977008E+02  d E =-.522895E-01
 curvature:  -0.79 expect dE=-0.424E-02 dE for cont linesearch -0.579E-05
 trial: gam= 0.19201 g(F)=  0.570E-43 g(S)=  0.537E-02 ort = 0.567E-03 (trialstep = 0.119E+01)
 search vector abs. value=  0.721E-02
 bond charge predicted
       N       E                     dE             d eps       ncg     rms          rms(c)
DAV:   1    -0.239784058584E+02   -0.13476E-02   -0.28998E-01  4348   0.509E+00    0.146E+00
RMM:   2    -0.239751550213E+02    0.32508E-02   -0.53009E-03  4320   0.587E-01    0.625E-01
RMM:   3    -0.239743653330E+02    0.78969E-03   -0.97550E-04  4325   0.225E-01    0.250E-01
RMM:   4    -0.239742722372E+02    0.93096E-04   -0.26037E-04  4324   0.117E-01    0.201E-02
RMM:   5    -0.239742726522E+02   -0.41493E-06   -0.10851E-05  4193   0.250E-02    0.269E-03
RMM:   6    -0.239742725729E+02    0.79235E-07   -0.62934E-07  2711   0.595E-03
   9 F= -.23974273E+02 E0= -.23974400E+02  d E =0.278581E-02
 trial-energy change:    0.002786  1 .order    0.002719   -0.006507    0.011945
 step:   0.4129(harm=  0.4188)  dis= 0.00000  next Energy=   -23.978187 (dE=-0.113E-02)
 bond charge predicted
       N       E                     dE             d eps       ncg     rms          rms(c)
DAV:   1    -0.239798720166E+02   -0.55994E-02   -0.12401E-01  4340   0.335E+00    0.950E-01
RMM:   2    -0.239785190101E+02    0.13530E-02   -0.21825E-03  4320   0.380E-01    0.405E-01
RMM:   3    -0.239782001029E+02    0.31891E-03   -0.41549E-04  4324   0.147E-01    0.160E-01
RMM:   4    -0.239781714995E+02    0.28603E-04   -0.10889E-04  4324   0.761E-02    0.128E-02
RMM:   5    -0.239781745012E+02   -0.30018E-05   -0.43411E-06  3630   0.159E-02    0.168E-03
RMM:   6    -0.239781744532E+02    0.48008E-07   -0.24384E-07  2551   0.396E-03
  10 F= -.23978174E+02 E0= -.23978201E+02  d E =-.111607E-02
 curvature:  -0.28 expect dE=-0.178E-05 dE for cont linesearch -0.222E-07
 trial: gam=-0.01854 g(F)=  0.435E-44 g(S)=  0.647E-05 ort = 0.241E-04 (trialstep = 0.103E+01)
 search vector abs. value=  0.806E-05
 reached required accuracy - stopping structural energy minimisation
 writing wavefunctions
 augmentation electrons   1.1737209275200720     
 soft         electrons   10.848521492873514     
 augmentation electrons   1.1737209275200720     
 soft         electrons   10.848521492873514     
 augmentation electrons   1.1737209275200720     
 soft         electrons   10.848521492873514     
 augmentation electrons   1.1737209275200720     
 soft         electrons   10.848521492873514     
 total        electrons   12.022242420393587     
 total        electrons   12.022242420393587     
 total        electrons   12.022242420393587     
 total        electrons   12.022242420393587     
