   55   55   85    1
  0.1292508E+02  0.6078000E-09  0.6078000E-09  0.2222000E-08  0.5000000E-15
   1.0000000000000000E-004
  CAR 
 Name                                    
    199     41    132

  0.3742002E-15  0.3742002E-15  0.1262379E-14  0.1234568E-01
    1      -11.311953   1.000000
    2      -10.720341   1.000000
    3       -9.903070   1.000000
    4       -8.617273   1.000000
    5       -8.405042   1.000000
    6       -8.328123   1.000000
    7       -7.946037   1.000000
    8       -7.822874   1.000000
    9       -7.547825   1.000000
   10       -7.534943   1.000000
   11       -7.515723   1.000000
   12       -7.438520   1.000000
   13       -7.422075   1.000000
   14       -7.375755   1.000000
   15       -7.178132   1.000000
   16       -7.170395   1.000000
   17       -7.090642   1.000000
   18       -6.868918   1.000000
   19       -6.743967   1.000000
   20       -6.596866   1.000000
   21       -6.289873   1.000000
   22       -6.003204   1.000000
   23       -5.831161   1.000000
   24       -5.703520   1.000000
   25       -5.691029   1.000000
   26       -5.670219   1.000000
   27       -5.579736   1.000000
   28       -5.505267   1.000000
   29       -5.155696   1.000000
   30       -5.039290   1.000000
   31       -4.513112   1.000000
   32       -4.423928   1.000000
   33       -4.295672   1.000000
   34       -4.232679   1.000000
   35       -4.149222   1.000000
   36       -4.072894   1.000000
   37       -3.761175   1.000000
   38       -3.268206   1.000000
   39       -2.986923   1.000000
   40       -2.831046   1.000000
   41       -2.653361   1.000000
   42       -2.516908   1.000000
   43       -2.506780   1.000000
   44       -2.297153   1.000000
   45       -2.241534   1.000000
   46       -2.196451   1.000000
   47       -2.115445   1.000000
   48       -1.990828   1.000000
   49       -1.787057   1.000000
   50       -1.783657   1.000000
   51       -1.674580   1.000000
   52       -1.650457   1.000000
   53       -1.641776   1.000000
   54       -1.515214   1.000000
   55       -1.413891   1.000000
   56       -1.412468   1.000000
   57       -1.325887   1.000000
   58       -1.214924   1.000000
   59       -1.199234   1.000000
   60       -1.146125   1.000000
   61       -1.134642   1.000000
   62       -0.960759   1.000000
   63       -0.941926   1.000000
   64       -0.838312   1.000000
   65       -0.824164   1.000000
   66       -0.762441   1.000000
   67       -0.596455   1.000000
   68       -0.583573   1.000000
   69       -0.520000   1.000000
   70       -0.494953   1.000000
   71       -0.417183   1.000000
   72       -0.361923   1.000000
   73       -0.080574   1.000000
   74       -0.026751   1.000000
   75        0.087268   1.000000
   76        0.136699   1.000000
   77        0.172717   1.000000
   78        0.243968   1.000000
   79        0.417039   1.000000
   80        0.511556   1.000000
   81        0.636514   1.000000
   82        0.964553   1.000000
   83        1.118779   1.000000
   84        1.280692   1.000000
   85        1.419738   1.000000
   86        1.440986   1.000000
   87        1.608046   1.000000
   88        1.639199   1.000000
   89        1.792764   1.000000
   90        1.806025   1.000000
   91        1.819843   1.000000
   92        1.854449   1.000000
   93        1.855154   1.000000
   94        1.946821   1.000000
   95        2.026772   1.000001
   96        2.095172   1.000011
   97        2.345121   1.005445
   98        2.423175   1.017543
   99        2.860443   0.150883
  100        2.979949  -0.030323
  101        2.998137  -0.034546
  102        3.210470  -0.003784
  103        3.404449  -0.000032
  104        3.448381  -0.000008
  105        3.450046  -0.000008
  106        3.497597  -0.000002
  107        3.543920  -0.000000
  108        3.727051  -0.000000
  109        3.762292  -0.000000
  110        3.785610  -0.000000
  111        3.796413  -0.000000
  112        3.857519  -0.000000
  113        3.896903  -0.000000
  114        3.940780  -0.000000
  115        3.997796  -0.000000
  116        3.998801  -0.000000
  117        4.068517  -0.000000
  118        4.070216  -0.000000
  119        4.158804  -0.000000
  120        4.219856  -0.000000
  121        4.269393  -0.000000
  122        4.276014  -0.000000
  123        4.288091  -0.000000
  124        4.377164  -0.000000
  125        4.380378  -0.000000
  126        4.484386  -0.000000
  127        4.551353  -0.000000
  128        4.551632  -0.000000
  129        4.772367  -0.000000
  130        4.787109  -0.000000
  131        5.050095  -0.000000
  132        5.149429  -0.000000

  0.1111111E+00  0.3756941E-15  0.1262379E-14  0.2469136E-01
    1      -11.254701   1.000000
    2      -10.668111   1.000000
    3       -9.862539   1.000000
    4       -8.581151   1.000000
    5       -8.379990   1.000000
    6       -8.345820   1.000000
    7       -8.095966   1.000000
    8       -8.088034   1.000000
    9       -7.831861   1.000000
   10       -7.679603   1.000000
   11       -7.651268   1.000000
   12       -7.638453   1.000000
   13       -7.587871   1.000000
   14       -7.572990   1.000000
   15       -6.950149   1.000000
   16       -6.889018   1.000000
   17       -6.698654   1.000000
   18       -6.665887   1.000000
   19       -6.550613   1.000000
   20       -6.441857   1.000000
   21       -6.279882   1.000000
   22       -5.985215   1.000000
   23       -5.932523   1.000000
   24       -5.732418   1.000000
   25       -5.685574   1.000000
   26       -5.570873   1.000000
   27       -5.534189   1.000000
   28       -5.442427   1.000000
   29       -5.182614   1.000000
   30       -4.974570   1.000000
   31       -4.496864   1.000000
   32       -4.265592   1.000000
   33       -4.242149   1.000000
   34       -4.065003   1.000000
   35       -4.025003   1.000000
   36       -3.894506   1.000000
   37       -3.676817   1.000000
   38       -3.254004   1.000000
   39       -3.005193   1.000000
   40       -2.865226   1.000000
   41       -2.692728   1.000000
   42       -2.567100   1.000000
   43       -2.498654   1.000000
   44       -2.429737   1.000000
   45       -2.277684   1.000000
   46       -2.258330   1.000000
   47       -2.186143   1.000000
   48       -2.078775   1.000000
   49       -1.876704   1.000000
   50       -1.773606   1.000000
   51       -1.748423   1.000000
   52       -1.677817   1.000000
   53       -1.605318   1.000000
   54       -1.506147   1.000000
   55       -1.427539   1.000000
   56       -1.395158   1.000000
   57       -1.340597   1.000000
   58       -1.232867   1.000000
   59       -1.176155   1.000000
   60       -1.165309   1.000000
   61       -1.123083   1.000000
   62       -1.050703   1.000000
   63       -0.968622   1.000000
   64       -0.877569   1.000000
   65       -0.868531   1.000000
   66       -0.804808   1.000000
   67       -0.723663   1.000000
   68       -0.588461   1.000000
   69       -0.508284   1.000000
   70       -0.472521   1.000000
   71       -0.418860   1.000000
   72       -0.338258   1.000000
   73       -0.239112   1.000000
   74       -0.034500   1.000000
   75        0.003210   1.000000
   76        0.072420   1.000000
   77        0.141719   1.000000
   78        0.309721   1.000000
   79        0.373926   1.000000
   80        0.458177   1.000000
   81        0.596209   1.000000
   82        0.745003   1.000000
   83        1.080308   1.000000
   84        1.217387   1.000000
   85        1.293628   1.000000
   86        1.364215   1.000000
   87        1.450013   1.000000
   88        1.615093   1.000000
   89        1.683330   1.000000
   90        1.748734   1.000000
   91        1.775387   1.000000
   92        1.805482   1.000000
   93        1.870327   1.000000
   94        1.973553   1.000000
   95        2.084449   1.000008
   96        2.126034   1.000028
   97        2.579968   1.017635
   98        2.674945   0.849962
   99        2.862354   0.145333
  100        2.971088  -0.026732
  101        3.018620  -0.035332
  102        3.096774  -0.021015
  103        3.247941  -0.001785
  104        3.310295  -0.000426
  105        3.495613  -0.000002
  106        3.660953  -0.000000
  107        3.665149  -0.000000
  108        3.742245  -0.000000
  109        3.760276  -0.000000
  110        3.769437  -0.000000
  111        3.801554  -0.000000
  112        3.860325  -0.000000
  113        3.892440  -0.000000
  114        3.934177  -0.000000
  115        3.986237  -0.000000
  116        3.994632  -0.000000
  117        4.051926  -0.000000
  118        4.066209  -0.000000
  119        4.139074  -0.000000
  120        4.187431  -0.000000
  121        4.212548  -0.000000
  122        4.223155  -0.000000
  123        4.299757  -0.000000
  124        4.328418  -0.000000
  125        4.357077  -0.000000
  126        4.422198  -0.000000
  127        4.514064  -0.000000
  128        4.572187  -0.000000
  129        4.727290  -0.000000
  130        4.841862  -0.000000
  131        4.996079  -0.000000
  132        5.062305  -0.000000

  0.2222222E+00  0.3503827E-15  0.1262379E-14  0.2469136E-01
    1      -11.084910   1.000000
    2      -10.513776   1.000000
    3       -9.744131   1.000000
    4       -8.759397   1.000000
    5       -8.521672   1.000000
    6       -8.474914   1.000000
    7       -8.453929   1.000000
    8       -8.261030   1.000000
    9       -7.918532   1.000000
   10       -7.911312   1.000000
   11       -7.853770   1.000000
   12       -7.838905   1.000000
   13       -7.772439   1.000000
   14       -7.731001   1.000000
   15       -6.802126   1.000000
   16       -6.730747   1.000000
   17       -6.492520   1.000000
   18       -6.462433   1.000000
   19       -6.387792   1.000000
   20       -6.298843   1.000000
   21       -6.033535   1.000000
   22       -5.882510   1.000000
   23       -5.684909   1.000000
   24       -5.635325   1.000000
   25       -5.574896   1.000000
   26       -5.428703   1.000000
   27       -5.383645   1.000000
   28       -5.277010   1.000000
   29       -4.955969   1.000000
   30       -4.773371   1.000000
   31       -4.356009   1.000000
   32       -4.079088   1.000000
   33       -4.033272   1.000000
   34       -3.866230   1.000000
   35       -3.626140   1.000000
   36       -3.569484   1.000000
   37       -3.339070   1.000000
   38       -3.219750   1.000000
   39       -3.079542   1.000000
   40       -3.036606   1.000000
   41       -2.933097   1.000000
   42       -2.879320   1.000000
   43       -2.743834   1.000000
   44       -2.479669   1.000000
   45       -2.442894   1.000000
   46       -2.273203   1.000000
   47       -2.246574   1.000000
   48       -2.082466   1.000000
   49       -1.942966   1.000000
   50       -1.862788   1.000000
   51       -1.757440   1.000000
   52       -1.712953   1.000000
   53       -1.684268   1.000000
   54       -1.638263   1.000000
   55       -1.555376   1.000000
   56       -1.512192   1.000000
   57       -1.353074   1.000000
   58       -1.276112   1.000000
   59       -1.242348   1.000000
   60       -1.197960   1.000000
   61       -1.175848   1.000000
   62       -1.106344   1.000000
   63       -1.056146   1.000000
   64       -1.024810   1.000000
   65       -0.959707   1.000000
   66       -0.848269   1.000000
   67       -0.786872   1.000000
   68       -0.735498   1.000000
   69       -0.631812   1.000000
   70       -0.599958   1.000000
   71       -0.495735   1.000000
   72       -0.406843   1.000000
   73       -0.324865   1.000000
   74       -0.261345   1.000000
   75       -0.142004   1.000000
   76       -0.048368   1.000000
   77        0.186634   1.000000
   78        0.259247   1.000000
   79        0.296172   1.000000
   80        0.486591   1.000000
   81        0.593941   1.000000
   82        0.669143   1.000000
   83        0.876670   1.000000
   84        0.935686   1.000000
   85        1.126107   1.000000
   86        1.217166   1.000000
   87        1.299190   1.000000
   88        1.548230   1.000000
   89        1.567359   1.000000
   90        1.665549   1.000000
   91        1.726569   1.000000
   92        1.740697   1.000000
   93        1.805415   1.000000
   94        1.943277   1.000000
   95        2.082031   1.000007
   96        2.233943   1.000525
   97        2.533299   1.035010
   98        2.654363   0.904837
   99        2.855176   0.166631
  100        3.024135  -0.034999
  101        3.086758  -0.023316
  102        3.253387  -0.001589
  103        3.350139  -0.000152
  104        3.398251  -0.000039
  105        3.504775  -0.000001
  106        3.522438  -0.000001
  107        3.583381  -0.000000
  108        3.616448  -0.000000
  109        3.641237  -0.000000
  110        3.701029  -0.000000
  111        3.760087  -0.000000
  112        3.849550  -0.000000
  113        3.873765  -0.000000
  114        3.903528  -0.000000
  115        3.939614  -0.000000
  116        3.991975  -0.000000
  117        4.035721  -0.000000
  118        4.063657  -0.000000
  119        4.090964  -0.000000
  120        4.139311  -0.000000
  121        4.184945  -0.000000
  122        4.244147  -0.000000
  123        4.278820  -0.000000
  124        4.309368  -0.000000
  125        4.354659  -0.000000
  126        4.430937  -0.000000
  127        4.524849  -0.000000
  128        4.625374  -0.000000
  129        4.650961  -0.000000
  130        4.806848  -0.000000
  131        4.891617  -0.000000
  132        4.999323  -0.000000

  0.3333333E+00  0.3779629E-15  0.1262379E-14  0.2469136E-01
    1      -10.809176   1.000000
    2      -10.264980   1.000000
    3       -9.558302   1.000000
    4       -9.372417   1.000000
    5       -9.009234   1.000000
    6       -8.694207   1.000000
    7       -8.317589   1.000000
    8       -8.105242   1.000000
    9       -8.066442   1.000000
   10       -8.028215   1.000000
   11       -8.012049   1.000000
   12       -7.940492   1.000000
   13       -7.867682   1.000000
   14       -7.774557   1.000000
   15       -7.105673   1.000000
   16       -7.096894   1.000000
   17       -6.358669   1.000000
   18       -6.214311   1.000000
   19       -6.197054   1.000000
   20       -5.972927   1.000000
   21       -5.779913   1.000000
   22       -5.730482   1.000000
   23       -5.561330   1.000000
   24       -5.522914   1.000000
   25       -5.405274   1.000000
   26       -5.320156   1.000000
   27       -4.852560   1.000000
   28       -4.737273   1.000000
   29       -4.479665   1.000000
   30       -4.370301   1.000000
   31       -4.079432   1.000000
   32       -3.831009   1.000000
   33       -3.761043   1.000000
   34       -3.641488   1.000000
   35       -3.518443   1.000000
   36       -3.466570   1.000000
   37       -3.375155   1.000000
   38       -3.354663   1.000000
   39       -3.315359   1.000000
   40       -3.258104   1.000000
   41       -3.143804   1.000000
   42       -3.084804   1.000000
   43       -2.696124   1.000000
   44       -2.472035   1.000000
   45       -2.399887   1.000000
   46       -2.328430   1.000000
   47       -2.298475   1.000000
   48       -2.186563   1.000000
   49       -2.144193   1.000000
   50       -1.983792   1.000000
   51       -1.891172   1.000000
   52       -1.855184   1.000000
   53       -1.791276   1.000000
   54       -1.740346   1.000000
   55       -1.663654   1.000000
   56       -1.614124   1.000000
   57       -1.507818   1.000000
   58       -1.408461   1.000000
   59       -1.384540   1.000000
   60       -1.321603   1.000000
   61       -1.261840   1.000000
   62       -1.239672   1.000000
   63       -1.146463   1.000000
   64       -1.138722   1.000000
   65       -1.070519   1.000000
   66       -0.976125   1.000000
   67       -0.919448   1.000000
   68       -0.820355   1.000000
   69       -0.748439   1.000000
   70       -0.632813   1.000000
   71       -0.555594   1.000000
   72       -0.419583   1.000000
   73       -0.382892   1.000000
   74       -0.314063   1.000000
   75       -0.216794   1.000000
   76       -0.165268   1.000000
   77       -0.088681   1.000000
   78        0.180724   1.000000
   79        0.305570   1.000000
   80        0.371583   1.000000
   81        0.600535   1.000000
   82        0.669713   1.000000
   83        0.791555   1.000000
   84        0.880765   1.000000
   85        1.111958   1.000000
   86        1.159126   1.000000
   87        1.237367   1.000000
   88        1.435964   1.000000
   89        1.455026   1.000000
   90        1.526269   1.000000
   91        1.663761   1.000000
   92        1.741999   1.000000
   93        1.768766   1.000000
   94        1.936929   1.000000
   95        1.987778   1.000000
   96        2.337843   1.004781
   97        2.398574   1.012715
   98        2.492852   1.032648
   99        2.676668   0.844895
  100        3.006350  -0.035291
  101        3.043383  -0.032555
  102        3.133088  -0.013443
  103        3.246035  -0.001859
  104        3.254784  -0.001542
  105        3.307261  -0.000459
  106        3.393923  -0.000044
  107        3.504719  -0.000001
  108        3.577311  -0.000000
  109        3.607403  -0.000000
  110        3.647737  -0.000000
  111        3.724380  -0.000000
  112        3.754441  -0.000000
  113        3.769003  -0.000000
  114        3.897439  -0.000000
  115        3.914295  -0.000000
  116        3.982684  -0.000000
  117        4.069392  -0.000000
  118        4.096048  -0.000000
  119        4.140105  -0.000000
  120        4.163770  -0.000000
  121        4.172897  -0.000000
  122        4.227052  -0.000000
  123        4.294474  -0.000000
  124        4.363080  -0.000000
  125        4.421509  -0.000000
  126        4.500997  -0.000000
  127        4.521366  -0.000000
  128        4.580651  -0.000000
  129        4.670920  -0.000000
  130        4.746914  -0.000000
  131        4.837611  -0.000000
  132        4.881527  -0.000000

  0.4444444E+00  0.3698634E-15  0.1262379E-14  0.2469136E-01
    1      -10.450347   1.000000
    2       -9.949096   1.000000
    3       -9.898081   1.000000
    4       -9.475471   1.000000
    5       -9.314741   1.000000
    6       -8.973293   1.000000
    7       -8.171080   1.000000
    8       -8.163358   1.000000
    9       -8.108544   1.000000
   10       -8.067568   1.000000
   11       -7.991101   1.000000
   12       -7.936028   1.000000
   13       -7.828232   1.000000
   14       -7.766986   1.000000
   15       -7.481504   1.000000
   16       -7.354758   1.000000
   17       -6.343846   1.000000
   18       -6.143897   1.000000
   19       -6.130322   1.000000
   20       -5.812622   1.000000
   21       -5.540543   1.000000
   22       -5.428599   1.000000
   23       -5.390689   1.000000
   24       -5.384618   1.000000
   25       -5.358000   1.000000
   26       -5.284849   1.000000
   27       -4.265284   1.000000
   28       -4.178536   1.000000
   29       -3.994492   1.000000
   30       -3.974217   1.000000
   31       -3.942296   1.000000
   32       -3.870599   1.000000
   33       -3.724938   1.000000
   34       -3.694173   1.000000
   35       -3.592299   1.000000
   36       -3.531670   1.000000
   37       -3.433695   1.000000
   38       -3.388884   1.000000
   39       -3.367992   1.000000
   40       -3.288655   1.000000
   41       -3.215659   1.000000
   42       -3.156372   1.000000
   43       -2.999816   1.000000
   44       -2.928311   1.000000
   45       -2.490929   1.000000
   46       -2.451707   1.000000
   47       -2.276536   1.000000
   48       -2.184121   1.000000
   49       -2.092282   1.000000
   50       -2.032797   1.000000
   51       -1.940520   1.000000
   52       -1.865082   1.000000
   53       -1.803165   1.000000
   54       -1.744424   1.000000
   55       -1.710664   1.000000
   56       -1.654950   1.000000
   57       -1.619098   1.000000
   58       -1.545832   1.000000
   59       -1.523679   1.000000
   60       -1.404311   1.000000
   61       -1.349517   1.000000
   62       -1.301233   1.000000
   63       -1.234194   1.000000
   64       -1.214692   1.000000
   65       -1.083753   1.000000
   66       -1.028392   1.000000
   67       -0.953086   1.000000
   68       -0.919639   1.000000
   69       -0.858352   1.000000
   70       -0.731088   1.000000
   71       -0.602730   1.000000
   72       -0.503499   1.000000
   73       -0.410045   1.000000
   74       -0.329525   1.000000
   75       -0.270046   1.000000
   76       -0.225695   1.000000
   77       -0.059012   1.000000
   78       -0.009976   1.000000
   79        0.334281   1.000000
   80        0.422292   1.000000
   81        0.503464   1.000000
   82        0.583378   1.000000
   83        0.820388   1.000000
   84        0.929718   1.000000
   85        0.997118   1.000000
   86        1.195456   1.000000
   87        1.252260   1.000000
   88        1.335859   1.000000
   89        1.443700   1.000000
   90        1.517789   1.000000
   91        1.638595   1.000000
   92        1.698263   1.000000
   93        1.744607   1.000000
   94        2.059551   1.000003
   95        2.133309   1.000034
   96        2.246769   1.000714
   97        2.478858   1.030022
   98        2.495250   1.033037
   99        2.582323   1.015887
  100        2.613009   0.983135
  101        2.639367   0.938117
  102        2.922700   0.016820
  103        3.015813  -0.035423
  104        3.212995  -0.003607
  105        3.282278  -0.000834
  106        3.385871  -0.000056
  107        3.454269  -0.000007
  108        3.478529  -0.000003
  109        3.540579  -0.000000
  110        3.569092  -0.000000
  111        3.640710  -0.000000
  112        3.679141  -0.000000
  113        3.705980  -0.000000
  114        3.851961  -0.000000
  115        3.876950  -0.000000
  116        3.952682  -0.000000
  117        4.035800  -0.000000
  118        4.057434  -0.000000
  119        4.150128  -0.000000
  120        4.163620  -0.000000
  121        4.216624  -0.000000
  122        4.257144  -0.000000
  123        4.323568  -0.000000
  124        4.402022  -0.000000
  125        4.523166  -0.000000
  126        4.539239  -0.000000
  127        4.587709  -0.000000
  128        4.631953  -0.000000
  129        4.676826  -0.000000
  130        4.736396  -0.000000
  131        4.944278  -0.000000
  132        5.046967  -0.000000

  0.3742002E-15  0.1111111E+00  0.1262379E-14  0.2469136E-01
    1      -11.254700   1.000000
    2      -10.668110   1.000000
    3       -9.862538   1.000000
    4       -8.581148   1.000000
    5       -8.379996   1.000000
    6       -8.345834   1.000000
    7       -8.095819   1.000000
    8       -8.088294   1.000000
    9       -7.831811   1.000000
   10       -7.679600   1.000000
   11       -7.651276   1.000000
   12       -7.638252   1.000000
   13       -7.587722   1.000000
   14       -7.573100   1.000000
   15       -6.950161   1.000000
   16       -6.889131   1.000000
   17       -6.698789   1.000000
   18       -6.665903   1.000000
   19       -6.550570   1.000000
   20       -6.442251   1.000000
   21       -6.279609   1.000000
   22       -5.985070   1.000000
   23       -5.932722   1.000000
   24       -5.732369   1.000000
   25       -5.685561   1.000000
   26       -5.570964   1.000000
   27       -5.534261   1.000000
   28       -5.441929   1.000000
   29       -5.181924   1.000000
   30       -4.974723   1.000000
   31       -4.497869   1.000000
   32       -4.265600   1.000000
   33       -4.242138   1.000000
   34       -4.065198   1.000000
   35       -4.025153   1.000000
   36       -3.894071   1.000000
   37       -3.676651   1.000000
   38       -3.253994   1.000000
   39       -3.005235   1.000000
   40       -2.865196   1.000000
   41       -2.692796   1.000000
   42       -2.566946   1.000000
   43       -2.498678   1.000000
   44       -2.429787   1.000000
   45       -2.278388   1.000000
   46       -2.257403   1.000000
   47       -2.186028   1.000000
   48       -2.079422   1.000000
   49       -1.875851   1.000000
   50       -1.773956   1.000000
   51       -1.748474   1.000000
   52       -1.677488   1.000000
   53       -1.605762   1.000000
   54       -1.506186   1.000000
   55       -1.427311   1.000000
   56       -1.395306   1.000000
   57       -1.340692   1.000000
   58       -1.232695   1.000000
   59       -1.176302   1.000000
   60       -1.165531   1.000000
   61       -1.123071   1.000000
   62       -1.050629   1.000000
   63       -0.968797   1.000000
   64       -0.876499   1.000000
   65       -0.868580   1.000000
   66       -0.804551   1.000000
   67       -0.724737   1.000000
   68       -0.588638   1.000000
   69       -0.509182   1.000000
   70       -0.472104   1.000000
   71       -0.418998   1.000000
   72       -0.337315   1.000000
   73       -0.239153   1.000000
   74       -0.034856   1.000000
   75        0.004450   1.000000
   76        0.072453   1.000000
   77        0.141662   1.000000
   78        0.309085   1.000000
   79        0.373965   1.000000
   80        0.457424   1.000000
   81        0.596841   1.000000
   82        0.744523   1.000000
   83        1.081084   1.000000
   84        1.217217   1.000000
   85        1.293751   1.000000
   86        1.363453   1.000000
   87        1.450531   1.000000
   88        1.613110   1.000000
   89        1.685506   1.000000
   90        1.748674   1.000000
   91        1.775774   1.000000
   92        1.805536   1.000000
   93        1.870164   1.000000
   94        1.973049   1.000000
   95        2.084186   1.000007
   96        2.126193   1.000028
   97        2.580681   1.017116
   98        2.674339   0.851728
   99        2.862274   0.145563
  100        2.971078  -0.026728
  101        3.019242  -0.035304
  102        3.096401  -0.021099
  103        3.248334  -0.001770
  104        3.309812  -0.000431
  105        3.495688  -0.000002
  106        3.660951  -0.000000
  107        3.665256  -0.000000
  108        3.742004  -0.000000
  109        3.760361  -0.000000
  110        3.769389  -0.000000
  111        3.801825  -0.000000
  112        3.860229  -0.000000
  113        3.892402  -0.000000
  114        3.934116  -0.000000
  115        3.986102  -0.000000
  116        3.994655  -0.000000
  117        4.051921  -0.000000
  118        4.066276  -0.000000
  119        4.139112  -0.000000
  120        4.187388  -0.000000
  121        4.212598  -0.000000
  122        4.223043  -0.000000
  123        4.299846  -0.000000
  124        4.328603  -0.000000
  125        4.357169  -0.000000
  126        4.422118  -0.000000
  127        4.514106  -0.000000
  128        4.572090  -0.000000
  129        4.727315  -0.000000
  130        4.841823  -0.000000
  131        4.995977  -0.000000
  132        5.062207  -0.000000

  0.1111111E+00  0.1111111E+00  0.1262379E-14  0.2469136E-01
    1      -11.140431   1.000000
    2      -10.564662   1.000000
    3       -9.782749   1.000000
    4       -8.512977   1.000000
    5       -8.479884   1.000000
    6       -8.395103   1.000000
    7       -8.314865   1.000000
    8       -8.313980   1.000000
    9       -8.220543   1.000000
   10       -8.042876   1.000000
   11       -7.923203   1.000000
   12       -7.722609   1.000000
   13       -7.492406   1.000000
   14       -7.210219   1.000000
   15       -7.110584   1.000000
   16       -6.683938   1.000000
   17       -6.621661   1.000000
   18       -6.508703   1.000000
   19       -6.505311   1.000000
   20       -6.386201   1.000000
   21       -5.956315   1.000000
   22       -5.952264   1.000000
   23       -5.881323   1.000000
   24       -5.621537   1.000000
   25       -5.606999   1.000000
   26       -5.477476   1.000000
   27       -5.313897   1.000000
   28       -5.182814   1.000000
   29       -5.078207   1.000000
   30       -4.873595   1.000000
   31       -4.646960   1.000000
   32       -4.375947   1.000000
   33       -3.803425   1.000000
   34       -3.785137   1.000000
   35       -3.713998   1.000000
   36       -3.683233   1.000000
   37       -3.452375   1.000000
   38       -3.291242   1.000000
   39       -3.096124   1.000000
   40       -3.058780   1.000000
   41       -2.948530   1.000000
   42       -2.825183   1.000000
   43       -2.499549   1.000000
   44       -2.400841   1.000000
   45       -2.245923   1.000000
   46       -2.238289   1.000000
   47       -2.168389   1.000000
   48       -2.137532   1.000000
   49       -1.953383   1.000000
   50       -1.942202   1.000000
   51       -1.749012   1.000000
   52       -1.744810   1.000000
   53       -1.597447   1.000000
   54       -1.569911   1.000000
   55       -1.553564   1.000000
   56       -1.466617   1.000000
   57       -1.433743   1.000000
   58       -1.338867   1.000000
   59       -1.142974   1.000000
   60       -1.141282   1.000000
   61       -1.063835   1.000000
   62       -1.041125   1.000000
   63       -1.024029   1.000000
   64       -0.934254   1.000000
   65       -0.908278   1.000000
   66       -0.866498   1.000000
   67       -0.813742   1.000000
   68       -0.679478   1.000000
   69       -0.616781   1.000000
   70       -0.568302   1.000000
   71       -0.459765   1.000000
   72       -0.379257   1.000000
   73       -0.368171   1.000000
   74       -0.217574   1.000000
   75       -0.172247   1.000000
   76        0.022128   1.000000
   77        0.186328   1.000000
   78        0.310222   1.000000
   79        0.366539   1.000000
   80        0.476380   1.000000
   81        0.539664   1.000000
   82        0.723868   1.000000
   83        0.738441   1.000000
   84        0.987610   1.000000
   85        1.185268   1.000000
   86        1.235720   1.000000
   87        1.526466   1.000000
   88        1.559629   1.000000
   89        1.609887   1.000000
   90        1.655625   1.000000
   91        1.658611   1.000000
   92        1.754030   1.000000
   93        1.815294   1.000000
   94        1.895385   1.000000
   95        1.987414   1.000000
   96        2.316193   1.003183
   97        2.679622   0.836044
   98        2.702353   0.761310