   76   76   85    1
  0.2054817E+02  0.1053953E-08  0.6141200E-09  0.2412750E-08  0.5000000E-15
   1.0000000000000000E-004
  CAR 
 Name                                    
    286     23    184

  0.3742002E-15  0.3742002E-15  0.1262379E-14  0.2222222E-01
    1      -13.784080   1.000000
    2      -12.638592   1.000000
    3      -12.627955   1.000000
    4      -12.619886   1.000000
    5      -11.676557   1.000000
    6      -11.601819   1.000000
    7      -11.456254   1.000000
    8      -11.395673   1.000000
    9      -11.291039   1.000000
   10      -11.197705   1.000000
   11      -11.140364   1.000000
   12      -10.918265   1.000000
   13      -10.849088   1.000000
   14      -10.529146   1.000000
   15      -10.499997   1.000000
   16      -10.470847   1.000000
   17      -10.410259   1.000000
   18      -10.067687   1.000000
   19      -10.000711   1.000000
   20       -9.879759   1.000000
   21       -9.864292   1.000000
   22       -9.583106   1.000000
   23       -9.457061   1.000000
   24       -9.363264   1.000000
   25       -9.309113   1.000000
   26       -8.858788   1.000000
   27       -8.823251   1.000000
   28       -8.719937   1.000000
   29       -8.275035   1.000000
   30       -8.240647   1.000000
   31       -8.000711   1.000000
   32       -7.712734   1.000000
   33       -7.668156   1.000000
   34       -7.664991   1.000000
   35       -7.613249   1.000000
   36       -7.556446   1.000000
   37       -7.081431   1.000000
   38       -6.921603   1.000000
   39       -6.758396   1.000000
   40       -6.667823   1.000000
   41       -6.589967   1.000000
   42       -6.584873   1.000000
   43       -6.475388   1.000000
   44       -6.443902   1.000000
   45       -6.387438   1.000000
   46       -6.327418   1.000000
   47       -6.271902   1.000000
   48       -6.167984   1.000000
   49       -6.114760   1.000000
   50       -6.039978   1.000000
   51       -6.005290   1.000000
   52       -5.865862   1.000000
   53       -5.837700   1.000000
   54       -5.705673   1.000000
   55       -5.651487   1.000000
   56       -5.551746   1.000000
   57       -5.410374   1.000000
   58       -5.400554   1.000000
   59       -5.324377   1.000000
   60       -5.254651   1.000000
   61       -5.172749   1.000000
   62       -5.153345   1.000000
   63       -5.070217   1.000000
   64       -4.961324   1.000000
   65       -4.824368   1.000000
   66       -4.556249   1.000000
   67       -4.543109   1.000000
   68       -4.536323   1.000000
   69       -4.535105   1.000000
   70       -4.460029   1.000000
   71       -4.419801   1.000000
   72       -4.323908   1.000000
   73       -4.274944   1.000000
   74       -4.204766   1.000000
   75       -4.048707   1.000000
   76       -3.968955   1.000000
   77       -3.905565   1.000000
   78       -3.903412   1.000000
   79       -3.820391   1.000000
   80       -3.777182   1.000000
   81       -3.770797   1.000000
   82       -3.754587   1.000000
   83       -3.748940   1.000000
   84       -3.706110   1.000000
   85       -3.656765   1.000000
   86       -3.610016   1.000000
   87       -3.524955   1.000000
   88       -3.484714   1.000000
   89       -3.452637   1.000000
   90       -3.401746   1.000000
   91       -3.390275   1.000000
   92       -3.099563   1.000000
   93       -3.080463   1.000000
   94       -3.047294   1.000000
   95       -2.923323   1.000000
   96       -2.922395   1.000000
   97       -2.884200   1.000000
   98       -2.865253   1.000000
   99       -2.667625   1.000000
  100       -2.598134   1.000000
  101       -2.552229   1.000000
  102       -2.497465   1.000000
  103       -2.484578   1.000000
  104       -2.390821   1.000000
  105       -2.244715   1.000000
  106       -2.209708   1.000000
  107       -2.203788   1.000000
  108       -2.164422   1.000000
  109       -2.104016   1.000000
  110       -2.050686   1.000000
  111       -2.000560   1.000000
  112       -1.964821   1.000000
  113       -1.951341   1.000000
  114       -1.751242   1.000000
  115       -1.750572   1.000000
  116       -1.561432   1.000000
  117       -1.556049   1.000000
  118       -1.453617   1.000000
  119       -1.428443   1.000000
  120       -1.334557   1.000000
  121       -1.289955   1.000000
  122       -1.250263   1.000000
  123       -1.039308   1.000000
  124       -0.895536   1.000000
  125       -0.846504   1.000000
  126       -0.665705   1.000000
  127       -0.608074   1.000000
  128       -0.496638   1.000000
  129       -0.328908   1.000000
  130       -0.290578   1.000000
  131       -0.209765   1.000000
  132       -0.033386   1.000000
  133       -0.020439   1.000000
  134        0.001092   1.000000
  135        0.216769   1.000000
  136        0.356465   1.000034
  137        0.374285   1.000096
  138        0.399354   1.000364
  139        0.466630   1.006310
  140        0.473706   1.007985
  141        0.490041   1.013049
  142        0.584478   1.010106
  143        0.653273   0.669290
  144        0.722529   0.136653
  145        0.776200  -0.027491
  146        0.776658  -0.027892
  147        0.816344  -0.030784
  148        0.840496  -0.019984
  149        0.932931  -0.000761
  150        0.997792  -0.000023
  151        1.037363  -0.000002
  152        1.183299  -0.000000
  153        1.262911  -0.000000
  154        1.343996  -0.000000
  155        1.370995  -0.000000
  156        1.416461  -0.000000
  157        1.445963  -0.000000
  158        1.454028  -0.000000
  159        1.501034  -0.000000
  160        1.520934  -0.000000
  161        1.534267  -0.000000
  162        1.593216  -0.000000
  163        1.593820  -0.000000
  164        1.666497  -0.000000
  165        1.740324  -0.000000
  166        1.809390  -0.000000
  167        1.844733  -0.000000
  168        1.871599  -0.000000
  169        1.894006  -0.000000
  170        1.919303  -0.000000
  171        1.928641  -0.000000
  172        1.937463  -0.000000
  173        1.990187  -0.000000
  174        2.007157  -0.000000
  175        2.075996  -0.000000
  176        2.106061  -0.000000
  177        2.199339  -0.000000
  178        2.215047  -0.000000
  179        2.220929  -0.000000
  180        2.236378  -0.000000
  181        2.247731  -0.000000
  182        2.255226  -0.000000
  183        2.297878  -0.000000
  184        2.420252  -0.000000

  0.2000000E+00  0.3742002E-15  0.1262379E-14  0.4444444E-01
    1      -13.735670   1.000000
    2      -13.031764   1.000000
    3      -12.583986   1.000000
    4      -12.166230   1.000000
    5      -11.933559   1.000000
    6      -11.591658   1.000000
    7      -11.441562   1.000000
    8      -11.259194   1.000000
    9      -11.166300   1.000000
   10      -11.137819   1.000000
   11      -11.134439   1.000000
   12      -10.958209   1.000000
   13      -10.767133   1.000000
   14      -10.596024   1.000000
   15      -10.594951   1.000000
   16      -10.442134   1.000000
   17      -10.440131   1.000000
   18      -10.423080   1.000000
   19      -10.000033   1.000000
   20       -9.963439   1.000000
   21       -9.863509   1.000000
   22       -9.486484   1.000000
   23       -9.328916   1.000000
   24       -9.312378   1.000000
   25       -9.272250   1.000000
   26       -9.056220   1.000000
   27       -8.728956   1.000000
   28       -8.396168   1.000000
   29       -8.272709   1.000000
   30       -8.183134   1.000000
   31       -8.065555   1.000000
   32       -7.934869   1.000000
   33       -7.734016   1.000000
   34       -7.580449   1.000000
   35       -7.513999   1.000000
   36       -7.352561   1.000000
   37       -7.324854   1.000000
   38       -7.025829   1.000000
   39       -6.945227   1.000000
   40       -6.711051   1.000000
   41       -6.703665   1.000000
   42       -6.548495   1.000000
   43       -6.545684   1.000000
   44       -6.491884   1.000000
   45       -6.460405   1.000000
   46       -6.340120   1.000000
   47       -6.087797   1.000000
   48       -6.029560   1.000000
   49       -6.011331   1.000000
   50       -5.994625   1.000000
   51       -5.903527   1.000000
   52       -5.856540   1.000000
   53       -5.842428   1.000000
   54       -5.738873   1.000000
   55       -5.581154   1.000000
   56       -5.438173   1.000000
   57       -5.431225   1.000000
   58       -5.323280   1.000000
   59       -5.307572   1.000000
   60       -5.243580   1.000000
   61       -5.207037   1.000000
   62       -5.160355   1.000000
   63       -5.132705   1.000000
   64       -5.006945   1.000000
   65       -4.878978   1.000000
   66       -4.593639   1.000000
   67       -4.537441   1.000000
   68       -4.526577   1.000000
   69       -4.521700   1.000000
   70       -4.485690   1.000000
   71       -4.422505   1.000000
   72       -4.386748   1.000000
   73       -4.152900   1.000000
   74       -4.147490   1.000000
   75       -4.037341   1.000000
   76       -4.035307   1.000000
   77       -3.960954   1.000000
   78       -3.949975   1.000000
   79       -3.814537   1.000000
   80       -3.813082   1.000000
   81       -3.774594   1.000000
   82       -3.773286   1.000000
   83       -3.766900   1.000000
   84       -3.748542   1.000000
   85       -3.654759   1.000000
   86       -3.493945   1.000000
   87       -3.479964   1.000000
   88       -3.433973   1.000000
   89       -3.432885   1.000000
   90       -3.415910   1.000000
   91       -3.297216   1.000000
   92       -3.218556   1.000000
   93       -3.122826   1.000000
   94       -3.009378   1.000000
   95       -2.991778   1.000000
   96       -2.988289   1.000000
   97       -2.961448   1.000000
   98       -2.843109   1.000000
   99       -2.666453   1.000000
  100       -2.606229   1.000000
  101       -2.583970   1.000000
  102       -2.498668   1.000000
  103       -2.473839   1.000000
  104       -2.370615   1.000000
  105       -2.329072   1.000000
  106       -2.231221   1.000000
  107       -2.090077   1.000000
  108       -2.077661   1.000000
  109       -2.045678   1.000000
  110       -2.030683   1.000000
  111       -1.996855   1.000000
  112       -1.947093   1.000000
  113       -1.876106   1.000000
  114       -1.728742   1.000000
  115       -1.640674   1.000000
  116       -1.593150   1.000000
  117       -1.591750   1.000000
  118       -1.464945   1.000000
  119       -1.328759   1.000000
  120       -1.307271   1.000000
  121       -1.282095   1.000000
  122       -1.170617   1.000000
  123       -1.123292   1.000000
  124       -0.944346   1.000000
  125       -0.928360   1.000000
  126       -0.700852   1.000000
  127       -0.675196   1.000000
  128       -0.382134   1.000000
  129       -0.368958   1.000000
  130       -0.355197   1.000000
  131       -0.321467   1.000000
  132       -0.295419   1.000000
  133       -0.087377   1.000000
  134       -0.015292   1.000000
  135        0.093206   1.000000
  136        0.210502   1.000000
  137        0.317071   1.000003
  138        0.429491   1.001491
  139        0.440778   1.002395
  140        0.528591   1.029747
  141        0.548994   1.035380
  142        0.693255   0.338328
  143        0.774383  -0.025777
  144        0.809547  -0.033190
  145        0.814071  -0.031652
  146        0.830852  -0.024405
  147        0.850277  -0.015799
  148        0.850778  -0.015597
  149        0.864576  -0.010629
  150        0.947988  -0.000366
  151        1.001929  -0.000018
  152        1.282361  -0.000000
  153        1.332354  -0.000000
  154        1.367757  -0.000000
  155        1.391730  -0.000000
  156        1.440995  -0.000000
  157        1.464550  -0.000000
  158        1.476825  -0.000000
  159        1.509957  -0.000000
  160        1.557071  -0.000000
  161        1.568853  -0.000000
  162        1.652696  -0.000000
  163        1.663620  -0.000000
  164        1.672088  -0.000000
  165        1.756787  -0.000000
  166        1.808595  -0.000000
  167        1.840371  -0.000000
  168        1.862759  -0.000000
  169        1.909263  -0.000000
  170        1.915784  -0.000000
  171        1.972061  -0.000000
  172        2.010151  -0.000000
  173        2.019529  -0.000000
  174        2.041587  -0.000000
  175        2.078616  -0.000000
  176        2.084892  -0.000000
  177        2.134239  -0.000000
  178        2.190837  -0.000000
  179        2.214659  -0.000000
  180        2.230440  -0.000000
  181        2.240645  -0.000000
  182        2.343033  -0.000000
  183        2.369159  -0.000000
  184        2.373838  -0.000000

  0.4000000E+00  0.3742002E-15  0.1262379E-14  0.4444444E-01
    1      -13.591568   1.000000
    2      -13.355103   1.000000
    3      -12.453355   1.000000
    4      -12.241373   1.000000
    5      -11.617422   1.000000
    6      -11.560874   1.000000
    7      -11.509318   1.000000
    8      -11.196853   1.000000
    9      -11.117038   1.000000
   10      -11.096646   1.000000
   11      -11.022947   1.000000
   12      -10.981436   1.000000
   13      -10.904285   1.000000
   14      -10.746365   1.000000
   15      -10.641405   1.000000
   16      -10.522978   1.000000
   17      -10.479317   1.000000
   18      -10.353143   1.000000
   19      -10.199638   1.000000
   20      -10.108884   1.000000
   21       -9.734711   1.000000
   22       -9.637894   1.000000
   23       -9.380867   1.000000
   24       -9.329376   1.000000
   25       -9.122905   1.000000
   26       -8.834369   1.000000
   27       -8.413571   1.000000
   28       -8.337652   1.000000
   29       -8.297680   1.000000
   30       -8.043532   1.000000
   31       -8.039623   1.000000
   32       -8.000047   1.000000
   33       -7.740934   1.000000
   34       -7.697893   1.000000
   35       -7.562340   1.000000
   36       -7.429243   1.000000
   37       -7.343687   1.000000
   38       -7.243978   1.000000
   39       -7.060397   1.000000
   40       -7.015253   1.000000
   41       -6.769275   1.000000
   42       -6.537483   1.000000
   43       -6.422323   1.000000
   44       -6.396410   1.000000
   45       -6.379094   1.000000
   46       -6.303366   1.000000
   47       -6.176323   1.000000
   48       -6.024980   1.000000
   49       -6.002621   1.000000
   50       -5.928742   1.000000
   51       -5.842959   1.000000
   52       -5.792127   1.000000
   53       -5.703746   1.000000
   54       -5.697724   1.000000
   55       -5.533651   1.000000
   56       -5.507839   1.000000
   57       -5.495376   1.000000
   58       -5.354569   1.000000
   59       -5.263943   1.000000
   60       -5.202145   1.000000
   61       -5.172135   1.000000
   62       -5.142673   1.000000
   63       -4.963000   1.000000
   64       -4.839794   1.000000
   65       -4.783632   1.000000
   66       -4.717479   1.000000
   67       -4.706739   1.000000
   68       -4.611078   1.000000
   69       -4.548276   1.000000
   70       -4.531287   1.000000
   71       -4.464437   1.000000
   72       -4.319833   1.000000
   73       -4.241972   1.000000
   74       -4.129220   1.000000
   75       -4.055572   1.000000
   76       -3.986592   1.000000
   77       -3.944280   1.000000
   78       -3.917043   1.000000
   79       -3.912072   1.000000
   80       -3.865797   1.000000
   81       -3.782288   1.000000
   82       -3.773345   1.000000
   83       -3.771958   1.000000
   84       -3.745181   1.000000
   85       -3.597601   1.000000
   86       -3.554106   1.000000
   87       -3.511575   1.000000
   88       -3.416922   1.000000
   89       -3.298847   1.000000
   90       -3.272662   1.000000
   91       -3.224651   1.000000
   92       -3.198863   1.000000
   93       -3.165105   1.000000
   94       -3.155876   1.000000
   95       -3.048550   1.000000
   96       -3.038200   1.000000
   97       -3.035432   1.000000
   98       -2.809512   1.000000
   99       -2.806208   1.000000
  100       -2.754460   1.000000
  101       -2.653537   1.000000
  102       -2.512117   1.000000
  103       -2.409461   1.000000
  104       -2.359432   1.000000
  105       -2.242514   1.000000
  106       -2.129308   1.000000
  107       -2.122554   1.000000
  108       -2.080899   1.000000
  109       -1.981997   1.000000
  110       -1.974251   1.000000
  111       -1.891040   1.000000
  112       -1.738273   1.000000
  113       -1.682288   1.000000
  114       -1.667655   1.000000
  115       -1.645141   1.000000
  116       -1.635265   1.000000
  117       -1.617639   1.000000
  118       -1.470008   1.000000
  119       -1.328571   1.000000
  120       -1.225688   1.000000
  121       -1.197020   1.000000
  122       -1.057090   1.000000
  123       -1.055206   1.000000
  124       -1.047313   1.000000
  125       -0.984830   1.000000
  126       -0.808485   1.000000
  127       -0.806824   1.000000
  128       -0.728112   1.000000
  129       -0.692237   1.000000
  130       -0.482341   1.000000
  131       -0.305621   1.000000
  132       -0.304262   1.000000
  133       -0.137706   1.000000
  134       -0.016756   1.000000
  135        0.020444   1.000000
  136        0.184111   1.000000
  137        0.255308   1.000000
  138        0.402343   1.000422
  139        0.406050   1.000507
  140        0.468361   1.006692
  141        0.524551   1.028010
  142        0.662411   0.595240
  143        0.762170  -0.008574
  144        0.783260  -0.032392
  145        0.867313  -0.009786
  146        0.871572  -0.008571
  147        0.895862  -0.003670
  148        0.914275  -0.001749
  149        0.961903  -0.000178
  150        1.119180  -0.000000
  151        1.132222  -0.000000
  152        1.209290  -0.000000
  153        1.286586  -0.000000
  154        1.404240  -0.000000
  155        1.489737  -0.000000
  156        1.521637  -0.000000
  157        1.565478  -0.000000
  158        1.636325  -0.000000
  159        1.648420  -0.000000
  160        1.652824  -0.000000
  161        1.664003  -0.000000
  162        1.679667  -0.000000
  163        1.704471  -0.000000
  164        1.717502  -0.000000
  165        1.787760  -0.000000
  166        1.818723  -0.000000
  167        1.822476  -0.000000
  168        1.832140  -0.000000
  169        1.912628  -0.000000
  170        1.924482  -0.000000
  171        1.960196  -0.000000
  172        1.967221  -0.000000
  173        1.980916  -0.000000
  174        2.090067  -0.000000
  175        2.115797  -0.000000
  176        2.135609  -0.000000
  177        2.147258  -0.000000
  178        2.164760  -0.000000
  179        2.193092  -0.000000
  180        2.194677  -0.000000
  181        2.252386  -0.000000
  182        2.280649  -0.000000
  183        2.394454  -0.000000
  184        2.443336  -0.000000

  0.3742002E-15  0.1111111E+00  0.1262379E-14  0.4444444E-01
    1      -13.737199   1.000000
    2      -12.598904   1.000000
    3      -12.588733   1.000000
    4      -12.586416   1.000000
    5      -11.712004   1.000000
    6      -11.644203   1.000000
    7      -11.433939   1.000000
    8      -11.425644   1.000000
    9      -11.264292   1.000000
   10      -11.238704   1.000000
   11      -11.189353   1.000000
   12      -10.925158   1.000000
   13      -10.859710   1.000000
   14      -10.501045   1.000000
   15      -10.500293   1.000000
   16      -10.484232   1.000000
   17      -10.436666   1.000000
   18      -10.038081   1.000000
   19       -9.975515   1.000000
   20       -9.872959   1.000000
   21       -9.860285   1.000000
   22       -9.556849   1.000000
   23       -9.492084   1.000000
   24       -9.338758   1.000000
   25       -9.325744   1.000000
   26       -8.879422   1.000000
   27       -8.800203   1.000000
   28       -8.741769   1.000000
   29       -8.280469   1.000000
   30       -8.220183   1.000000
   31       -7.867382   1.000000
   32       -7.728265   1.000000
   33       -7.700519   1.000000
   34       -7.679909   1.000000
   35       -7.664520   1.000000
   36       -7.539193   1.000000
   37       -7.192977   1.000000
   38       -6.897919   1.000000
   39       -6.748351   1.000000
   40       -6.737333   1.000000
   41       -6.527107   1.000000
   42       -6.524576   1.000000
   43       -6.485698   1.000000
   44       -6.445805   1.000000
   45       -6.392311   1.000000
   46       -6.304306   1.000000
   47       -6.288297   1.000000
   48       -6.142632   1.000000
   49       -6.135976   1.000000
   50       -6.039844   1.000000
   51       -6.015208   1.000000
   52       -5.922456   1.000000
   53       -5.794705   1.000000
   54       -5.657513   1.000000
   55       -5.650593   1.000000
   56       -5.511228   1.000000
   57       -5.432117   1.000000
   58       -5.390191   1.000000
   59       -5.311831   1.000000
   60       -5.229333   1.000000
   61       -5.108899   1.000000
   62       -5.087221   1.000000
   63       -5.033007   1.000000
   64       -4.982958   1.000000
   65       -4.835460   1.000000
   66       -4.626302   1.000000
   67       -4.520319   1.000000
   68       -4.513725   1.000000
   69       -4.466825   1.000000
   70       -4.459412   1.000000
   71       -4.408223   1.000000
   72       -4.286545   1.000000
   73       -4.246423   1.000000
   74       -4.207572   1.000000
   75       -4.074676   1.000000
   76       -3.994348   1.000000
   77       -3.926752   1.000000
   78       -3.903197   1.000000
   79       -3.894874   1.000000
   80       -3.847581   1.000000
   81       -3.840332   1.000000
   82       -3.836494   1.000000
   83       -3.815128   1.000000
   84       -3.709707   1.000000
   85       -3.612611   1.000000
   86       -3.612557   1.000000
   87       -3.531552   1.000000
   88       -3.514663   1.000000
   89       -3.437066   1.000000
   90       -3.393670   1.000000
   91       -3.363430   1.000000
   92       -3.265799   1.000000
   93       -3.100552   1.000000
   94       -3.048220   1.000000
   95       -2.955773   1.000000
   96       -2.851845   1.000000
   97       -2.839975   1.000000
   98       -2.723163   1.000000
   99       -2.662861   1.000000
  100       -2.615718   1.000000
  101       -2.547801   1.000000
  102       -2.511392   1.000000
  103       -2.470560   1.000000
  104       -2.458967   1.000000
  105       -2.340545   1.000000
  106       -2.199385   1.000000
  107       -2.184356   1.000000
  108       -2.176676   1.000000
  109       -2.116070   1.000000
  110       -2.064729   1.000000
  111       -2.040386   1.000000
  112       -2.007931   1.000000
  113       -1.868021   1.000000
  114       -1.798839   1.000000
  115       -1.746767   1.000000
  116       -1.584600   1.000000
  117       -1.582887   1.000000
  118       -1.408282   1.000000
  119       -1.397588   1.000000
  120       -1.352356   1.000000
  121       -1.227249   1.000000
  122       -1.157471   1.000000
  123       -1.058340   1.000000
  124       -1.032437   1.000000
  125       -0.814335   1.000000
  126       -0.726036   1.000000
  127       -0.542218   1.000000
  128       -0.523140   1.000000
  129       -0.516433   1.000000
  130       -0.304255   1.000000
  131       -0.159772   1.000000
  132       -0.104463   1.000000
  133       -0.059665   1.000000
  134        0.065554   1.000000
  135        0.213135   1.000000
  136        0.214931   1.000000
  137        0.335595   1.000009
  138        0.354379   1.000030
  139        0.425633   1.001259
  140        0.468156   1.006646
  141        0.511413   1.021991
  142        0.571841   1.026992
  143        0.601850   0.966315
  144        0.755586   0.005391
  145        0.763325  -0.010663
  146        0.784810  -0.033127
  147        0.871704  -0.008535
  148        0.944455  -0.000437
  149        0.951347  -0.000309
  150        1.058298  -0.000000
  151        1.159473  -0.000000
  152        1.208331  -0.000000
  153        1.260243  -0.000000
  154        1.302327  -0.000000
  155        1.377426  -0.000000
  156        1.429639  -0.000000
  157        1.452977  -0.000000
  158        1.463925  -0.000000
  159        1.467582  -0.000000
  160        1.605307  -0.000000
  161        1.610676  -0.000000
  162        1.641055  -0.000000
  163        1.647195  -0.000000
  164        1.647264  -0.000000
  165        1.748104  -0.000000
  166        1.769650  -0.000000
  167        1.797152  -0.000000
  168        1.824411  -0.000000
  169        1.918809  -0.000000
  170        1.936306  -0.000000
  171        1.941528  -0.000000
  172        1.978662  -0.000000
  173        1.980485  -0.000000
  174        2.049020  -0.000000
  175        2.050672  -0.000000
  176        2.077732  -0.000000
  177        2.102593  -0.000000
  178        2.159978  -0.000000
  179        2.168812  -0.000000
  180        2.203151  -0.000000
  181        2.205880  -0.000000
  182        2.225431  -0.000000
  183        2.324356  -0.000000
  184        2.351683  -0.000000

  0.2000000E+00  0.1111111E+00  0.1262379E-14  0.4444444E-01
    1      -13.689189   1.000000
    2      -12.991400   1.000000
    3      -12.545185   1.000000
    4      -12.133904   1.000000
    5      -11.902112   1.000000
    6      -11.693578   1.000000
    7      -11.496506   1.000000
    8      -11.232923   1.000000
    9      -11.181109   1.000000
   10      -11.160739   1.000000
   11      -11.137878   1.000000
   12      -10.980906   1.000000
   13      -10.767012   1.000000
   14      -10.597238   1.000000
   15      -10.567356   1.000000
   16      -10.461718   1.000000
   17      -10.458022   1.000000
   18      -10.396751   1.000000
   19      -10.002153   1.000000
   20       -9.958619   1.000000
   21       -9.845365   1.000000
   22       -9.479238   1.000000
   23       -9.341605   1.000000
   24       -9.289920   1.000000
   25       -9.262709   1.000000
   26       -9.066340   1.000000
   27       -8.742784   1.000000
   28       -8.392913   1.000000
   29       -8.276380   1.000000
   30       -8.177076   1.000000
   31       -8.058239   1.000000
   32       -7.800626   1.000000
   33       -7.792084   1.000000
   34       -7.638614   1.000000
   35       -7.496692   1.000000
   36       -7.403394   1.000000
   37       -7.336565   1.000000
   38       -6.957060   1.000000
   39       -6.936987   1.000000
   40       -6.757401   1.000000
   41       -6.675477   1.000000
   42       -6.543042   1.000000
   43       -6.542381   1.000000
   44       -6.469231   1.000000
   45       -6.448088   1.000000
   46       -6.441599   1.000000
   47       -6.178311   1.000000
   48       -6.118774   1.000000
   49       -6.045405   1.000000
   50       -5.920514   1.000000
   51       -5.903406   1.000000
   52       -5.791165   1.000000
   53       -5.727840   1.000000
   54       -5.726556   1.000000
   55       -5.603172   1.000000
   56       -5.453396   1.000000
   57       -5.371574   1.000000
   58       -5.325687   1.000000
   59       -5.320092   1.000000
   60       -5.216371   1.000000
   61       -5.160996   1.000000
   62       -5.098222   1.000000
   63       -5.091144   1.000000
   64       -5.004415   1.000000
   65       -4.853918   1.000000
   66       -4.587480   1.000000
   67       -4.549902   1.000000
   68       -4.544601   1.000000
   69       -4.489145   1.000000
   70       -4.408239   1.000000
   71       -4.391942   1.000000
   72       -4.364952   1.000000
   73       -4.182013   1.000000
   74       -4.163691   1.000000
   75       -4.060325   1.000000
   76       -4.003093   1.000000
   77       -3.979535   1.000000
   78       -3.954085   1.000000
   79       -3.953963   1.000000
   80       -3.870302   1.000000
   81       -3.850841   1.000000
   82       -3.838024   1.000000
   83       -3.786122   1.000000
   84       -3.685006   1.000000
   85       -3.680788   1.000000
   86       -3.548165   1.000000
   87       -3.489203   1.000000
   88       -3.461442   1.000000
   89       -3.437550   1.000000
   90       -3.378366   1.000000
   91       -3.278687   1.000000
   92       -3.278075   1.000000
   93       -3.099335   1.000000
   94       -3.068684   1.000000
   95       -3.045905   1.000000
   96       -2.905923   1.000000
   97       -2.841566   1.000000
   98       -2.826488   1.000000
   99       -2.718323   1.000000
  100       -2.673410   1.000000
  101       -2.597458   1.000000
  102       -2.483541   1.000000
  103       -2.447372   1.000000
  104       -2.386651   1.000000
  105       -2.359998   1.000000
  106       -2.325258   1.000000
  107       -2.092462   1.000000
  108       -2.065703   1.000000
  109       -2.033149   1.000000
  110       -2.019470   1.000000
  111       -1.986250   1.000000
  112       -1.903008   1.000000
  113       -1.884211   1.000000
  114       -1.761417   1.000000
  115       -1.721908   1.000000
  116       -1.604000   1.000000
  117       -1.599198   1.000000
  118       -1.500346   1.000000
  119       -1.341124   1.000000
  120       -1.311411   1.000000
  121       -1.196166   1.000000
  122       -1.159417   1.000000
  123       -1.156961   1.000000
  124       -1.083720   1.000000
  125       -0.893964   1.000000
  126       -0.761732   1.000000
  127       -0.633372   1.000000
  128       -0.606097   1.000000
  129       -0.354305   1.000000
  130       -0.280823   1.000000
  131       -0.273228   1.000000
  132       -0.122803   1.000000
  133       -0.083246   1.000000
  134        0.061200   1.000000
  135        0.159225   1.000000
  136        0.201886   1.000000
  137        0.244186   1.000000
  138        0.289168   1.000000
  139        0.351880   1.000026
  140        0.487898   1.012287
  141        0.614296   0.917527
  142        0.647428   0.714391
  143        0.653964   0.663825
  144        0.689767   0.366326
  145        0.755090   0.006592
  146        0.810093  -0.033020
  147        0.822859  -0.028045
  148        1.000619  -0.000019
  149        1.028388  -0.000003
  150        1.072063  -0.000000
  151        1.099221  -0.000000
  152        1.231550  -0.000000
  153        1.262436  -0.000000
  154        1.383623  -0.000000
  155        1.456963  -0.000000
  156        1.484578  -0.000000
  157        1.497526  -0.000000