 running on   72 total cores
 distrk:  each k-point on   72 cores,    1 groups
 distr:  one band on    9 cores,    8 groups
 using from now: INCAR     
 vasp.5.4.4.18Apr17-6-g9f103f2a35 (build Dec  7 2020 12:43:57) complex           
 POSCAR found type information on POSCAR  Mo V  B  H 
 POSCAR found :  4 types and      76 ions
 scaLAPACK will be used
 LDA part: xc-table for Pade appr. of Perdew
 POSCAR, INCAR and KPOINTS ok, starting setup
 resort distribution
 resort distribution
 resort distribution
 resort distribution
 resort distribution
 resort distribution
 resort distribution
 resort distribution
 resort distribution
 resort distribution
 resort distribution
 resort distribution
 resort distribution
 resort distribution
 resort distribution
 resort distribution
 resort distribution
 resort distribution
 resort distribution
 resort distribution
 resort distribution
 resort distribution
 resort distribution
 resort distribution
 resort distribution
 resort distribution
 resort distribution
 resort distribution
 resort distribution
 resort distribution
 resort distribution
 resort distribution
 resort distribution
 resort distribution
 resort distribution
 resort distribution
 resort distribution
 resort distribution
 resort distribution
 resort distribution
 resort distribution
 resort distribution
 resort distribution
 resort distribution
 resort distribution
 resort distribution
 resort distribution
 resort distribution
 resort distribution
 resort distribution
 resort distribution
 resort distribution
 resort distribution
 resort distribution
 resort distribution
 resort distribution
 resort distribution
 resort distribution
 resort distribution
 resort distribution
 resort distribution
 resort distribution
 resort distribution
 resort distribution
 resort distribution
 resort distribution
 resort distribution
 resort distribution
 resort distribution
 resort distribution
 resort distribution
 resort distribution
 FFT: planning ...
 WAVECAR not read
 augmentation electrons   286.03530376484991     
 soft         electrons   0.0000000000000000     
 augmentation electrons   286.03530376484991     
 soft         electrons   0.0000000000000000     
 augmentation electrons   286.03530376484991     
 soft         electrons   0.0000000000000000     
 augmentation electrons   286.03530376484991     
 soft         electrons   0.0000000000000000     
 augmentation electrons   286.03530376484991     
 soft         electrons   0.0000000000000000     
 augmentation electrons   286.03530376484991     
 soft         electrons   0.0000000000000000     
 augmentation electrons   286.03530376484991     
 soft         electrons   0.0000000000000000     
 augmentation electrons   286.03530376484991     
 soft         electrons   0.0000000000000000     
 augmentation electrons   286.03530376484991     
 soft         electrons   0.0000000000000000     
 augmentation electrons   286.03530376484991     
 soft         electrons   0.0000000000000000     
 augmentation electrons   286.03530376484991     
 soft         electrons   0.0000000000000000     
 augmentation electrons   286.03530376484991     
 soft         electrons   0.0000000000000000     
 augmentation electrons   286.03530376484991     
 soft         electrons   0.0000000000000000     
 augmentation electrons   286.03530376484991     
 soft         electrons   0.0000000000000000     
 augmentation electrons   286.03530376484991     
 soft         electrons   0.0000000000000000     
 augmentation electrons   286.03530376484991     
 soft         electrons   0.0000000000000000     
 augmentation electrons   286.03530376484991     
 soft         electrons   0.0000000000000000     
 augmentation electrons   286.03530376484991     
 soft         electrons   0.0000000000000000     
 augmentation electrons   286.03530376484991     
 soft         electrons   0.0000000000000000     
 augmentation electrons   286.03530376484991     
 soft         electrons   0.0000000000000000     
 augmentation electrons   286.03530376484991     
 soft         electrons   0.0000000000000000     
 augmentation electrons   286.03530376484991     
 soft         electrons   0.0000000000000000     
 augmentation electrons   286.03530376484991     
 soft         electrons   0.0000000000000000     
 augmentation electrons   286.03530376484991     
 soft         electrons   0.0000000000000000     
 augmentation electrons   286.03530376484991     
 soft         electrons   0.0000000000000000     
 augmentation electrons   286.03530376484991     
 soft         electrons   0.0000000000000000     
 augmentation electrons   286.03530376484991     
 soft         electrons   0.0000000000000000     
 augmentation electrons   286.03530376484991     
 soft         electrons   0.0000000000000000     
 augmentation electrons   286.03530376484991     
 soft         electrons   0.0000000000000000     
 augmentation electrons   286.03530376484991     
 soft         electrons   0.0000000000000000     
 augmentation electrons   286.03530376484991     
 soft         electrons   0.0000000000000000     
 augmentation electrons   286.03530376484991     
 soft         electrons   0.0000000000000000     
 augmentation electrons   286.03530376484991     
 soft         electrons   0.0000000000000000     
 augmentation electrons   286.03530376484991     
 soft         electrons   0.0000000000000000     
 augmentation electrons   286.03530376484991     
 soft         electrons   0.0000000000000000     
 augmentation electrons   286.03530376484991     
 soft         electrons   0.0000000000000000     
 augmentation electrons   286.03530376484991     
 soft         electrons   0.0000000000000000     
 augmentation electrons   286.03530376484991     
 soft         electrons   0.0000000000000000     
 augmentation electrons   286.03530376484991     
 soft         electrons   0.0000000000000000     
 augmentation electrons   286.03530376484991     
 soft         electrons   0.0000000000000000     
 augmentation electrons   286.03530376484991     
 soft         electrons   0.0000000000000000     
 augmentation electrons   286.03530376484991     
 soft         electrons   0.0000000000000000     
 augmentation electrons   286.03530376484991     
 soft         electrons   0.0000000000000000     
 augmentation electrons   286.03530376484991     
 soft         electrons   0.0000000000000000     
 augmentation electrons   286.03530376484991     
 soft         electrons   0.0000000000000000     
 augmentation electrons   286.03530376484991     
 soft         electrons   0.0000000000000000     
 augmentation electrons   286.03530376484991     
 soft         electrons   0.0000000000000000     
 augmentation electrons   286.03530376484991     
 soft         electrons   0.0000000000000000     
 augmentation electrons   286.03530376484991     
 soft         electrons   0.0000000000000000     
 augmentation electrons   286.03530376484991     
 soft         electrons   0.0000000000000000     
 augmentation electrons   286.03530376484991     
 soft         electrons   0.0000000000000000     
 augmentation electrons   286.03530376484991     
 soft         electrons   0.0000000000000000     
 augmentation electrons   286.03530376484991     
 soft         electrons   0.0000000000000000     
 augmentation electrons   286.03530376484991     
 soft         electrons   0.0000000000000000     
 augmentation electrons   286.03530376484991     
 soft         electrons   0.0000000000000000     
 augmentation electrons   286.03530376484991     
 soft         electrons   0.0000000000000000     
 augmentation electrons   286.03530376484991     
 soft         electrons   0.0000000000000000     
 augmentation electrons   286.03530376484991     
 soft         electrons   0.0000000000000000     
 augmentation electrons   286.03530376484991     
 soft         electrons   0.0000000000000000     
 augmentation electrons   286.03530376484991     
 soft         electrons   0.0000000000000000     
 augmentation electrons   286.03530376484991     
 soft         electrons   0.0000000000000000     
 augmentation electrons   286.03530376484991     
 soft         electrons   0.0000000000000000     
 augmentation electrons   286.03530376484991     
 soft         electrons   0.0000000000000000     
 augmentation electrons   286.03530376484991     
 soft         electrons   0.0000000000000000     
 augmentation electrons   286.03530376484991     
 soft         electrons   0.0000000000000000     
 augmentation electrons   286.03530376484991     
 soft         electrons   0.0000000000000000     
 augmentation electrons   286.03530376484991     
 soft         electrons   0.0000000000000000     
 augmentation electrons   286.03530376484991     
 soft         electrons   0.0000000000000000     
 augmentation electrons   286.03530376484991     
 soft         electrons   0.0000000000000000     
 augmentation electrons   286.03530376484991     
 soft         electrons   0.0000000000000000     
 augmentation electrons   286.03530376484991     
 soft         electrons   0.0000000000000000     
 augmentation electrons   286.03530376484991     
 soft         electrons   0.0000000000000000     
 total        electrons   286.03530376484991     
 total        electrons   286.03530376484991     
 total        electrons   286.03530376484991     
 total        electrons   286.03530376484991     
 total        electrons   286.03530376484991     
 total        electrons   286.03530376484991     
 total        electrons   286.03530376484991     
 total        electrons   286.03530376484991     
 total        electrons   286.03530376484991     
 total        electrons   286.03530376484991     
 total        electrons   286.03530376484991     
 total        electrons   286.03530376484991     
 total        electrons   286.03530376484991     
 total        electrons   286.03530376484991     
 total        electrons   286.03530376484991     
 total        electrons   286.03530376484991     
 total        electrons   286.03530376484991     
 total        electrons   286.03530376484991     
 total        electrons   286.03530376484991     
 total        electrons   286.03530376484991     
 total        electrons   286.03530376484991     
 total        electrons   286.03530376484991     
 total        electrons   286.03530376484991     
 total        electrons   286.03530376484991     
 total        electrons   286.03530376484991     
 total        electrons   286.03530376484991     
 total        electrons   286.03530376484991     
 total        electrons   286.03530376484991     
 total        electrons   286.03530376484991     
 total        electrons   286.03530376484991     
 total        electrons   286.03530376484991     
 total        electrons   286.03530376484991     
 total        electrons   286.03530376484991     
 total        electrons   286.03530376484991     
 total        electrons   286.03530376484991     
 total        electrons   286.03530376484991     
 total        electrons   286.03530376484991     
 total        electrons   286.03530376484991     
 total        electrons   286.03530376484991     
 total        electrons   286.03530376484991     
 total        electrons   286.03530376484991     
 total        electrons   286.03530376484991     
 total        electrons   286.03530376484991     
 total        electrons   286.03530376484991     
 total        electrons   286.03530376484991     
 total        electrons   286.03530376484991     
 total        electrons   286.03530376484991     
 total        electrons   286.03530376484991     
 total        electrons   286.03530376484991     
 total        electrons   286.03530376484991     
 total        electrons   286.03530376484991     
 total        electrons   286.03530376484991     
 total        electrons   286.03530376484991     
 total        electrons   286.03530376484991     
 total        electrons   286.03530376484991     
 total        electrons   286.03530376484991     
 total        electrons   286.03530376484991     
 total        electrons   286.03530376484991     
 total        electrons   286.03530376484991     
 total        electrons   286.03530376484991     
 total        electrons   286.03530376484991     
 total        electrons   286.03530376484991     
 total        electrons   286.03530376484991     
 total        electrons   286.03530376484991     
 total        electrons   286.03530376484991     
 total        electrons   286.03530376484991     
 total        electrons   286.03530376484991     
 total        electrons   286.03530376484991     
 total        electrons   286.03530376484991     
 total        electrons   286.03530376484991     
 total        electrons   286.03530376484991     
 total        electrons   286.03530376484991     
 augmentation electrons   1046.9897952800966     
 soft         electrons   0.0000000000000000     
 augmentation electrons   1046.9897952800966     
 soft         electrons   0.0000000000000000     
 augmentation electrons   1046.9897952800966     
 soft         electrons   0.0000000000000000     
 augmentation electrons   1046.9897952800966     
 soft         electrons   0.0000000000000000     
 augmentation electrons   1046.9897952800966     
 soft         electrons   0.0000000000000000     
 augmentation electrons   1046.9897952800966     
 soft         electrons   0.0000000000000000     
 augmentation electrons   1046.9897952800966     
 soft         electrons   0.0000000000000000     
 augmentation electrons   1046.9897952800966     
 soft         electrons   0.0000000000000000     
 augmentation electrons   1046.9897952800966     
 soft         electrons   0.0000000000000000     
 augmentation electrons   1046.9897952800966     
 soft         electrons   0.0000000000000000     
 augmentation electrons   1046.9897952800966     
 soft         electrons   0.0000000000000000     
 augmentation electrons   1046.9897952800966     
 soft         electrons   0.0000000000000000     
 augmentation electrons   1046.9897952800966     
 soft         electrons   0.0000000000000000     
 augmentation electrons   1046.9897952800966     
 soft         electrons   0.0000000000000000     
 augmentation electrons   1046.9897952800966     
 soft         electrons   0.0000000000000000     
 augmentation electrons   1046.9897952800966     
 soft         electrons   0.0000000000000000     
 augmentation electrons   1046.9897952800966     
 soft         electrons   0.0000000000000000     
 augmentation electrons   1046.9897952800966     
 soft         electrons   0.0000000000000000     
 augmentation electrons   1046.9897952800966     
 soft         electrons   0.0000000000000000     
 augmentation electrons   1046.9897952800966     
 soft         electrons   0.0000000000000000     
 augmentation electrons   1046.9897952800966     
 soft         electrons   0.0000000000000000     
 augmentation electrons   1046.9897952800966     
 soft         electrons   0.0000000000000000     
 augmentation electrons   1046.9897952800966     
 soft         electrons   0.0000000000000000     
 augmentation electrons   1046.9897952800966     
 soft         electrons   0.0000000000000000     
 augmentation electrons   1046.9897952800966     
 soft         electrons   0.0000000000000000     
 augmentation electrons   1046.9897952800966     
 soft         electrons   0.0000000000000000     
 augmentation electrons   1046.9897952800966     
 soft         electrons   0.0000000000000000     
 augmentation electrons   1046.9897952800966     
 soft         electrons   0.0000000000000000     
 augmentation electrons   1046.9897952800966     
 soft         electrons   0.0000000000000000     
 augmentation electrons   1046.9897952800966     
 soft         electrons   0.0000000000000000     
 augmentation electrons   1046.9897952800966     
 soft         electrons   0.0000000000000000     
 augmentation electrons   1046.9897952800966     
 soft         electrons   0.0000000000000000     
 augmentation electrons   1046.9897952800966     
 soft         electrons   0.0000000000000000     
 augmentation electrons   1046.9897952800966     
 soft         electrons   0.0000000000000000     
 augmentation electrons   1046.9897952800966     
 soft         electrons   0.0000000000000000     
 augmentation electrons   1046.9897952800966     
 soft         electrons   0.0000000000000000     
 augmentation electrons   1046.9897952800966     
 soft         electrons   0.0000000000000000     
 augmentation electrons   1046.9897952800966     
 soft         electrons   0.0000000000000000     
 augmentation electrons   1046.9897952800966     
 soft         electrons   0.0000000000000000     
 augmentation electrons   1046.9897952800966     
 soft         electrons   0.0000000000000000     
 augmentation electrons   1046.9897952800966     
 soft         electrons   0.0000000000000000     
 augmentation electrons   1046.9897952800966     
 soft         electrons   0.0000000000000000     
 augmentation electrons   1046.9897952800966     
 soft         electrons   0.0000000000000000     
 augmentation electrons   1046.9897952800966     
 soft         electrons   0.0000000000000000     
 augmentation electrons   1046.9897952800966     
 soft         electrons   0.0000000000000000     
 augmentation electrons   1046.9897952800966     
 soft         electrons   0.0000000000000000     
 augmentation electrons   1046.9897952800966     
 soft         electrons   0.0000000000000000     
 augmentation electrons   1046.9897952800966     
 soft         electrons   0.0000000000000000     
 augmentation electrons   1046.9897952800966     
 soft         electrons   0.0000000000000000     
 augmentation electrons   1046.9897952800966     
 soft         electrons   0.0000000000000000     
 augmentation electrons   1046.9897952800966     
 soft         electrons   0.0000000000000000     
 augmentation electrons   1046.9897952800966     
 soft         electrons   0.0000000000000000     
 augmentation electrons   1046.9897952800966     
 soft         electrons   0.0000000000000000     
 augmentation electrons   1046.9897952800966     
 soft         electrons   0.0000000000000000     
 augmentation electrons   1046.9897952800966     
 soft         electrons   0.0000000000000000     
 augmentation electrons   1046.9897952800966     
 soft         electrons   0.0000000000000000     
 augmentation electrons   1046.9897952800966     
 soft         electrons   0.0000000000000000     
 augmentation electrons   1046.9897952800966     
 soft         electrons   0.0000000000000000     
 augmentation electrons   1046.9897952800966     
 soft         electrons   0.0000000000000000     
 augmentation electrons   1046.9897952800966     
 soft         electrons   0.0000000000000000     
 augmentation electrons   1046.9897952800966     
 soft         electrons   0.0000000000000000     
 augmentation electrons   1046.9897952800966     
 soft         electrons   0.0000000000000000     
 augmentation electrons   1046.9897952800966     
 soft         electrons   0.0000000000000000     
 augmentation electrons   1046.9897952800966     
 soft         electrons   0.0000000000000000     
 augmentation electrons   1046.9897952800966     
 soft         electrons   0.0000000000000000     
 augmentation electrons   1046.9897952800966     
 soft         electrons   0.0000000000000000     
 augmentation electrons   1046.9897952800966     
 soft         electrons   0.0000000000000000     
 augmentation electrons   1046.9897952800966     
 soft         electrons   0.0000000000000000     
 augmentation electrons   1046.9897952800966     
 soft         electrons   0.0000000000000000     
 augmentation electrons   1046.9897952800966     
 soft         electrons   0.0000000000000000     
 augmentation electrons   1046.9897952800966     
 soft         electrons   0.0000000000000000     
 augmentation electrons   1046.9897952800966     
 soft         electrons   0.0000000000000000     
 total        electrons   1046.9897952800966     
 total        electrons   1046.9897952800966     
 total        electrons   1046.9897952800966     
 total        electrons   1046.9897952800966     
 total        electrons   1046.9897952800966     
 total        electrons   1046.9897952800966     
 total        electrons   1046.9897952800966     
 total        electrons   1046.9897952800966     
 total        electrons   1046.9897952800966     
 total        electrons   1046.9897952800966     
 total        electrons   1046.9897952800966     
 total        electrons   1046.9897952800966     
 total        electrons   1046.9897952800966     
 total        electrons   1046.9897952800966     
 total        electrons   1046.9897952800966     
 total        electrons   1046.9897952800966     
 total        electrons   1046.9897952800966     
 total        electrons   1046.9897952800966     
 total        electrons   1046.9897952800966     
 total        electrons   1046.9897952800966     
 total        electrons   1046.9897952800966     
 total        electrons   1046.9897952800966     
 total        electrons   1046.9897952800966     
 total        electrons   1046.9897952800966     
 total        electrons   1046.9897952800966     
 total        electrons   1046.9897952800966     
 total        electrons   1046.9897952800966     
 total        electrons   1046.9897952800966     
 total        electrons   1046.9897952800966     
 total        electrons   1046.9897952800966     
 total        electrons   1046.9897952800966     
 total        electrons   1046.9897952800966     
 total        electrons   1046.9897952800966     
 total        electrons   1046.9897952800966     
 total        electrons   1046.9897952800966     
 total        electrons   1046.9897952800966     
 total        electrons   1046.9897952800966     
 total        electrons   1046.9897952800966     
 total        electrons   1046.9897952800966     
 total        electrons   1046.9897952800966     
 total        electrons   1046.9897952800966     
 total        electrons   1046.9897952800966     
 total        electrons   1046.9897952800966     
 total        electrons   1046.9897952800966     
 total        electrons   1046.9897952800966     
 total        electrons   1046.9897952800966     
 total        electrons   1046.9897952800966     
 total        electrons   1046.9897952800966     
 total        electrons   1046.9897952800966     
 total        electrons   1046.9897952800966     
 total        electrons   1046.9897952800966     
 total        electrons   1046.9897952800966     
 total        electrons   1046.9897952800966     
 total        electrons   1046.9897952800966     
 total        electrons   1046.9897952800966     
 total        electrons   1046.9897952800966     
 total        electrons   1046.9897952800966     
 total        electrons   1046.9897952800966     
 total        electrons   1046.9897952800966     
 total        electrons   1046.9897952800966     
 total        electrons   1046.9897952800966     
 total        electrons   1046.9897952800966     
 total        electrons   1046.9897952800966     
 total        electrons   1046.9897952800966     
 total        electrons   1046.9897952800966     
 total        electrons   1046.9897952800966     
 total        electrons   1046.9897952800966     
 total        electrons   1046.9897952800966     
 total        electrons   1046.9897952800966     
 total        electrons   1046.9897952800966     
 total        electrons   1046.9897952800966     
 total        electrons   1046.9897952800966     
 entering main loop
       N       E                     dE             d eps       ncg     rms          rms(c)
DAV:   1     0.248912198525E+04    0.24891E+04   -0.10456E+05  8464   0.128E+03
DAV:   2    -0.216058559309E+03   -0.27052E+04   -0.25150E+04  9720   0.317E+02
DAV:   3    -0.660257344247E+03   -0.44420E+03   -0.42230E+03 11944   0.148E+02
DAV:   4    -0.698552230917E+03   -0.38295E+02   -0.36458E+02 13736   0.471E+01
DAV:   5    -0.701135066767E+03   -0.25828E+01   -0.24779E+01 14400   0.113E+01    0.147E+02
RMM:   6    -0.650955004520E+03    0.50180E+02   -0.11763E+03 11581   0.881E+01    0.725E+01
RMM:   7    -0.724406668436E+03   -0.73452E+02   -0.38159E+02 11631   0.366E+01    0.534E+01
RMM:   8    -0.611924194481E+03    0.11248E+03   -0.79441E+01 10254   0.264E+01    0.307E+01
RMM:   9    -0.618325992810E+03   -0.64018E+01   -0.50876E+01 10145   0.186E+01    0.287E+01
RMM:  10    -0.597610828081E+03    0.20715E+02   -0.17642E+01 10983   0.958E+00    0.182E+01
RMM:  11    -0.597651579684E+03   -0.40752E-01   -0.29615E+00 10020   0.441E+00    0.166E+01
RMM:  12    -0.597777955298E+03   -0.12638E+00   -0.13219E+00 11246   0.190E+00    0.156E+01
RMM:  13    -0.596992237630E+03    0.78572E+00   -0.36813E+00  8607   0.621E+00    0.122E+01
RMM:  14    -0.597829380666E+03   -0.83714E+00   -0.92780E+00  8609   0.979E+00    0.115E+01
RMM:  15    -0.596880693246E+03    0.94869E+00   -0.21360E+00 10456   0.330E+00    0.687E+00
RMM:  16    -0.596510264935E+03    0.37043E+00   -0.56238E-01  9157   0.220E+00    0.441E+00
RMM:  17    -0.596397892970E+03    0.11237E+00   -0.48435E-01 10643   0.166E+00    0.292E+00
RMM:  18    -0.596332959509E+03    0.64933E-01   -0.49100E-01 11465   0.130E+00    0.127E+00
RMM:  19    -0.596338843102E+03   -0.58836E-02   -0.12749E-01 10242   0.831E-01    0.120E+00
RMM:  20    -0.596331289406E+03    0.75537E-02   -0.35837E-02 10171   0.428E-01    0.970E-01
RMM:  21    -0.596320190007E+03    0.11099E-01   -0.45926E-02  8938   0.679E-01    0.667E-01
RMM:  22    -0.596318109369E+03    0.20806E-02   -0.22442E-02 11233   0.287E-01    0.379E-01
RMM:  23    -0.596317754278E+03    0.35509E-03   -0.66661E-03 10092   0.207E-01    0.214E-01
RMM:  24    -0.596319023110E+03   -0.12688E-02   -0.39717E-03  8982   0.170E-01    0.187E-01
RMM:  25    -0.596322355119E+03   -0.33320E-02   -0.83615E-03  8489   0.323E-01    0.421E-01
RMM:  26    -0.596320746345E+03    0.16088E-02   -0.16452E-03  8513   0.154E-01    0.122E-01
RMM:  27    -0.596321633170E+03   -0.88683E-03   -0.14594E-03  9529   0.831E-02    0.543E-02
RMM:  28    -0.596322199086E+03   -0.56592E-03   -0.58115E-04 11043   0.270E-02    0.507E-02
RMM:  29    -0.596322381716E+03   -0.18263E-03   -0.11234E-04 10397   0.170E-02    0.324E-02
RMM:  30    -0.596322544916E+03   -0.16320E-03   -0.48518E-05  9715   0.981E-03    0.163E-02
RMM:  31    -0.596322632921E+03   -0.88005E-04   -0.51127E-05  9938   0.131E-02    0.199E-02
RMM:  32    -0.596322730240E+03   -0.97319E-04   -0.16754E-05  7109   0.132E-02    0.119E-02
RMM:  33    -0.596322844819E+03   -0.11458E-03   -0.15575E-05  6961   0.974E-03    0.633E-03
RMM:  34    -0.596322942363E+03   -0.97545E-04   -0.12496E-05  7157   0.854E-03    0.156E-02
RMM:  35    -0.596323062006E+03   -0.11964E-03   -0.11512E-05  6564   0.103E-02    0.390E-03
RMM:  36    -0.596323130064E+03   -0.68059E-04   -0.85523E-06  6504   0.324E-03    0.274E-03
RMM:  37    -0.596323158295E+03   -0.28231E-04   -0.22413E-06  5623   0.342E-03    0.219E-03
RMM:  38    -0.596323177557E+03   -0.19262E-04   -0.17531E-06  5470   0.233E-03    0.196E-03
RMM:  39    -0.596323189612E+03   -0.12055E-04   -0.13154E-06  5337   0.235E-03    0.116E-03
RMM:  40    -0.596323191942E+03   -0.23299E-05   -0.45663E-07  4909   0.193E-03    0.111E-03
RMM:  41    -0.596323193951E+03   -0.20082E-05   -0.34321E-07  4547   0.160E-03    0.519E-04
RMM:  42    -0.596323194901E+03   -0.95028E-06   -0.21231E-07  3144   0.942E-04
   1 F= -.59632319E+03 E0= -.59632691E+03  d E =-.596323E+03
 curvature:   0.00 expect dE= 0.000E+00 dE for cont linesearch  0.000E+00
 trial: gam= 0.00000 g(F)=  0.430E-02 g(S)=  0.000E+00 ort = 0.000E+00 (trialstep = 0.100E+01)
 search vector abs. value=  0.430E-02
 bond charge predicted
       N       E                     dE             d eps       ncg     rms          rms(c)
DAV:   1    -0.596327057866E+03   -0.38639E-02   -0.66494E-02  9448   0.507E-01    0.552E-02
RMM:   2    -0.596327166499E+03   -0.10863E-03   -0.11408E-03 10846   0.815E-02    0.420E-02
RMM:   3    -0.596327219924E+03   -0.53425E-04   -0.29468E-04  9457   0.535E-02    0.644E-02
RMM:   4    -0.596327198074E+03    0.21850E-04   -0.10582E-04  9289   0.344E-02    0.432E-02
RMM:   5    -0.596327183719E+03    0.14356E-04   -0.43023E-05  8954   0.194E-02    0.244E-02
RMM:   6    -0.596327179639E+03    0.40800E-05   -0.25615E-05  8828   0.103E-02    0.182E-02
RMM:   7    -0.596327176166E+03    0.34729E-05   -0.93519E-06  6513   0.982E-03    0.105E-02
RMM:   8    -0.596327175662E+03    0.50399E-06   -0.59971E-06  6475   0.686E-03
   2 F= -.59632718E+03 E0= -.59633089E+03  d E =-.398076E-02
 ZBRENT: can't locate minimum, use default step
 trial-energy change:   -0.003981  1 .order   -0.003975   -0.004299   -0.003651
 step:   4.0000(harm=  6.6300)  dis= 0.04660  next Energy=  -596.337447 (dE=-0.143E-01)
 bond charge predicted
       N       E                     dE             d eps       ncg     rms          rms(c)
DAV:   1    -0.596334339719E+03   -0.71636E-02   -0.60087E-01  9136   0.152E+00    0.168E-01
RMM:   2    -0.596335268880E+03   -0.92916E-03   -0.98212E-03 10680   0.247E-01    0.123E-01
RMM:   3    -0.596335790732E+03   -0.52185E-03   -0.27559E-03  9488   0.164E-01    0.197E-01
RMM:   4    -0.596335535890E+03    0.25484E-03   -0.97157E-04  9169   0.107E-01    0.127E-01
RMM:   5    -0.596335432309E+03    0.10358E-03   -0.41095E-04  9371   0.621E-02    0.759E-02
RMM:   6    -0.596335418333E+03    0.13977E-04   -0.24735E-04 11077   0.300E-02    0.654E-02
RMM:   7    -0.596335364119E+03    0.54214E-04   -0.97316E-05  9348   0.284E-02    0.304E-02
RMM:   8    -0.596335358863E+03    0.52564E-05   -0.57903E-05  9709   0.182E-02    0.208E-02
RMM:   9    -0.596335354204E+03    0.46591E-05   -0.21266E-05  8095   0.117E-02    0.863E-03
RMM:  10    -0.596335355183E+03   -0.97981E-06   -0.10156E-05  7067   0.713E-03    0.885E-03
RMM:  11    -0.596335354497E+03    0.68696E-06   -0.24802E-06  5574   0.575E-03
   3 F= -.59633535E+03 E0= -.59633906E+03  d E =-.121596E-01
 curvature:  -2.59 expect dE=-0.933E-02 dE for cont linesearch -0.195E-02
 ZBRENT: increasing intervall
 opt :  10.0000  next Energy=  -596.335040 (dE=-0.118E-01)
 bond charge predicted
       N       E                     dE             d eps       ncg     rms          rms(c)
DAV:   1    -0.596331686507E+03    0.36687E-02   -0.24095E+00  8680   0.304E+00    0.340E-01
RMM:   2    -0.596335527707E+03   -0.38412E-02   -0.40523E-02 10857   0.492E-01    0.252E-01
RMM:   3    -0.596337973724E+03   -0.24460E-02   -0.11656E-02  9540   0.336E-01    0.419E-01
RMM:   4    -0.596337654920E+03    0.31880E-03   -0.42846E-03  9627   0.208E-01    0.362E-01
RMM:   5    -0.596336038228E+03    0.16167E-02   -0.16998E-03  9217   0.138E-01    0.115E-01
RMM:   6    -0.596336036276E+03    0.19520E-05   -0.10889E-03 10987   0.665E-02    0.114E-01
RMM:   7    -0.596335909212E+03    0.12706E-03   -0.39244E-04  9245   0.600E-02    0.670E-02
RMM:   8    -0.596335888002E+03    0.21209E-04   -0.24039E-04 10337   0.374E-02    0.467E-02
RMM:   9    -0.596335864060E+03    0.23943E-04   -0.84163E-05  9531   0.242E-02    0.191E-02
RMM:  10    -0.596335867750E+03   -0.36899E-05   -0.46275E-05  9410   0.136E-02    0.181E-02
RMM:  11    -0.596335864958E+03    0.27916E-05   -0.11200E-05  6831   0.919E-03    0.797E-03
RMM:  12    -0.596335865082E+03   -0.12391E-06   -0.64332E-06  6328   0.598E-03
   4 F= -.59633587E+03 E0= -.59633956E+03  d E =-.126702E-01
 curvature:   0.42 expect dE= 0.767E-02 dE for cont linesearch  0.236E-03
 ZBRENT: bracketing found
 ZBRENT: interpolating
 opt :   7.2159  next Energy=  -596.338033 (dE=-0.148E-01)
 bond charge predicted
       N       E                     dE             d eps       ncg     rms          rms(c)
DAV:   1    -0.596337202693E+03   -0.13377E-02   -0.51935E-01  8784   0.141E+00    0.159E-01
RMM:   2    -0.596338057867E+03   -0.85517E-03   -0.89943E-03 10559   0.236E-01    0.118E-01
RMM:   3    -0.596338661116E+03   -0.60325E-03   -0.24356E-03  9696   0.152E-01    0.205E-01
RMM:   4    -0.596338675162E+03   -0.14047E-04   -0.11150E-03 10287   0.928E-02    0.201E-01
RMM:   5    -0.596338143735E+03    0.53143E-03   -0.51176E-04  8963   0.772E-02    0.456E-02
RMM:   6    -0.596338170667E+03   -0.26932E-04   -0.31736E-04 10861   0.351E-02    0.584E-02
RMM:   7    -0.596338136330E+03    0.34337E-04   -0.92953E-05  9108   0.295E-02    0.306E-02
RMM:   8    -0.596338133433E+03    0.28969E-05   -0.55194E-05  9400   0.175E-02    0.230E-02
RMM:   9    -0.596338127231E+03    0.62015E-05   -0.17840E-05  7619   0.112E-02    0.853E-03
RMM:  10    -0.596338127828E+03   -0.59702E-06   -0.94716E-06  6888   0.712E-03
   5 F= -.59633813E+03 E0= -.59634183E+03  d E =-.149329E-01
 curvature:  -3.84 expect dE=-0.358E-01 dE for cont linesearch -0.196E-05
 trial: gam= 2.17895 g(F)=  0.932E-02 g(S)=  0.000E+00 ort =-0.468E-04 (trialstep = 0.327E+00)
 search vector abs. value=  0.295E-01
 bond charge predicted
       N       E                     dE             d eps       ncg     rms          rms(c)
DAV:   1    -0.596340920025E+03   -0.27928E-02   -0.48825E-02  8896   0.433E-01    0.467E-02
RMM:   2    -0.596340994142E+03   -0.74116E-04   -0.76730E-04  9824   0.757E-02    0.341E-02
RMM:   3    -0.596341039738E+03   -0.45596E-04   -0.23456E-04 10078   0.445E-02    0.532E-02
RMM:   4    -0.596341034382E+03    0.53559E-05   -0.79239E-05  9315   0.278E-02    0.494E-02
RMM:   5    -0.596341007935E+03    0.26446E-04   -0.37940E-05  8615   0.198E-02    0.181E-02
RMM:   6    -0.596341008973E+03   -0.10371E-05   -0.24213E-05  8591   0.108E-02    0.183E-02
RMM:   7    -0.596341005585E+03    0.33873E-05   -0.83902E-06  6390   0.913E-03    0.106E-02
RMM:   8    -0.596341004487E+03    0.10987E-05   -0.37390E-06  5948   0.634E-03    0.502E-03
RMM:   9    -0.596341004261E+03    0.22608E-06   -0.11455E-06  5176   0.365E-03
   6 F= -.59634100E+03 E0= -.59634470E+03  d E =-.287643E-02
 ZBRENT: can't locate minimum, use default step
 trial-energy change:   -0.002876  1 .order   -0.002877   -0.003011   -0.002742
 step:   1.3064(harm=  3.6611)  dis= 0.04001  next Energy=  -596.355004 (dE=-0.169E-01)
 bond charge predicted
       N       E                     dE             d eps       ncg     rms          rms(c)
DAV:   1    -0.596347279040E+03   -0.62746E-02   -0.43927E-01  8608   0.130E+00    0.139E-01
RMM:   2    -0.596347949380E+03   -0.67034E-03   -0.68598E-03 10733   0.213E-01    0.101E-01
RMM:   3    -0.596348452801E+03   -0.50342E-03   -0.21036E-03  9879   0.138E-01    0.180E-01
RMM:   4    -0.596348419028E+03    0.33773E-04   -0.75941E-04  9947   0.803E-02    0.164E-01
RMM:   5    -0.596348057501E+03    0.36153E-03   -0.33667E-04  9079   0.625E-02    0.406E-02
RMM:   6    -0.596348056346E+03    0.11546E-05   -0.18487E-04 10964   0.259E-02    0.322E-02
RMM:   7    -0.596348048911E+03    0.74353E-05   -0.56898E-05  8976   0.228E-02    0.251E-02
RMM:   8    -0.596348046035E+03    0.28761E-05   -0.27865E-05  8330   0.131E-02    0.190E-02
RMM:   9    -0.596348042459E+03    0.35754E-05   -0.93693E-06  6534   0.897E-03    0.772E-03
RMM:  10    -0.596348042905E+03   -0.44570E-06   -0.60557E-06  6288   0.552E-03
   7 F= -.59634804E+03 E0= -.59635173E+03  d E =-.991508E-02
 curvature:  -2.94 expect dE=-0.110E-01 dE for cont linesearch -0.345E-02
 ZBRENT: increasing intervall
 opt :   3.2659  next Energy=  -596.354664 (dE=-0.165E-01)
 bond charge predicted
       N       E                     dE             d eps       ncg     rms          rms(c)
DAV:   1    -0.596351113317E+03   -0.30709E-02   -0.17429E+00  8544   0.258E+00    0.274E-01
RMM:   2    -0.596353822088E+03   -0.27088E-02   -0.27612E-02 10670   0.429E-01    0.200E-01
RMM:   3    -0.596356103863E+03   -0.22818E-02   -0.82189E-03 10045   0.269E-01    0.381E-01
RMM:   4    -0.596355736954E+03    0.36691E-03   -0.33613E-03 10351   0.155E-01    0.340E-01
RMM:   5    -0.596354223812E+03    0.15131E-02   -0.16901E-03  8903   0.139E-01    0.801E-02
RMM:   6    -0.596354284681E+03   -0.60869E-04   -0.95537E-04 10871   0.598E-02    0.926E-02
RMM:   7    -0.596354214388E+03    0.70293E-04   -0.27094E-04  9382   0.495E-02    0.546E-02
RMM:   8    -0.596354201890E+03    0.12498E-04   -0.14759E-04 10267   0.284E-02    0.377E-02
RMM:   9    -0.596354185058E+03    0.16832E-04   -0.53313E-05  8828   0.189E-02    0.132E-02
RMM:  10    -0.596354187790E+03   -0.27317E-05   -0.28411E-05  8456   0.965E-03    0.125E-02
RMM:  11    -0.596354186471E+03    0.13184E-05   -0.63011E-06  6239   0.712E-03    0.569E-03
RMM:  12    -0.596354186795E+03   -0.32384E-06   -0.33940E-06  5834   0.481E-03
   8 F= -.59635419E+03 E0= -.59635786E+03  d E =-.160590E-01
 curvature:  -5.64 expect dE=-0.248E-02 dE for cont linesearch -0.565E-05
 ZBRENT: extrapolating
 opt :   3.3249  next Energy=  -596.354192 (dE=-0.161E-01)
 bond charge predicted
       N       E                     dE             d eps       ncg     rms          rms(c)
DAV:   1    -0.596354189521E+03   -0.30496E-05   -0.15968E-03 10080   0.797E-02    0.894E-03
RMM:   2    -0.596354193949E+03   -0.44278E-05   -0.34401E-05  9055   0.159E-02    0.971E-03
RMM:   3    -0.596354194199E+03   -0.25040E-06   -0.73710E-06  6825   0.890E-03    0.934E-03
RMM:   4    -0.596354194783E+03   -0.58423E-06   -0.40889E-06  5994   0.575E-03    0.107E-02
RMM:   5    -0.596354194198E+03    0.58510E-06   -0.20960E-06  5479   0.550E-03
   9 F= -.59635419E+03 E0= -.59635787E+03  d E =-.160664E-01
 curvature:  -5.06 expect dE=-0.231E-02 dE for cont linesearch -0.237E-07
 trial: gam= 0.04611 g(F)=  0.455E-03 g(S)=  0.000E+00 ort =-0.118E-04 (trialstep = 0.926E+00)
 search vector abs. value=  0.517E-03
 bond charge predicted
       N       E                     dE             d eps       ncg     rms          rms(c)
DAV:   1    -0.596354493520E+03   -0.29874E-03   -0.70636E-03  8872   0.167E-01    0.233E-02
RMM:   2    -0.596354516194E+03   -0.22674E-04   -0.21934E-04 10299   0.347E-02    0.268E-02
RMM:   3    -0.596354519464E+03   -0.32700E-05   -0.43282E-05  8882   0.219E-02    0.283E-02
RMM:   4    -0.596354524931E+03   -0.54675E-05   -0.26091E-05  8964   0.129E-02    0.323E-02
RMM:   5    -0.596354511914E+03    0.13017E-04   -0.10615E-05  6750   0.112E-02    0.897E-03
RMM:   6    -0.596354514947E+03   -0.30331E-05   -0.10721E-05  6887   0.890E-03    0.170E-02
RMM:   7    -0.596354512013E+03    0.29348E-05   -0.34318E-06  5826   0.754E-03    0.363E-03
RMM:   8    -0.596354511925E+03    0.87271E-07   -0.79994E-07  5021   0.279E-03
  10 F= -.59635451E+03 E0= -.59635819E+03  d E =-.317727E-03
 trial-energy change:   -0.000318  1 .order   -0.000317   -0.000421   -0.000212
 step:   1.8616(harm=  1.8616)  dis= 0.00326  next Energy=  -596.354618 (dE=-0.423E-03)
 bond charge predicted
       N       E                     dE             d eps       ncg     rms          rms(c)
DAV:   1    -0.596354600368E+03   -0.88355E-04   -0.72077E-03  8848   0.168E-01    0.232E-02
RMM:   2    -0.596354621377E+03   -0.21009E-04   -0.20895E-04  9538   0.347E-02    0.229E-02
RMM:   3    -0.596354632954E+03   -0.11576E-04   -0.46414E-05  9516   0.188E-02    0.336E-02
RMM:   4    -0.596354620768E+03    0.12185E-04   -0.16697E-05  8110   0.119E-02    0.143E-02
RMM:   5    -0.596354619540E+03    0.12279E-05   -0.86050E-06  6784   0.107E-02    0.113E-02
RMM:   6    -0.596354620002E+03   -0.46195E-06   -0.57994E-06  6398   0.802E-03
  11 F= -.59635462E+03 E0= -.59635831E+03  d E =-.425804E-03
 curvature:  -1.06 expect dE=-0.491E-04 dE for cont linesearch -0.272E-08
 trial: gam= 0.10820 g(F)=  0.464E-04 g(S)=  0.000E+00 ort =-0.115E-05 (trialstep = 0.111E+01)
 search vector abs. value=  0.522E-04
 reached required accuracy - stopping structural energy minimisation
 augmentation electrons   31.575372746701142     
 soft         electrons   254.51728229740746     
 augmentation electrons   31.575372746701142     
 soft         electrons   254.51728229740746     
 augmentation electrons   31.575372746701142     
 soft         electrons   254.51728229740746     
 augmentation electrons   31.575372746701142     
 soft         electrons   254.51728229740746     
 augmentation electrons   31.575372746701142     
 soft         electrons   254.51728229740746     
 augmentation electrons   31.575372746701142     
 soft         electrons   254.51728229740746     
 augmentation electrons   31.575372746701142     
 soft         electrons   254.51728229740746     
 augmentation electrons   31.575372746701142     
 soft         electrons   254.51728229740746     
 augmentation electrons   31.575372746701142     
 soft         electrons   254.51728229740746     
 augmentation electrons   31.575372746701142     
 soft         electrons   254.51728229740746     
 augmentation electrons   31.575372746701142     
 soft         electrons   254.51728229740746     
 augmentation electrons   31.575372746701142     
 soft         electrons   254.51728229740746     
 augmentation electrons   31.575372746701142     
 soft         electrons   254.51728229740746     
 augmentation electrons   31.575372746701142     
 soft         electrons   254.51728229740746     
 augmentation electrons   31.575372746701142     
 soft         electrons   254.51728229740746     
 augmentation electrons   31.575372746701142     
 soft         electrons   254.51728229740746     
 augmentation electrons   31.575372746701142     
 soft         electrons   254.51728229740746     
 augmentation electrons   31.575372746701142     
 soft         electrons   254.51728229740746     
 augmentation electrons   31.575372746701142     
 soft         electrons   254.51728229740746     
 augmentation electrons   31.575372746701142     
 soft         electrons   254.51728229740746     
 augmentation electrons   31.575372746701142     
 soft         electrons   254.51728229740746     
 augmentation electrons   31.575372746701142     
 soft         electrons   254.51728229740746     
 augmentation electrons   31.575372746701142     
 soft         electrons   254.51728229740746     
 augmentation electrons   31.575372746701142     
 soft         electrons   254.51728229740746     
 augmentation electrons   31.575372746701142     
 soft         electrons   254.51728229740746     
 augmentation electrons   31.575372746701142     
 soft         electrons   254.51728229740746     
 augmentation electrons   31.575372746701142     
 soft         electrons   254.51728229740746     
 augmentation electrons   31.575372746701142     
 soft         electrons   254.51728229740746     
 augmentation electrons   31.575372746701142     
 soft         electrons   254.51728229740746     
 augmentation electrons   31.575372746701142     
 soft         electrons   254.51728229740746     
 augmentation electrons   31.575372746701142     
 soft         electrons   254.51728229740746     
 augmentation electrons   31.575372746701142     
 soft         electrons   254.51728229740746     
 augmentation electrons   31.575372746701142     
 soft         electrons   254.51728229740746     
 augmentation electrons   31.575372746701142     
 soft         electrons   254.51728229740746     
 augmentation electrons   31.575372746701142     
 soft         electrons   254.51728229740746     
 augmentation electrons   31.575372746701142     
 soft         electrons   254.51728229740746     
 augmentation electrons   31.575372746701142     
 soft         electrons   254.51728229740746     
 augmentation electrons   31.575372746701142     
 soft         electrons   254.51728229740746     
 augmentation electrons   31.575372746701142     
 soft         electrons   254.51728229740746     
 augmentation electrons   31.575372746701142     
 soft         electrons   254.51728229740746     
 augmentation electrons   31.575372746701142     
 soft         electrons   254.51728229740746     
 augmentation electrons   31.575372746701142     
 soft         electrons   254.51728229740746     
 augmentation electrons   31.575372746701142     
 soft         electrons   254.51728229740746     
 augmentation electrons   31.575372746701142     
 soft         electrons   254.51728229740746     
 augmentation electrons   31.575372746701142     
 soft         electrons   254.51728229740746     
 augmentation electrons   31.575372746701142     
 soft         electrons   254.51728229740746     
 augmentation electrons   31.575372746701142     
 soft         electrons   254.51728229740746     
 augmentation electrons   31.575372746701142     
 soft         electrons   254.51728229740746     
 augmentation electrons   31.575372746701142     
 soft         electrons   254.51728229740746     
 augmentation electrons   31.575372746701142     
 soft         electrons   254.51728229740746     
 augmentation electrons   31.575372746701142     
 soft         electrons   254.51728229740746     
 augmentation electrons   31.575372746701142     
 soft         electrons   254.51728229740746     
 augmentation electrons   31.575372746701142     
 soft         electrons   254.51728229740746     
 augmentation electrons   31.575372746701142     
 soft         electrons   254.51728229740746     
 augmentation electrons   31.575372746701142     
 soft         electrons   254.51728229740746     
 augmentation electrons   31.575372746701142     
 soft         electrons   254.51728229740746     
 augmentation electrons   31.575372746701142     
 soft         electrons   254.51728229740746     
 augmentation electrons   31.575372746701142     
 soft         electrons   254.51728229740746     
 augmentation electrons   31.575372746701142     
 soft         electrons   254.51728229740746     
 augmentation electrons   31.575372746701142     
 soft         electrons   254.51728229740746     
 augmentation electrons   31.575372746701142     
 soft         electrons   254.51728229740746     
 augmentation electrons   31.575372746701142     
 soft         electrons   254.51728229740746     
 augmentation electrons   31.575372746701142     
 soft         electrons   254.51728229740746     
 augmentation electrons   31.575372746701142     
 soft         electrons   254.51728229740746     
 augmentation electrons   31.575372746701142     
 soft         electrons   254.51728229740746     
 augmentation electrons   31.575372746701142     
 soft         electrons   254.51728229740746     
 augmentation electrons   31.575372746701142     
 soft         electrons   254.51728229740746     
 augmentation electrons   31.575372746701142     
 soft         electrons   254.51728229740746     
 augmentation electrons   31.575372746701142     
 soft         electrons   254.51728229740746     
 augmentation electrons   31.575372746701142     
 soft         electrons   254.51728229740746     
 augmentation electrons   31.575372746701142     
 soft         electrons   254.51728229740746     
 augmentation electrons   31.575372746701142     
 soft         electrons   254.51728229740746     
 total        electrons   286.09265504410860     
 total        electrons   286.09265504410860     
 total        electrons   286.09265504410860     
 total        electrons   286.09265504410860     
 total        electrons   286.09265504410860     
 total        electrons   286.09265504410860     
 total        electrons   286.09265504410860     
 total        electrons   286.09265504410860     
 total        electrons   286.09265504410860     
 total        electrons   286.09265504410860     
 total        electrons   286.09265504410860     
 total        electrons   286.09265504410860     
 total        electrons   286.09265504410860     
 total        electrons   286.09265504410860     
 total        electrons   286.09265504410860     
 total        electrons   286.09265504410860     
 total        electrons   286.09265504410860     
 total        electrons   286.09265504410860     
 total        electrons   286.09265504410860     
 total        electrons   286.09265504410860     
 total        electrons   286.09265504410860     
 total        electrons   286.09265504410860     
 total        electrons   286.09265504410860     
 total        electrons   286.09265504410860     
 total        electrons   286.09265504410860     
 total        electrons   286.09265504410860     
 total        electrons   286.09265504410860     
 total        electrons   286.09265504410860     
 total        electrons   286.09265504410860     
 total        electrons   286.09265504410860     
 total        electrons   286.09265504410860     
 total        electrons   286.09265504410860     
 total        electrons   286.09265504410860     
 total        electrons   286.09265504410860     
 total        electrons   286.09265504410860     
 total        electrons   286.09265504410860     
 total        electrons   286.09265504410860     
 total        electrons   286.09265504410860     
 total        electrons   286.09265504410860     
 total        electrons   286.09265504410860     
 total        electrons   286.09265504410860     
 total        electrons   286.09265504410860     
 total        electrons   286.09265504410860     
 total        electrons   286.09265504410860     
 total        electrons   286.09265504410860     
 total        electrons   286.09265504410860     
 total        electrons   286.09265504410860     
 total        electrons   286.09265504410860     
 total        electrons   286.09265504410860     
 total        electrons   286.09265504410860     
 total        electrons   286.09265504410860     
 total        electrons   286.09265504410860     
 total        electrons   286.09265504410860     
 total        electrons   286.09265504410860     
 total        electrons   286.09265504410860     
 total        electrons   286.09265504410860     
 total        electrons   286.09265504410860     
 total        electrons   286.09265504410860     
 total        electrons   286.09265504410860     
 total        electrons   286.09265504410860     
 total        electrons   286.09265504410860     
 total        electrons   286.09265504410860     
 total        electrons   286.09265504410860     
 total        electrons   286.09265504410860     
 total        electrons   286.09265504410860     
 total        electrons   286.09265504410860     
 total        electrons   286.09265504410860     
 total        electrons   286.09265504410860     
 total        electrons   286.09265504410860     
 total        electrons   286.09265504410860     
 total        electrons   286.09265504410860     
 total        electrons   286.09265504410860     
Note: The following floating-point exceptions are signalling: IEEE_OVERFLOW_FLAG
Note: The following floating-point exceptions are signalling: IEEE_OVERFLOW_FLAG
Note: The following floating-point exceptions are signalling: IEEE_OVERFLOW_FLAG
Note: The following floating-point exceptions are signalling: IEEE_OVERFLOW_FLAG
Note: The following floating-point exceptions are signalling: IEEE_OVERFLOW_FLAG
Note: The following floating-point exceptions are signalling: IEEE_OVERFLOW_FLAG
Note: The following floating-point exceptions are signalling: IEEE_OVERFLOW_FLAG
Note: The following floating-point exceptions are signalling: IEEE_OVERFLOW_FLAG
Note: The following floating-point exceptions are signalling: IEEE_OVERFLOW_FLAG
Note: The following floating-point exceptions are signalling: IEEE_OVERFLOW_FLAG
Note: The following floating-point exceptions are signalling: IEEE_OVERFLOW_FLAG
Note: The following floating-point exceptions are signalling: IEEE_OVERFLOW_FLAG
Note: The following floating-point exceptions are signalling: IEEE_OVERFLOW_FLAG
Note: The following floating-point exceptions are signalling: IEEE_OVERFLOW_FLAG
Note: The following floating-point exceptions are signalling: IEEE_OVERFLOW_FLAG
Note: The following floating-point exceptions are signalling: IEEE_OVERFLOW_FLAG
Note: The following floating-point exceptions are signalling: IEEE_OVERFLOW_FLAG
Note: The following floating-point exceptions are signalling: IEEE_OVERFLOW_FLAG
Note: The following floating-point exceptions are signalling: IEEE_OVERFLOW_FLAG
Note: The following floating-point exceptions are signalling: IEEE_OVERFLOW_FLAG
Note: The following floating-point exceptions are signalling: IEEE_INVALID_FLAG IEEE_OVERFLOW_FLAG
Note: The following floating-point exceptions are signalling: IEEE_OVERFLOW_FLAG
Note: The following floating-point exceptions are signalling: IEEE_OVERFLOW_FLAG
Note: The following floating-point exceptions are signalling: IEEE_OVERFLOW_FLAG
Note: The following floating-point exceptions are signalling: IEEE_OVERFLOW_FLAG
Note: The following floating-point exceptions are signalling: IEEE_OVERFLOW_FLAG
Note: The following floating-point exceptions are signalling: IEEE_OVERFLOW_FLAG
Note: The following floating-point exceptions are signalling: IEEE_OVERFLOW_FLAG
Note: The following floating-point exceptions are signalling: IEEE_OVERFLOW_FLAG
Note: The following floating-point exceptions are signalling: IEEE_OVERFLOW_FLAG
Note: The following floating-point exceptions are signalling: IEEE_OVERFLOW_FLAG
Note: The following floating-point exceptions are signalling: IEEE_OVERFLOW_FLAG
Note: The following floating-point exceptions are signalling: IEEE_OVERFLOW_FLAG
Note: The following floating-point exceptions are signalling: IEEE_OVERFLOW_FLAG
Note: The following floating-point exceptions are signalling: IEEE_OVERFLOW_FLAG
Note: The following floating-point exceptions are signalling: IEEE_OVERFLOW_FLAG
Note: The following floating-point exceptions are signalling: IEEE_OVERFLOW_FLAG
Note: The following floating-point exceptions are signalling: IEEE_OVERFLOW_FLAG
Note: The following floating-point exceptions are signalling: IEEE_OVERFLOW_FLAG
Note: The following floating-point exceptions are signalling: IEEE_OVERFLOW_FLAG
Note: The following floating-point exceptions are signalling: IEEE_OVERFLOW_FLAG
Note: The following floating-point exceptions are signalling: IEEE_OVERFLOW_FLAG
Note: The following floating-point exceptions are signalling: IEEE_OVERFLOW_FLAG
Note: The following floating-point exceptions are signalling: IEEE_OVERFLOW_FLAG
Note: The following floating-point exceptions are signalling: IEEE_OVERFLOW_FLAG
Note: The following floating-point exceptions are signalling: IEEE_OVERFLOW_FLAG
Note: The following floating-point exceptions are signalling: IEEE_OVERFLOW_FLAG
Note: The following floating-point exceptions are signalling: IEEE_OVERFLOW_FLAG
Note: The following floating-point exceptions are signalling: IEEE_OVERFLOW_FLAG
Note: The following floating-point exceptions are signalling: IEEE_OVERFLOW_FLAG
Note: The following floating-point exceptions are signalling: IEEE_OVERFLOW_FLAG
Note: The following floating-point exceptions are signalling: IEEE_OVERFLOW_FLAG
Note: The following floating-point exceptions are signalling: IEEE_OVERFLOW_FLAG
Note: The following floating-point exceptions are signalling: IEEE_OVERFLOW_FLAG
Note: The following floating-point exceptions are signalling: IEEE_OVERFLOW_FLAG
Note: The following floating-point exceptions are signalling: IEEE_OVERFLOW_FLAG
Note: The following floating-point exceptions are signalling: IEEE_OVERFLOW_FLAG
Note: The following floating-point exceptions are signalling: IEEE_OVERFLOW_FLAG
Note: The following floating-point exceptions are signalling: IEEE_OVERFLOW_FLAG
Note: The following floating-point exceptions are signalling: IEEE_OVERFLOW_FLAG
Note: The following floating-point exceptions are signalling: IEEE_OVERFLOW_FLAG
Note: The following floating-point exceptions are signalling: IEEE_OVERFLOW_FLAG
Note: The following floating-point exceptions are signalling: IEEE_OVERFLOW_FLAG
Note: The following floating-point exceptions are signalling: IEEE_OVERFLOW_FLAG
Note: The following floating-point exceptions are signalling: IEEE_OVERFLOW_FLAG
Note: The following floating-point exceptions are signalling: IEEE_OVERFLOW_FLAG
Note: The following floating-point exceptions are signalling: IEEE_OVERFLOW_FLAG
Note: The following floating-point exceptions are signalling: IEEE_OVERFLOW_FLAG
Note: The following floating-point exceptions are signalling: IEEE_OVERFLOW_FLAG
Note: The following floating-point exceptions are signalling: IEEE_OVERFLOW_FLAG
Note: The following floating-point exceptions are signalling: IEEE_OVERFLOW_FLAG
Note: The following floating-point exceptions are signalling: IEEE_OVERFLOW_FLAG
