   75   75   85    1
  0.2082215E+02  0.1053953E-08  0.6141200E-09  0.2412750E-08  0.5000000E-15
   1.0000000000000000E-004
  CAR 
 Name                                    
    285     23    184

  0.3742002E-15  0.3742002E-15  0.1262379E-14  0.2222222E-01
    1      -13.893003   1.000000
    2      -12.763840   1.000000
    3      -12.705584   1.000000
    4      -12.680013   1.000000
    5      -11.718935   1.000000
    6      -11.624781   1.000000
    7      -11.564254   1.000000
    8      -11.501201   1.000000
    9      -11.332628   1.000000
   10      -11.180663   1.000000
   11      -11.141363   1.000000
   12      -11.010884   1.000000
   13      -10.961530   1.000000
   14      -10.652266   1.000000
   15      -10.447788   1.000000
   16      -10.279953   1.000000
   17      -10.091424   1.000000
   18      -10.075453   1.000000
   19       -9.795767   1.000000
   20       -9.709928   1.000000
   21       -9.579656   1.000000
   22       -9.499611   1.000000
   23       -9.431097   1.000000
   24       -9.355046   1.000000
   25       -8.826926   1.000000
   26       -8.813481   1.000000
   27       -8.722081   1.000000
   28       -8.431443   1.000000
   29       -8.416173   1.000000
   30       -8.220448   1.000000
   31       -8.119168   1.000000
   32       -7.918396   1.000000
   33       -7.680793   1.000000
   34       -7.408415   1.000000
   35       -7.335162   1.000000
   36       -7.191280   1.000000
   37       -7.164943   1.000000
   38       -7.028889   1.000000
   39       -6.908287   1.000000
   40       -6.890705   1.000000
   41       -6.714043   1.000000
   42       -6.704257   1.000000
   43       -6.655767   1.000000
   44       -6.561220   1.000000
   45       -6.504809   1.000000
   46       -6.382418   1.000000
   47       -6.324362   1.000000
   48       -6.249220   1.000000
   49       -6.154086   1.000000
   50       -6.052826   1.000000
   51       -5.843296   1.000000
   52       -5.795770   1.000000
   53       -5.769898   1.000000
   54       -5.691018   1.000000
   55       -5.595503   1.000000
   56       -5.572746   1.000000
   57       -5.495073   1.000000
   58       -5.414873   1.000000
   59       -5.330174   1.000000
   60       -5.304621   1.000000
   61       -5.195579   1.000000
   62       -5.178467   1.000000
   63       -5.135492   1.000000
   64       -4.857150   1.000000
   65       -4.827724   1.000000
   66       -4.679501   1.000000
   67       -4.648974   1.000000
   68       -4.618101   1.000000
   69       -4.572183   1.000000
   70       -4.471438   1.000000
   71       -4.374068   1.000000
   72       -4.343658   1.000000
   73       -4.246390   1.000000
   74       -4.183653   1.000000
   75       -4.166305   1.000000
   76       -4.137763   1.000000
   77       -4.122313   1.000000
   78       -4.085218   1.000000
   79       -4.009186   1.000000
   80       -3.926842   1.000000
   81       -3.906208   1.000000
   82       -3.882769   1.000000
   83       -3.843180   1.000000
   84       -3.821454   1.000000
   85       -3.809103   1.000000
   86       -3.755729   1.000000
   87       -3.729721   1.000000
   88       -3.631458   1.000000
   89       -3.576194   1.000000
   90       -3.562526   1.000000
   91       -3.498130   1.000000
   92       -3.472399   1.000000
   93       -3.458188   1.000000
   94       -3.287880   1.000000
   95       -3.199081   1.000000
   96       -3.116486   1.000000
   97       -3.071169   1.000000
   98       -2.915709   1.000000
   99       -2.907779   1.000000
  100       -2.765763   1.000000
  101       -2.720158   1.000000
  102       -2.620745   1.000000
  103       -2.517938   1.000000
  104       -2.511708   1.000000
  105       -2.361432   1.000000
  106       -2.328087   1.000000
  107       -2.325193   1.000000
  108       -2.258314   1.000000
  109       -2.124454   1.000000
  110       -2.097625   1.000000
  111       -2.045530   1.000000
  112       -1.929973   1.000000
  113       -1.877944   1.000000
  114       -1.834719   1.000000
  115       -1.798072   1.000000
  116       -1.762430   1.000000
  117       -1.757767   1.000000
  118       -1.669043   1.000000
  119       -1.638760   1.000000
  120       -1.602852   1.000000
  121       -1.517454   1.000000
  122       -1.182800   1.000000
  123       -0.974785   1.000000
  124       -0.968484   1.000000
  125       -0.856665   1.000000
  126       -0.768254   1.000000
  127       -0.664354   1.000000
  128       -0.484343   1.000000
  129       -0.403294   1.000000
  130       -0.385493   1.000000
  131       -0.179577   1.000000
  132       -0.132442   1.000000
  133       -0.078715   1.000000
  134        0.011201   1.000000
  135        0.231877   1.000152
  136        0.243133   1.000275
  137        0.272819   1.001148
  138        0.336069   1.011908
  139        0.360490   1.021903
  140        0.373430   1.027836
  141        0.444590   0.985906
  142        0.461253   0.927762
  143        0.550811   0.274538
  144        0.585458   0.069321
  145        0.613078  -0.011508
  146        0.666278  -0.030520
  147        0.680468  -0.024245
  148        0.720176  -0.008753
  149        0.830252  -0.000062
  150        0.850409  -0.000019
  151        1.034332  -0.000000
  152        1.124696  -0.000000
  153        1.132759  -0.000000
  154        1.160902  -0.000000
  155        1.237431  -0.000000
  156        1.293368  -0.000000
  157        1.346351  -0.000000
  158        1.368454  -0.000000
  159        1.384000  -0.000000
  160        1.434298  -0.000000
  161        1.442965  -0.000000
  162        1.483947  -0.000000
  163        1.548672  -0.000000
  164        1.556605  -0.000000
  165        1.633303  -0.000000
  166        1.678852  -0.000000
  167        1.715587  -0.000000
  168        1.765258  -0.000000
  169        1.771234  -0.000000
  170        1.790477  -0.000000
  171        1.806475  -0.000000
  172        1.818086  -0.000000
  173        1.823762  -0.000000
  174        1.864041  -0.000000
  175        1.889046  -0.000000
  176        1.927839  -0.000000
  177        1.965284  -0.000000
  178        1.996617  -0.000000
  179        2.038972  -0.000000
  180        2.063005  -0.000000
  181        2.232849  -0.000000
  182        2.243326  -0.000000
  183        2.255044  -0.000000
  184        2.341977  -0.000000

  0.2000000E+00  0.3742002E-15  0.1262379E-14  0.4444444E-01
    1      -13.844500   1.000000
    2      -13.138698   1.000000
    3      -12.640601   1.000000
    4      -12.253583   1.000000
    5      -11.978358   1.000000
    6      -11.708547   1.000000
    7      -11.553386   1.000000
    8      -11.260672   1.000000
    9      -11.177750   1.000000
   10      -11.149366   1.000000
   11      -11.096794   1.000000
   12      -11.044121   1.000000
   13      -10.886766   1.000000
   14      -10.719419   1.000000
   15      -10.538633   1.000000
   16      -10.515735   1.000000
   17      -10.483953   1.000000
   18       -9.815876   1.000000
   19       -9.790388   1.000000
   20       -9.700732   1.000000
   21       -9.485961   1.000000
   22       -9.470709   1.000000
   23       -9.391775   1.000000
   24       -9.353649   1.000000
   25       -9.049909   1.000000
   26       -8.880724   1.000000
   27       -8.403772   1.000000
   28       -8.309902   1.000000
   29       -8.224073   1.000000
   30       -8.176724   1.000000
   31       -8.117023   1.000000
   32       -8.051848   1.000000
   33       -7.576106   1.000000
   34       -7.514116   1.000000
   35       -7.428679   1.000000
   36       -7.312312   1.000000
   37       -7.218832   1.000000
   38       -7.132285   1.000000
   39       -7.063156   1.000000
   40       -6.905055   1.000000
   41       -6.797996   1.000000
   42       -6.707488   1.000000
   43       -6.649743   1.000000
   44       -6.626457   1.000000
   45       -6.499873   1.000000
   46       -6.307521   1.000000
   47       -6.161952   1.000000
   48       -6.153007   1.000000
   49       -6.037786   1.000000
   50       -5.991828   1.000000
   51       -5.926437   1.000000
   52       -5.853181   1.000000
   53       -5.781148   1.000000
   54       -5.612994   1.000000
   55       -5.553327   1.000000
   56       -5.526435   1.000000
   57       -5.456660   1.000000
   58       -5.399425   1.000000
   59       -5.336614   1.000000
   60       -5.286111   1.000000
   61       -5.194529   1.000000
   62       -5.172792   1.000000
   63       -5.073810   1.000000
   64       -4.999255   1.000000
   65       -4.801931   1.000000
   66       -4.746672   1.000000
   67       -4.706904   1.000000
   68       -4.654079   1.000000
   69       -4.535749   1.000000
   70       -4.488419   1.000000
   71       -4.371649   1.000000
   72       -4.286164   1.000000
   73       -4.267079   1.000000
   74       -4.162743   1.000000
   75       -4.148229   1.000000
   76       -4.130772   1.000000
   77       -4.119172   1.000000
   78       -4.035872   1.000000
   79       -3.977345   1.000000
   80       -3.916190   1.000000
   81       -3.897666   1.000000
   82       -3.892881   1.000000
   83       -3.877172   1.000000
   84       -3.869725   1.000000
   85       -3.856159   1.000000
   86       -3.690644   1.000000
   87       -3.658031   1.000000
   88       -3.606077   1.000000
   89       -3.555957   1.000000
   90       -3.542164   1.000000
   91       -3.524459   1.000000
   92       -3.488942   1.000000
   93       -3.474977   1.000000
   94       -3.456707   1.000000
   95       -3.177868   1.000000
   96       -3.142203   1.000000
   97       -3.138026   1.000000
   98       -2.955347   1.000000
   99       -2.904126   1.000000
  100       -2.837605   1.000000
  101       -2.733629   1.000000
  102       -2.704877   1.000000
  103       -2.664524   1.000000
  104       -2.327324   1.000000
  105       -2.297617   1.000000
  106       -2.246744   1.000000
  107       -2.221473   1.000000
  108       -2.190884   1.000000
  109       -2.170292   1.000000
  110       -2.093445   1.000000
  111       -1.979951   1.000000
  112       -1.939887   1.000000
  113       -1.919248   1.000000
  114       -1.804601   1.000000
  115       -1.754624   1.000000
  116       -1.716359   1.000000
  117       -1.688838   1.000000
  118       -1.672734   1.000000
  119       -1.560048   1.000000
  120       -1.512198   1.000000
  121       -1.450983   1.000000
  122       -1.174497   1.000000
  123       -1.072588   1.000000
  124       -0.998473   1.000000
  125       -0.895173   1.000000
  126       -0.852931   1.000000
  127       -0.747655   1.000000
  128       -0.516144   1.000000
  129       -0.502077   1.000000
  130       -0.454507   1.000000
  131       -0.386353   1.000000
  132       -0.254144   1.000000
  133       -0.142762   1.000000
  134       -0.064401   1.000000
  135        0.088646   1.000000
  136        0.159109   1.000002
  137        0.291342   1.002524
  138        0.330248   1.010028
  139        0.408573   1.034351
  140        0.451498   0.965056
  141        0.542400   0.339315
  142        0.565771   0.172235
  143        0.598913   0.021203
  144        0.610088  -0.005997
  145        0.641013  -0.035130
  146        0.686734  -0.021355
  147        0.717764  -0.009438
  148        0.742064  -0.004119
  149        0.785877  -0.000639
  150        0.866040  -0.000007
  151        1.084848  -0.000000
  152        1.153878  -0.000000
  153        1.176162  -0.000000
  154        1.271687  -0.000000
  155        1.295930  -0.000000
  156        1.309983  -0.000000
  157        1.323996  -0.000000
  158        1.339365  -0.000000
  159        1.441913  -0.000000
  160        1.486590  -0.000000
  161        1.510474  -0.000000
  162        1.529781  -0.000000
  163        1.567040  -0.000000
  164        1.593479  -0.000000
  165        1.644198  -0.000000
  166        1.652283  -0.000000
  167        1.698015  -0.000000
  168        1.737494  -0.000000
  169        1.773126  -0.000000
  170        1.817892  -0.000000
  171        1.850062  -0.000000
  172        1.855576  -0.000000
  173        1.881098  -0.000000
  174        1.896518  -0.000000
  175        1.934180  -0.000000
  176        1.952151  -0.000000
  177        1.990754  -0.000000
  178        2.025032  -0.000000
  179        2.053793  -0.000000
  180        2.084492  -0.000000
  181        2.120404  -0.000000
  182        2.183571  -0.000000
  183        2.201756  -0.000000
  184        2.305997  -0.000000

  0.4000000E+00  0.3742002E-15  0.1262379E-14  0.4444444E-01
    1      -13.700137   1.000000
    2      -13.462877   1.000000
    3      -12.507157   1.000000
    4      -12.283089   1.000000
    5      -11.714222   1.000000
    6      -11.677442   1.000000
    7      -11.624446   1.000000
    8      -11.177899   1.000000
    9      -11.170212   1.000000
   10      -11.128853   1.000000
   11      -11.018881   1.000000
   12      -10.993111   1.000000
   13      -10.871531   1.000000
   14      -10.803335   1.000000
   15      -10.756971   1.000000
   16      -10.617963   1.000000
   17      -10.598124   1.000000
   18      -10.043220   1.000000
   19       -9.815652   1.000000
   20       -9.707832   1.000000
   21       -9.440617   1.000000
   22       -9.420630   1.000000
   23       -9.372995   1.000000
   24       -9.260974   1.000000
   25       -9.044869   1.000000
   26       -8.782269   1.000000
   27       -8.337171   1.000000
   28       -8.214728   1.000000
   29       -7.984792   1.000000
   30       -7.945447   1.000000
   31       -7.925625   1.000000
   32       -7.862737   1.000000
   33       -7.816161   1.000000
   34       -7.683859   1.000000
   35       -7.588435   1.000000
   36       -7.550780   1.000000
   37       -7.459464   1.000000
   38       -7.344779   1.000000
   39       -7.246131   1.000000
   40       -6.980531   1.000000
   41       -6.776354   1.000000
   42       -6.686612   1.000000
   43       -6.562608   1.000000
   44       -6.501781   1.000000
   45       -6.370345   1.000000
   46       -6.315123   1.000000
   47       -6.155598   1.000000
   48       -6.079161   1.000000
   49       -6.000562   1.000000
   50       -5.957899   1.000000
   51       -5.928282   1.000000
   52       -5.886602   1.000000
   53       -5.726469   1.000000
   54       -5.651151   1.000000
   55       -5.548699   1.000000
   56       -5.505173   1.000000
   57       -5.421387   1.000000
   58       -5.353571   1.000000
   59       -5.324484   1.000000
   60       -5.290296   1.000000
   61       -5.184775   1.000000
   62       -5.105886   1.000000
   63       -5.001486   1.000000
   64       -4.868870   1.000000
   65       -4.846686   1.000000
   66       -4.754533   1.000000
   67       -4.686997   1.000000
   68       -4.637070   1.000000
   69       -4.584381   1.000000
   70       -4.568232   1.000000
   71       -4.472620   1.000000
   72       -4.337428   1.000000
   73       -4.247794   1.000000
   74       -4.200889   1.000000
   75       -4.150200   1.000000
   76       -4.128674   1.000000
   77       -4.107058   1.000000
   78       -4.074749   1.000000
   79       -4.060139   1.000000
   80       -3.900719   1.000000
   81       -3.870470   1.000000
   82       -3.818665   1.000000
   83       -3.813692   1.000000
   84       -3.803124   1.000000
   85       -3.769399   1.000000
   86       -3.729983   1.000000
   87       -3.702590   1.000000
   88       -3.619900   1.000000
   89       -3.605692   1.000000
   90       -3.561125   1.000000
   91       -3.526206   1.000000
   92       -3.414767   1.000000
   93       -3.398983   1.000000
   94       -3.353913   1.000000
   95       -3.290728   1.000000
   96       -3.228775   1.000000
   97       -3.169910   1.000000
   98       -3.153183   1.000000
   99       -3.068144   1.000000
  100       -2.965394   1.000000
  101       -2.854824   1.000000
  102       -2.723298   1.000000
  103       -2.451622   1.000000
  104       -2.329268   1.000000
  105       -2.322676   1.000000
  106       -2.286774   1.000000
  107       -2.225525   1.000000
  108       -2.033436   1.000000
  109       -1.988689   1.000000
  110       -1.974034   1.000000
  111       -1.971382   1.000000
  112       -1.876537   1.000000
  113       -1.800060   1.000000
  114       -1.752187   1.000000
  115       -1.719167   1.000000
  116       -1.688984   1.000000
  117       -1.639208   1.000000
  118       -1.466249   1.000000
  119       -1.420670   1.000000
  120       -1.379862   1.000000
  121       -1.334903   1.000000
  122       -1.183250   1.000000
  123       -1.153162   1.000000
  124       -1.125426   1.000000
  125       -1.096054   1.000000
  126       -0.911868   1.000000
  127       -0.830771   1.000000
  128       -0.819719   1.000000
  129       -0.801646   1.000000
  130       -0.599525   1.000000
  131       -0.511836   1.000000
  132       -0.462890   1.000000
  133       -0.166276   1.000000
  134       -0.123090   1.000000
  135        0.020883   1.000000
  136        0.245054   1.000304
  137        0.292073   1.002600
  138        0.318896   1.006983
  139        0.340706   1.013560
  140        0.427489   1.019839
  141        0.462479   0.922402
  142        0.511130   0.599790
  143        0.613348  -0.011970
  144        0.682049  -0.023513
  145        0.705064  -0.013656
  146        0.749041  -0.003158
  147        0.765014  -0.001643
  148        0.898276  -0.000001
  149        0.938703  -0.000000
  150        0.957458  -0.000000
  151        1.024961  -0.000000
  152        1.204115  -0.000000
  153        1.222162  -0.000000
  154        1.290928  -0.000000
  155        1.359079  -0.000000
  156        1.398516  -0.000000
  157        1.433405  -0.000000
  158        1.462450  -0.000000
  159        1.491379  -0.000000
  160        1.526743  -0.000000
  161        1.540912  -0.000000
  162        1.577965  -0.000000
  163        1.609604  -0.000000
  164        1.672288  -0.000000
  165        1.693037  -0.000000
  166        1.698971  -0.000000
  167        1.708533  -0.000000
  168        1.735932  -0.000000
  169        1.779907  -0.000000
  170        1.817642  -0.000000
  171        1.858938  -0.000000
  172        1.869394  -0.000000
  173        1.874520  -0.000000
  174        1.917812  -0.000000
  175        1.965940  -0.000000
  176        2.003361  -0.000000
  177        2.017231  -0.000000
  178        2.023974  -0.000000
  179        2.051777  -0.000000
  180        2.098198  -0.000000
  181        2.144390  -0.000000
  182        2.170109  -0.000000
  183        2.181533  -0.000000
  184        2.246870  -0.000000

  0.3742002E-15  0.1111111E+00  0.1262379E-14  0.4444444E-01
    1      -13.846031   1.000000
    2      -12.724175   1.000000
    3      -12.671161   1.000000
    4      -12.641185   1.000000
    5      -11.823947   1.000000
    6      -11.596646   1.000000
    7      -11.539281   1.000000
    8      -11.535506   1.000000
    9      -11.371375   1.000000
   10      -11.227025   1.000000
   11      -11.117476   1.000000
   12      -11.014389   1.000000
   13      -10.971677   1.000000
   14      -10.624038   1.000000
   15      -10.468287   1.000000
   16      -10.256213   1.000000
   17      -10.073122   1.000000
   18      -10.037468   1.000000
   19       -9.804999   1.000000
   20       -9.697444   1.000000
   21       -9.611028   1.000000
   22       -9.521771   1.000000
   23       -9.431965   1.000000
   24       -9.347685   1.000000
   25       -8.847643   1.000000
   26       -8.791460   1.000000
   27       -8.723179   1.000000
   28       -8.431500   1.000000
   29       -8.411868   1.000000
   30       -8.238320   1.000000
   31       -7.957338   1.000000
   32       -7.924655   1.000000
   33       -7.781872   1.000000
   34       -7.436428   1.000000
   35       -7.382183   1.000000
   36       -7.298995   1.000000
   37       -7.190038   1.000000
   38       -7.002301   1.000000
   39       -6.903967   1.000000
   40       -6.889634   1.000000
   41       -6.667496   1.000000
   42       -6.650739   1.000000
   43       -6.629068   1.000000
   44       -6.562626   1.000000
   45       -6.503808   1.000000
   46       -6.371234   1.000000
   47       -6.334419   1.000000
   48       -6.245823   1.000000
   49       -6.112830   1.000000
   50       -6.090974   1.000000
   51       -5.890194   1.000000
   52       -5.795069   1.000000
   53       -5.727446   1.000000
   54       -5.610017   1.000000
   55       -5.593894   1.000000
   56       -5.561304   1.000000
   57       -5.474810   1.000000
   58       -5.401874   1.000000
   59       -5.303295   1.000000
   60       -5.237211   1.000000
   61       -5.188715   1.000000
   62       -5.147338   1.000000
   63       -5.121416   1.000000
   64       -4.865032   1.000000
   65       -4.744820   1.000000
   66       -4.735048   1.000000
   67       -4.634106   1.000000
   68       -4.593034   1.000000
   69       -4.537084   1.000000
   70       -4.483337   1.000000
   71       -4.394729   1.000000
   72       -4.338061   1.000000
   73       -4.244688   1.000000
   74       -4.214983   1.000000
   75       -4.206288   1.000000
   76       -4.157726   1.000000
   77       -4.126524   1.000000
   78       -4.119698   1.000000
   79       -4.024385   1.000000
   80       -4.014574   1.000000
   81       -4.010549   1.000000
   82       -3.995454   1.000000
   83       -3.892199   1.000000
   84       -3.878609   1.000000
   85       -3.769139   1.000000
   86       -3.729815   1.000000
   87       -3.690870   1.000000
   88       -3.669586   1.000000
   89       -3.624001   1.000000
   90       -3.583172   1.000000
   91       -3.482150   1.000000
   92       -3.468410   1.000000
   93       -3.437537   1.000000
   94       -3.421810   1.000000
   95       -3.236993   1.000000
   96       -3.038405   1.000000
   97       -2.906314   1.000000
   98       -2.865675   1.000000
   99       -2.840242   1.000000
  100       -2.765701   1.000000
  101       -2.723543   1.000000
  102       -2.595590   1.000000
  103       -2.523701   1.000000
  104       -2.518847   1.000000
  105       -2.448714   1.000000
  106       -2.394597   1.000000
  107       -2.278455   1.000000
  108       -2.208640   1.000000
  109       -2.181445   1.000000
  110       -2.160306   1.000000
  111       -2.063921   1.000000
  112       -2.034736   1.000000
  113       -1.937085   1.000000
  114       -1.908323   1.000000
  115       -1.820549   1.000000
  116       -1.740526   1.000000
  117       -1.684378   1.000000
  118       -1.642355   1.000000
  119       -1.615314   1.000000
  120       -1.499104   1.000000
  121       -1.475333   1.000000
  122       -1.129632   1.000000
  123       -1.056674   1.000000
  124       -0.926263   1.000000
  125       -0.846031   1.000000
  126       -0.785328   1.000000
  127       -0.685406   1.000000
  128       -0.557965   1.000000
  129       -0.549383   1.000000
  130       -0.290257   1.000000
  131       -0.249089   1.000000
  132       -0.232603   1.000000
  133        0.015332   1.000000
  134        0.059598   1.000000
  135        0.101398   1.000000
  136        0.175707   1.000005
  137        0.238666   1.000218
  138        0.285781   1.002010
  139        0.319781   1.007191
  140        0.346688   1.015883
  141        0.361169   1.022214
  142        0.420548   1.027501
  143        0.559674   0.211666
  144        0.586743   0.063954
  145        0.619307  -0.020839
  146        0.749428  -0.003110
  147        0.760289  -0.002006
  148        0.797889  -0.000355
  149        0.934154  -0.000000
  150        1.022812  -0.000000
  151        1.046224  -0.000000
  152        1.122791  -0.000000
  153        1.142540  -0.000000
  154        1.196728  -0.000000
  155        1.247993  -0.000000
  156        1.269637  -0.000000
  157        1.349722  -0.000000
  158        1.358944  -0.000000
  159        1.424258  -0.000000
  160        1.451563  -0.000000
  161        1.485742  -0.000000
  162        1.512538  -0.000000
  163        1.532414  -0.000000
  164        1.540514  -0.000000
  165        1.606067  -0.000000
  166        1.664183  -0.000000
  167        1.698125  -0.000000
  168        1.721873  -0.000000
  169        1.772698  -0.000000
  170        1.798411  -0.000000
  171        1.809748  -0.000000
  172        1.827695  -0.000000
  173        1.862237  -0.000000
  174        1.876753  -0.000000
  175        1.901728  -0.000000
  176        1.928017  -0.000000
  177        1.953174  -0.000000
  178        1.962490  -0.000000
  179        1.996995  -0.000000
  180        2.049362  -0.000000
  181        2.086095  -0.000000
  182        2.131090  -0.000000
  183        2.259701  -0.000000
  184        2.296766  -0.000000

  0.2000000E+00  0.1111111E+00  0.1262379E-14  0.4444444E-01
    1      -13.797918   1.000000
    2      -13.098217   1.000000
    3      -12.601084   1.000000
    4      -12.221855   1.000000
    5      -11.945532   1.000000
    6      -11.809743   1.000000
    7      -11.608369   1.000000
    8      -11.282349   1.000000
    9      -11.224949   1.000000
   10      -11.123974   1.000000
   11      -11.083230   1.000000
   12      -11.050824   1.000000
   13      -10.886344   1.000000
   14      -10.699469   1.000000
   15      -10.522276   1.000000
   16      -10.499935   1.000000
   17      -10.482886   1.000000
   18       -9.828317   1.000000
   19       -9.765901   1.000000
   20       -9.699685   1.000000
   21       -9.496209   1.000000
   22       -9.475858   1.000000
   23       -9.387192   1.000000
   24       -9.361680   1.000000
   25       -9.051758   1.000000
   26       -8.873658   1.000000
   27       -8.410157   1.000000
   28       -8.309108   1.000000
   29       -8.239003   1.000000
   30       -8.193072   1.000000
   31       -8.118309   1.000000
   32       -7.890925   1.000000
   33       -7.663220   1.000000
   34       -7.590923   1.000000
   35       -7.423032   1.000000
   36       -7.375526   1.000000
   37       -7.217240   1.000000
   38       -7.054437   1.000000
   39       -7.041866   1.000000
   40       -6.933484   1.000000
   41       -6.782803   1.000000
   42       -6.728536   1.000000
   43       -6.634650   1.000000
   44       -6.576753   1.000000
   45       -6.538731   1.000000
   46       -6.453366   1.000000
   47       -6.229130   1.000000
   48       -6.082839   1.000000
   49       -6.004982   1.000000
   50       -5.920588   1.000000
   51       -5.878205   1.000000
   52       -5.823946   1.000000
   53       -5.763524   1.000000
   54       -5.626450   1.000000
   55       -5.585945   1.000000
   56       -5.521680   1.000000
   57       -5.431772   1.000000
   58       -5.348712   1.000000
   59       -5.267534   1.000000
   60       -5.240125   1.000000
   61       -5.191092   1.000000
   62       -5.132687   1.000000
   63       -5.059049   1.000000
   64       -5.006695   1.000000
   65       -4.834848   1.000000
   66       -4.686981   1.000000
   67       -4.670646   1.000000
   68       -4.597994   1.000000
   69       -4.530188   1.000000
   70       -4.468238   1.000000
   71       -4.376143   1.000000
   72       -4.313575   1.000000
   73       -4.291800   1.000000
   74       -4.184521   1.000000
   75       -4.166406   1.000000
   76       -4.125372   1.000000
   77       -4.112208   1.000000
   78       -4.101374   1.000000
   79       -4.076124   1.000000
   80       -4.022975   1.000000
   81       -3.992741   1.000000
   82       -3.966905   1.000000
   83       -3.923785   1.000000
   84       -3.844781   1.000000
   85       -3.804426   1.000000
   86       -3.738239   1.000000
   87       -3.675086   1.000000
   88       -3.662575   1.000000
   89       -3.626570   1.000000
   90       -3.597161   1.000000
   91       -3.502943   1.000000
   92       -3.458638   1.000000
   93       -3.422713   1.000000
   94       -3.392926   1.000000
   95       -3.222628   1.000000
   96       -3.092661   1.000000
   97       -2.995486   1.000000
   98       -2.953859   1.000000
   99       -2.923971   1.000000
  100       -2.808124   1.000000
  101       -2.747105   1.000000
  102       -2.712944   1.000000
  103       -2.657515   1.000000
  104       -2.377257   1.000000
  105       -2.351094   1.000000
  106       -2.304186   1.000000
  107       -2.229785   1.000000
  108       -2.207290   1.000000
  109       -2.181191   1.000000
  110       -2.027438   1.000000
  111       -2.001855   1.000000
  112       -1.951542   1.000000
  113       -1.911186   1.000000
  114       -1.856304   1.000000
  115       -1.842839   1.000000
  116       -1.744336   1.000000
  117       -1.713093   1.000000
  118       -1.676259   1.000000
  119       -1.529774   1.000000
  120       -1.467447   1.000000
  121       -1.420096   1.000000
  122       -1.148733   1.000000
  123       -1.092014   1.000000
  124       -0.985118   1.000000
  125       -0.915945   1.000000
  126       -0.872599   1.000000
  127       -0.757464   1.000000
  128       -0.720210   1.000000
  129       -0.464092   1.000000
  130       -0.415043   1.000000
  131       -0.284763   1.000000
  132       -0.154588   1.000000
  133       -0.031380   1.000000
  134        0.012968   1.000000
  135        0.059600   1.000000
  136        0.065961   1.000000
  137        0.173847   1.000005
  138        0.216453   1.000064
  139        0.311096   1.005338
  140        0.397910   1.035355
  141        0.470580   0.883177
  142        0.485397   0.794746
  143        0.529353   0.446474
  144        0.632897  -0.032577
  145        0.645544  -0.035458
  146        0.717910  -0.009395
  147        0.835642  -0.000045
  148        0.873908  -0.000004
  149        0.892788  -0.000001
  150        0.994380  -0.000000
  151        1.029069  -0.000000
  152        1.159123  -0.000000
  153        1.239681  -0.000000
  154        1.254885  -0.000000
  155        1.309853  -0.000000
  156        1.350820  -0.000000
  157        1.363862  -0.000000