 running on   72 total cores
 distrk:  each k-point on   72 cores,    1 groups
 distr:  one band on    9 cores,    8 groups
 using from now: INCAR     
 vasp.5.4.4.18Apr17-6-g9f103f2a35 (build Dec  7 2020 12:43:57) complex           
 POSCAR found type information on POSCAR  Mo V  B  H 
 POSCAR found :  4 types and      75 ions
 scaLAPACK will be used
 LDA part: xc-table for Pade appr. of Perdew
 POSCAR, INCAR and KPOINTS ok, starting setup
 resort distribution
 resort distribution
 resort distribution
 resort distribution
 resort distribution
 resort distribution
 resort distribution
 resort distribution
 resort distribution
 resort distribution
 resort distribution
 resort distribution
 resort distribution
 resort distribution
 resort distribution
 resort distribution
 resort distribution
 resort distribution
 resort distribution
 resort distribution
 resort distribution
 resort distribution
 resort distribution
 resort distribution
 resort distribution
 resort distribution
 resort distribution
 resort distribution
 resort distribution
 resort distribution
 resort distribution
 resort distribution
 resort distribution
 resort distribution
 resort distribution
 resort distribution
 resort distribution
 resort distribution
 resort distribution
 resort distribution
 resort distribution
 resort distribution
 resort distribution
 resort distribution
 resort distribution
 resort distribution
 resort distribution
 resort distribution
 resort distribution
 resort distribution
 resort distribution
 resort distribution
 resort distribution
 resort distribution
 resort distribution
 resort distribution
 resort distribution
 resort distribution
 resort distribution
 resort distribution
 resort distribution
 resort distribution
 resort distribution
 resort distribution
 resort distribution
 resort distribution
 resort distribution
 resort distribution
 resort distribution
 resort distribution
 resort distribution
 resort distribution
 FFT: planning ...
 WAVECAR not read
 augmentation electrons   285.06514377078105     
 soft         electrons   0.0000000000000000     
 augmentation electrons   285.06514377078105     
 soft         electrons   0.0000000000000000     
 augmentation electrons   285.06514377078105     
 soft         electrons   0.0000000000000000     
 augmentation electrons   285.06514377078105     
 soft         electrons   0.0000000000000000     
 augmentation electrons   285.06514377078105     
 soft         electrons   0.0000000000000000     
 augmentation electrons   285.06514377078105     
 soft         electrons   0.0000000000000000     
 augmentation electrons   285.06514377078105     
 soft         electrons   0.0000000000000000     
 augmentation electrons   285.06514377078105     
 soft         electrons   0.0000000000000000     
 augmentation electrons   285.06514377078105     
 soft         electrons   0.0000000000000000     
 augmentation electrons   285.06514377078105     
 soft         electrons   0.0000000000000000     
 augmentation electrons   285.06514377078105     
 soft         electrons   0.0000000000000000     
 augmentation electrons   285.06514377078105     
 soft         electrons   0.0000000000000000     
 augmentation electrons   285.06514377078105     
 soft         electrons   0.0000000000000000     
 augmentation electrons   285.06514377078105     
 soft         electrons   0.0000000000000000     
 augmentation electrons   285.06514377078105     
 soft         electrons   0.0000000000000000     
 augmentation electrons   285.06514377078105     
 soft         electrons   0.0000000000000000     
 augmentation electrons   285.06514377078105     
 soft         electrons   0.0000000000000000     
 augmentation electrons   285.06514377078105     
 soft         electrons   0.0000000000000000     
 augmentation electrons   285.06514377078105     
 soft         electrons   0.0000000000000000     
 augmentation electrons   285.06514377078105     
 soft         electrons   0.0000000000000000     
 augmentation electrons   285.06514377078105     
 soft         electrons   0.0000000000000000     
 augmentation electrons   285.06514377078105     
 soft         electrons   0.0000000000000000     
 augmentation electrons   285.06514377078105     
 soft         electrons   0.0000000000000000     
 augmentation electrons   285.06514377078105     
 soft         electrons   0.0000000000000000     
 augmentation electrons   285.06514377078105     
 soft         electrons   0.0000000000000000     
 augmentation electrons   285.06514377078105     
 soft         electrons   0.0000000000000000     
 augmentation electrons   285.06514377078105     
 soft         electrons   0.0000000000000000     
 augmentation electrons   285.06514377078105     
 soft         electrons   0.0000000000000000     
 augmentation electrons   285.06514377078105     
 soft         electrons   0.0000000000000000     
 augmentation electrons   285.06514377078105     
 soft         electrons   0.0000000000000000     
 augmentation electrons   285.06514377078105     
 soft         electrons   0.0000000000000000     
 augmentation electrons   285.06514377078105     
 soft         electrons   0.0000000000000000     
 augmentation electrons   285.06514377078105     
 soft         electrons   0.0000000000000000     
 augmentation electrons   285.06514377078105     
 soft         electrons   0.0000000000000000     
 augmentation electrons   285.06514377078105     
 soft         electrons   0.0000000000000000     
 augmentation electrons   285.06514377078105     
 soft         electrons   0.0000000000000000     
 augmentation electrons   285.06514377078105     
 soft         electrons   0.0000000000000000     
 augmentation electrons   285.06514377078105     
 soft         electrons   0.0000000000000000     
 augmentation electrons   285.06514377078105     
 soft         electrons   0.0000000000000000     
 augmentation electrons   285.06514377078105     
 soft         electrons   0.0000000000000000     
 augmentation electrons   285.06514377078105     
 soft         electrons   0.0000000000000000     
 augmentation electrons   285.06514377078105     
 soft         electrons   0.0000000000000000     
 augmentation electrons   285.06514377078105     
 soft         electrons   0.0000000000000000     
 augmentation electrons   285.06514377078105     
 soft         electrons   0.0000000000000000     
 augmentation electrons   285.06514377078105     
 soft         electrons   0.0000000000000000     
 augmentation electrons   285.06514377078105     
 soft         electrons   0.0000000000000000     
 augmentation electrons   285.06514377078105     
 soft         electrons   0.0000000000000000     
 augmentation electrons   285.06514377078105     
 soft         electrons   0.0000000000000000     
 augmentation electrons   285.06514377078105     
 soft         electrons   0.0000000000000000     
 augmentation electrons   285.06514377078105     
 soft         electrons   0.0000000000000000     
 augmentation electrons   285.06514377078105     
 soft         electrons   0.0000000000000000     
 augmentation electrons   285.06514377078105     
 soft         electrons   0.0000000000000000     
 augmentation electrons   285.06514377078105     
 soft         electrons   0.0000000000000000     
 augmentation electrons   285.06514377078105     
 soft         electrons   0.0000000000000000     
 augmentation electrons   285.06514377078105     
 soft         electrons   0.0000000000000000     
 augmentation electrons   285.06514377078105     
 soft         electrons   0.0000000000000000     
 augmentation electrons   285.06514377078105     
 soft         electrons   0.0000000000000000     
 augmentation electrons   285.06514377078105     
 soft         electrons   0.0000000000000000     
 augmentation electrons   285.06514377078105     
 soft         electrons   0.0000000000000000     
 augmentation electrons   285.06514377078105     
 soft         electrons   0.0000000000000000     
 augmentation electrons   285.06514377078105     
 soft         electrons   0.0000000000000000     
 augmentation electrons   285.06514377078105     
 soft         electrons   0.0000000000000000     
 augmentation electrons   285.06514377078105     
 soft         electrons   0.0000000000000000     
 augmentation electrons   285.06514377078105     
 soft         electrons   0.0000000000000000     
 augmentation electrons   285.06514377078105     
 soft         electrons   0.0000000000000000     
 augmentation electrons   285.06514377078105     
 soft         electrons   0.0000000000000000     
 augmentation electrons   285.06514377078105     
 soft         electrons   0.0000000000000000     
 augmentation electrons   285.06514377078105     
 soft         electrons   0.0000000000000000     
 augmentation electrons   285.06514377078105     
 soft         electrons   0.0000000000000000     
 augmentation electrons   285.06514377078105     
 soft         electrons   0.0000000000000000     
 augmentation electrons   285.06514377078105     
 soft         electrons   0.0000000000000000     
 augmentation electrons   285.06514377078105     
 soft         electrons   0.0000000000000000     
 total        electrons   285.06514377078105     
 total        electrons   285.06514377078105     
 total        electrons   285.06514377078105     
 total        electrons   285.06514377078105     
 total        electrons   285.06514377078105     
 total        electrons   285.06514377078105     
 total        electrons   285.06514377078105     
 total        electrons   285.06514377078105     
 total        electrons   285.06514377078105     
 total        electrons   285.06514377078105     
 total        electrons   285.06514377078105     
 total        electrons   285.06514377078105     
 total        electrons   285.06514377078105     
 total        electrons   285.06514377078105     
 total        electrons   285.06514377078105     
 total        electrons   285.06514377078105     
 total        electrons   285.06514377078105     
 total        electrons   285.06514377078105     
 total        electrons   285.06514377078105     
 total        electrons   285.06514377078105     
 total        electrons   285.06514377078105     
 total        electrons   285.06514377078105     
 total        electrons   285.06514377078105     
 total        electrons   285.06514377078105     
 total        electrons   285.06514377078105     
 total        electrons   285.06514377078105     
 total        electrons   285.06514377078105     
 total        electrons   285.06514377078105     
 total        electrons   285.06514377078105     
 total        electrons   285.06514377078105     
 total        electrons   285.06514377078105     
 total        electrons   285.06514377078105     
 total        electrons   285.06514377078105     
 total        electrons   285.06514377078105     
 total        electrons   285.06514377078105     
 total        electrons   285.06514377078105     
 total        electrons   285.06514377078105     
 total        electrons   285.06514377078105     
 total        electrons   285.06514377078105     
 total        electrons   285.06514377078105     
 total        electrons   285.06514377078105     
 total        electrons   285.06514377078105     
 total        electrons   285.06514377078105     
 total        electrons   285.06514377078105     
 total        electrons   285.06514377078105     
 total        electrons   285.06514377078105     
 total        electrons   285.06514377078105     
 total        electrons   285.06514377078105     
 total        electrons   285.06514377078105     
 total        electrons   285.06514377078105     
 total        electrons   285.06514377078105     
 total        electrons   285.06514377078105     
 total        electrons   285.06514377078105     
 total        electrons   285.06514377078105     
 total        electrons   285.06514377078105     
 total        electrons   285.06514377078105     
 total        electrons   285.06514377078105     
 total        electrons   285.06514377078105     
 total        electrons   285.06514377078105     
 total        electrons   285.06514377078105     
 total        electrons   285.06514377078105     
 total        electrons   285.06514377078105     
 total        electrons   285.06514377078105     
 total        electrons   285.06514377078105     
 total        electrons   285.06514377078105     
 total        electrons   285.06514377078105     
 total        electrons   285.06514377078105     
 total        electrons   285.06514377078105     
 total        electrons   285.06514377078105     
 total        electrons   285.06514377078105     
 total        electrons   285.06514377078105     
 total        electrons   285.06514377078105     
 augmentation electrons   1284.9953543078657     
 soft         electrons   0.0000000000000000     
 augmentation electrons   1284.9953543078657     
 soft         electrons   0.0000000000000000     
 augmentation electrons   1284.9953543078657     
 soft         electrons   0.0000000000000000     
 augmentation electrons   1284.9953543078657     
 soft         electrons   0.0000000000000000     
 augmentation electrons   1284.9953543078657     
 soft         electrons   0.0000000000000000     
 augmentation electrons   1284.9953543078657     
 soft         electrons   0.0000000000000000     
 augmentation electrons   1284.9953543078657     
 soft         electrons   0.0000000000000000     
 augmentation electrons   1284.9953543078657     
 soft         electrons   0.0000000000000000     
 augmentation electrons   1284.9953543078657     
 soft         electrons   0.0000000000000000     
 augmentation electrons   1284.9953543078657     
 soft         electrons   0.0000000000000000     
 augmentation electrons   1284.9953543078657     
 soft         electrons   0.0000000000000000     
 augmentation electrons   1284.9953543078657     
 soft         electrons   0.0000000000000000     
 augmentation electrons   1284.9953543078657     
 soft         electrons   0.0000000000000000     
 augmentation electrons   1284.9953543078657     
 soft         electrons   0.0000000000000000     
 augmentation electrons   1284.9953543078657     
 soft         electrons   0.0000000000000000     
 augmentation electrons   1284.9953543078657     
 soft         electrons   0.0000000000000000     
 augmentation electrons   1284.9953543078657     
 soft         electrons   0.0000000000000000     
 augmentation electrons   1284.9953543078657     
 soft         electrons   0.0000000000000000     
 augmentation electrons   1284.9953543078657     
 soft         electrons   0.0000000000000000     
 augmentation electrons   1284.9953543078657     
 soft         electrons   0.0000000000000000     
 augmentation electrons   1284.9953543078657     
 soft         electrons   0.0000000000000000     
 augmentation electrons   1284.9953543078657     
 soft         electrons   0.0000000000000000     
 augmentation electrons   1284.9953543078657     
 soft         electrons   0.0000000000000000     
 augmentation electrons   1284.9953543078657     
 soft         electrons   0.0000000000000000     
 augmentation electrons   1284.9953543078657     
 soft         electrons   0.0000000000000000     
 augmentation electrons   1284.9953543078657     
 soft         electrons   0.0000000000000000     
 augmentation electrons   1284.9953543078657     
 soft         electrons   0.0000000000000000     
 augmentation electrons   1284.9953543078657     
 soft         electrons   0.0000000000000000     
 augmentation electrons   1284.9953543078657     
 soft         electrons   0.0000000000000000     
 augmentation electrons   1284.9953543078657     
 soft         electrons   0.0000000000000000     
 augmentation electrons   1284.9953543078657     
 soft         electrons   0.0000000000000000     
 augmentation electrons   1284.9953543078657     
 soft         electrons   0.0000000000000000     
 augmentation electrons   1284.9953543078657     
 soft         electrons   0.0000000000000000     
 augmentation electrons   1284.9953543078657     
 soft         electrons   0.0000000000000000     
 augmentation electrons   1284.9953543078657     
 soft         electrons   0.0000000000000000     
 augmentation electrons   1284.9953543078657     
 soft         electrons   0.0000000000000000     
 augmentation electrons   1284.9953543078657     
 soft         electrons   0.0000000000000000     
 augmentation electrons   1284.9953543078657     
 soft         electrons   0.0000000000000000     
 augmentation electrons   1284.9953543078657     
 soft         electrons   0.0000000000000000     
 augmentation electrons   1284.9953543078657     
 soft         electrons   0.0000000000000000     
 augmentation electrons   1284.9953543078657     
 soft         electrons   0.0000000000000000     
 augmentation electrons   1284.9953543078657     
 soft         electrons   0.0000000000000000     
 augmentation electrons   1284.9953543078657     
 soft         electrons   0.0000000000000000     
 augmentation electrons   1284.9953543078657     
 soft         electrons   0.0000000000000000     
 augmentation electrons   1284.9953543078657     
 soft         electrons   0.0000000000000000     
 augmentation electrons   1284.9953543078657     
 soft         electrons   0.0000000000000000     
 augmentation electrons   1284.9953543078657     
 soft         electrons   0.0000000000000000     
 augmentation electrons   1284.9953543078657     
 soft         electrons   0.0000000000000000     
 augmentation electrons   1284.9953543078657     
 soft         electrons   0.0000000000000000     
 augmentation electrons   1284.9953543078657     
 soft         electrons   0.0000000000000000     
 augmentation electrons   1284.9953543078657     
 soft         electrons   0.0000000000000000     
 augmentation electrons   1284.9953543078657     
 soft         electrons   0.0000000000000000     
 augmentation electrons   1284.9953543078657     
 soft         electrons   0.0000000000000000     
 augmentation electrons   1284.9953543078657     
 soft         electrons   0.0000000000000000     
 augmentation electrons   1284.9953543078657     
 soft         electrons   0.0000000000000000     
 augmentation electrons   1284.9953543078657     
 soft         electrons   0.0000000000000000     
 augmentation electrons   1284.9953543078657     
 soft         electrons   0.0000000000000000     
 augmentation electrons   1284.9953543078657     
 soft         electrons   0.0000000000000000     
 augmentation electrons   1284.9953543078657     
 soft         electrons   0.0000000000000000     
 augmentation electrons   1284.9953543078657     
 soft         electrons   0.0000000000000000     
 augmentation electrons   1284.9953543078657     
 soft         electrons   0.0000000000000000     
 augmentation electrons   1284.9953543078657     
 soft         electrons   0.0000000000000000     
 augmentation electrons   1284.9953543078657     
 soft         electrons   0.0000000000000000     
 augmentation electrons   1284.9953543078657     
 soft         electrons   0.0000000000000000     
 augmentation electrons   1284.9953543078657     
 soft         electrons   0.0000000000000000     
 augmentation electrons   1284.9953543078657     
 soft         electrons   0.0000000000000000     
 augmentation electrons   1284.9953543078657     
 soft         electrons   0.0000000000000000     
 augmentation electrons   1284.9953543078657     
 soft         electrons   0.0000000000000000     
 augmentation electrons   1284.9953543078657     
 soft         electrons   0.0000000000000000     
 augmentation electrons   1284.9953543078657     
 soft         electrons   0.0000000000000000     
 augmentation electrons   1284.9953543078657     
 soft         electrons   0.0000000000000000     
 augmentation electrons   1284.9953543078657     
 soft         electrons   0.0000000000000000     
 total        electrons   1284.9953543078657     
 total        electrons   1284.9953543078657     
 total        electrons   1284.9953543078657     
 total        electrons   1284.9953543078657     
 total        electrons   1284.9953543078657     
 total        electrons   1284.9953543078657     
 total        electrons   1284.9953543078657     
 total        electrons   1284.9953543078657     
 total        electrons   1284.9953543078657     
 total        electrons   1284.9953543078657     
 total        electrons   1284.9953543078657     
 total        electrons   1284.9953543078657     
 total        electrons   1284.9953543078657     
 total        electrons   1284.9953543078657     
 total        electrons   1284.9953543078657     
 total        electrons   1284.9953543078657     
 total        electrons   1284.9953543078657     
 total        electrons   1284.9953543078657     
 total        electrons   1284.9953543078657     
 total        electrons   1284.9953543078657     
 total        electrons   1284.9953543078657     
 total        electrons   1284.9953543078657     
 total        electrons   1284.9953543078657     
 total        electrons   1284.9953543078657     
 total        electrons   1284.9953543078657     
 total        electrons   1284.9953543078657     
 total        electrons   1284.9953543078657     
 total        electrons   1284.9953543078657     
 total        electrons   1284.9953543078657     
 total        electrons   1284.9953543078657     
 total        electrons   1284.9953543078657     
 total        electrons   1284.9953543078657     
 total        electrons   1284.9953543078657     
 total        electrons   1284.9953543078657     
 total        electrons   1284.9953543078657     
 total        electrons   1284.9953543078657     
 total        electrons   1284.9953543078657     
 total        electrons   1284.9953543078657     
 total        electrons   1284.9953543078657     
 total        electrons   1284.9953543078657     
 total        electrons   1284.9953543078657     
 total        electrons   1284.9953543078657     
 total        electrons   1284.9953543078657     
 total        electrons   1284.9953543078657     
 total        electrons   1284.9953543078657     
 total        electrons   1284.9953543078657     
 total        electrons   1284.9953543078657     
 total        electrons   1284.9953543078657     
 total        electrons   1284.9953543078657     
 total        electrons   1284.9953543078657     
 total        electrons   1284.9953543078657     
 total        electrons   1284.9953543078657     
 total        electrons   1284.9953543078657     
 total        electrons   1284.9953543078657     
 total        electrons   1284.9953543078657     
 total        electrons   1284.9953543078657     
 total        electrons   1284.9953543078657     
 total        electrons   1284.9953543078657     
 total        electrons   1284.9953543078657     
 total        electrons   1284.9953543078657     
 total        electrons   1284.9953543078657     
 total        electrons   1284.9953543078657     
 total        electrons   1284.9953543078657     
 total        electrons   1284.9953543078657     
 total        electrons   1284.9953543078657     
 total        electrons   1284.9953543078657     
 total        electrons   1284.9953543078657     
 total        electrons   1284.9953543078657     
 total        electrons   1284.9953543078657     
 total        electrons   1284.9953543078657     
 total        electrons   1284.9953543078657     
 total        electrons   1284.9953543078657     
 entering main loop
       N       E                     dE             d eps       ncg     rms          rms(c)
DAV:   1     0.247117745215E+04    0.24712E+04   -0.10369E+05  8464   0.127E+03
DAV:   2    -0.214182704309E+03   -0.26854E+04   -0.24934E+04  9656   0.316E+02
DAV:   3    -0.658130387262E+03   -0.44395E+03   -0.42080E+03 11856   0.147E+02
DAV:   4    -0.696895542638E+03   -0.38765E+02   -0.36997E+02 13680   0.474E+01
DAV:   5    -0.699450098281E+03   -0.25546E+01   -0.24588E+01 14416   0.115E+01    0.147E+02
RMM:   6    -0.647666653415E+03    0.51783E+02   -0.11332E+03 11697   0.883E+01    0.720E+01
RMM:   7    -0.755210305797E+03   -0.10754E+03   -0.39009E+02 11730   0.443E+01    0.555E+01
RMM:   8    -0.647548824892E+03    0.10766E+03   -0.17614E+02 11353   0.256E+01    0.415E+01
RMM:   9    -0.609427141460E+03    0.38122E+02   -0.42265E+01 10871   0.166E+01    0.276E+01
RMM:  10    -0.597628830237E+03    0.11798E+02   -0.39608E+01  9748   0.164E+01    0.205E+01
RMM:  11    -0.595269640114E+03    0.23592E+01   -0.71025E+00  9369   0.841E+00    0.165E+01
RMM:  12    -0.595366130883E+03   -0.96491E-01   -0.34535E+00 11559   0.235E+00    0.146E+01
RMM:  13    -0.595130978103E+03    0.23515E+00   -0.78860E-01 11587   0.132E+00    0.128E+01
RMM:  14    -0.595301952460E+03   -0.17097E+00   -0.48925E+00  8668   0.739E+00    0.856E+00
RMM:  15    -0.594330879431E+03    0.97107E+00   -0.15012E+00  8674   0.429E+00    0.394E+00
RMM:  16    -0.594172953436E+03    0.15793E+00   -0.85001E-01 11157   0.183E+00    0.245E+00
RMM:  17    -0.594152088570E+03    0.20865E-01   -0.30288E-01 11265   0.113E+00    0.215E+00
RMM:  18    -0.594135271865E+03    0.16817E-01   -0.19994E-01 10776   0.109E+00    0.165E+00
RMM:  19    -0.594142696871E+03   -0.74250E-02   -0.21079E-01  9833   0.115E+00    0.174E+00
RMM:  20    -0.594118541292E+03    0.24156E-01   -0.92453E-02  9928   0.763E-01    0.758E-01
RMM:  21    -0.594111666915E+03    0.68744E-02   -0.27661E-02  8766   0.476E-01    0.366E-01
RMM:  22    -0.594113735572E+03   -0.20687E-02   -0.20264E-02 10461   0.256E-01    0.402E-01
RMM:  23    -0.594112988831E+03    0.74674E-03   -0.68615E-03 10468   0.194E-01    0.154E-01
RMM:  24    -0.594113927759E+03   -0.93893E-03   -0.44693E-03 10320   0.131E-01    0.180E-01
RMM:  25    -0.594114737404E+03   -0.80965E-03   -0.17253E-03 10942   0.805E-02    0.177E-01
RMM:  26    -0.594115186423E+03   -0.44902E-03   -0.82390E-04  8562   0.904E-02    0.493E-02
RMM:  27    -0.594116127832E+03   -0.94141E-03   -0.77480E-04 11014   0.366E-02    0.493E-02
RMM:  28    -0.594116879743E+03   -0.75191E-03   -0.32762E-04 10566   0.318E-02    0.391E-02
RMM:  29    -0.594117275508E+03   -0.39576E-03   -0.24996E-04  9851   0.349E-02    0.568E-02
RMM:  30    -0.594117336340E+03   -0.60832E-04   -0.73649E-05  8948   0.237E-02    0.165E-02
RMM:  31    -0.594117414624E+03   -0.78284E-04   -0.10126E-04  9980   0.191E-02    0.289E-02
RMM:  32    -0.594117562939E+03   -0.14832E-03   -0.88292E-05  8467   0.319E-02    0.330E-02
RMM:  33    -0.594117732896E+03   -0.16996E-03   -0.27993E-05  7674   0.166E-02    0.804E-03
RMM:  34    -0.594117894516E+03   -0.16162E-03   -0.56473E-05  8748   0.175E-02    0.317E-02
RMM:  35    -0.594118007691E+03   -0.11318E-03   -0.26542E-05  7448   0.182E-02    0.856E-03
RMM:  36    -0.594118081530E+03   -0.73839E-04   -0.14966E-05  6827   0.453E-03    0.496E-03
RMM:  37    -0.594118121878E+03   -0.40348E-04   -0.48968E-06  6208   0.440E-03    0.200E-03
RMM:  38    -0.594118144141E+03   -0.22263E-04   -0.28084E-06  5811   0.335E-03    0.378E-03
RMM:  39    -0.594118155849E+03   -0.11708E-04   -0.17156E-06  5536   0.402E-03    0.226E-03
RMM:  40    -0.594118159365E+03   -0.35164E-05   -0.60577E-07  5030   0.241E-03    0.224E-03
RMM:  41    -0.594118162601E+03   -0.32353E-05   -0.61423E-07  5060   0.254E-03    0.142E-03
RMM:  42    -0.594118163746E+03   -0.11452E-05   -0.30830E-07  4446   0.143E-03    0.321E-04
RMM:  43    -0.594118164707E+03   -0.96074E-06   -0.20503E-07  3603   0.109E-03
   1 F= -.59411816E+03 E0= -.59411907E+03  d E =-.594118E+03
 curvature:   0.00 expect dE= 0.000E+00 dE for cont linesearch  0.000E+00
 trial: gam= 0.00000 g(F)=  0.189E-02 g(S)=  0.000E+00 ort = 0.000E+00 (trialstep = 0.100E+01)
 search vector abs. value=  0.189E-02
 bond charge predicted
       N       E                     dE             d eps       ncg     rms          rms(c)
DAV:   1    -0.594119668869E+03   -0.15051E-02   -0.30928E-02  9528   0.358E-01    0.506E-02
RMM:   2    -0.594119737187E+03   -0.68318E-04   -0.64297E-04  9840   0.802E-02    0.630E-02
RMM:   3    -0.594119738230E+03   -0.10432E-05   -0.16331E-04 10103   0.390E-02    0.559E-02
RMM:   4    -0.594119746955E+03   -0.87250E-05   -0.10752E-04 10333   0.255E-02    0.627E-02
RMM:   5    -0.594119700884E+03    0.46071E-04   -0.61787E-05  8804   0.262E-02    0.196E-02
RMM:   6    -0.594119705616E+03   -0.47314E-05   -0.30149E-05  9304   0.136E-02    0.215E-02
RMM:   7    -0.594119699469E+03    0.61464E-05   -0.10887E-05  7042   0.113E-02    0.873E-03
RMM:   8    -0.594119698879E+03    0.59029E-06   -0.38498E-06  5922   0.530E-03
   2 F= -.59411970E+03 E0= -.59412060E+03  d E =-.153417E-02
 trial-energy change:   -0.001534  1 .order   -0.001530   -0.001886   -0.001173
 step:   2.5049(harm=  2.6469)  dis= 0.00449  next Energy=  -594.120597 (dE=-0.243E-02)
 bond charge predicted
       N       E                     dE             d eps       ncg     rms          rms(c)
DAV:   1    -0.594120587270E+03   -0.88780E-03   -0.70178E-02  9176   0.540E-01    0.771E-02
RMM:   2    -0.594120755898E+03   -0.16863E-03   -0.14909E-03  9330   0.130E-01    0.993E-02
RMM:   3    -0.594120749708E+03    0.61893E-05   -0.37699E-04 10215   0.602E-02    0.839E-02
RMM:   4    -0.594120756614E+03   -0.69053E-05   -0.22890E-04 10659   0.354E-02    0.883E-02
RMM:   5    -0.594120668006E+03    0.88608E-04   -0.15102E-04  8976   0.397E-02    0.358E-02
RMM:   6    -0.594120678662E+03   -0.10657E-04   -0.79401E-05 10310   0.222E-02    0.345E-02
RMM:   7    -0.594120662099E+03    0.16563E-04   -0.31801E-05  8460   0.186E-02    0.167E-02
RMM:   8    -0.594120659330E+03    0.27691E-05   -0.12328E-05  7654   0.825E-03    0.532E-03
RMM:   9    -0.594120659627E+03   -0.29685E-06   -0.42787E-06  5976   0.524E-03
   3 F= -.59412066E+03 E0= -.59412155E+03  d E =-.249492E-02
 curvature:  -1.31 expect dE=-0.181E-02 dE for cont linesearch -0.595E-05
 trial: gam= 0.68325 g(F)=  0.138E-02 g(S)=  0.000E+00 ort = 0.924E-04 (trialstep = 0.103E+01)
 search vector abs. value=  0.239E-02
 bond charge predicted
       N       E                     dE             d eps       ncg     rms          rms(c)
DAV:   1    -0.594121992939E+03   -0.13336E-02   -0.40282E-02  8912   0.407E-01    0.563E-02
RMM:   2    -0.594122105881E+03   -0.11294E-03   -0.85012E-04  9167   0.104E-01    0.939E-02
RMM:   3    -0.594122049133E+03    0.56747E-04   -0.21187E-04 10049   0.485E-02    0.469E-02
RMM:   4    -0.594122121097E+03   -0.71964E-04   -0.16013E-04 11139   0.243E-02    0.760E-02
RMM:   5    -0.594122035249E+03    0.85848E-04   -0.10236E-04  9310   0.302E-02    0.320E-02
RMM:   6    -0.594122035302E+03   -0.52591E-07   -0.65533E-05  9629   0.236E-02    0.268E-02
RMM:   7    -0.594122026873E+03    0.84286E-05   -0.20202E-05  7913   0.148E-02    0.130E-02
RMM:   8    -0.594122025389E+03    0.14837E-05   -0.80659E-06  6482   0.775E-03    0.682E-03
RMM:   9    -0.594122024997E+03    0.39198E-06   -0.23523E-06  5630   0.429E-03
   4 F= -.59412202E+03 E0= -.59412291E+03  d E =-.136537E-02
 ZBRENT: can't locate minimum, use default step
 trial-energy change:   -0.001365  1 .order   -0.001363   -0.001484   -0.001242
 step:   4.1104(harm=  6.2928)  dis= 0.01453  next Energy=  -594.125203 (dE=-0.454E-02)
 bond charge predicted
       N       E                     dE             d eps       ncg     rms          rms(c)
DAV:   1    -0.594124385094E+03   -0.23597E-02   -0.36269E-01  8784   0.122E+00    0.169E-01
RMM:   2    -0.594125477928E+03   -0.10928E-02   -0.75586E-03  9148   0.307E-01    0.293E-01
RMM:   3    -0.594124858645E+03    0.61928E-03   -0.18013E-03 10103   0.142E-01    0.138E-01
RMM:   4    -0.594125444990E+03   -0.58634E-03   -0.14439E-03 11126   0.770E-02    0.225E-01
RMM:   5    -0.594124740862E+03    0.70413E-03   -0.96949E-04  9290   0.939E-02    0.998E-02
RMM:   6    -0.594124726271E+03    0.14590E-04   -0.59662E-04  9882   0.718E-02    0.782E-02
RMM:   7    -0.594124651358E+03    0.74913E-04   -0.17009E-04  9021   0.426E-02    0.368E-02
RMM:   8    -0.594124639437E+03    0.11921E-04   -0.73092E-05  9230   0.211E-02    0.184E-02
RMM:   9    -0.594124637313E+03    0.21243E-05   -0.26223E-05  8430   0.912E-03    0.893E-03
RMM:  10    -0.594124638504E+03   -0.11910E-05   -0.10038E-05  7043   0.861E-03    0.984E-03
RMM:  11    -0.594124638102E+03    0.40114E-06   -0.33464E-06  5830   0.623E-03
   5 F= -.59412464E+03 E0= -.59412551E+03  d E =-.397848E-02
 curvature:  -4.31 expect dE=-0.563E-03 dE for cont linesearch -0.400E-03
 ZBRENT: increasing intervall
 opt :  10.2761  next Energy=  -594.122996 (dE=-0.234E-02)
 bond charge predicted
       N       E                     dE             d eps       ncg     rms          rms(c)
DAV:   1    -0.594121679909E+03    0.29586E-02   -0.14479E+00  8584   0.244E+00    0.345E-01
RMM:   2    -0.594126756604E+03   -0.50767E-02   -0.32482E-02  9035   0.641E-01    0.641E-01
RMM:   3    -0.594123440198E+03    0.33164E-02   -0.75870E-03 10019   0.297E-01    0.270E-01
RMM:   4    -0.594125810752E+03   -0.23706E-02   -0.56716E-03 11238   0.149E-01    0.443E-01
RMM:   5    -0.594123143006E+03    0.26677E-02   -0.40136E-03  9321   0.190E-01    0.220E-01
RMM:   6    -0.594122945509E+03    0.19750E-03   -0.24617E-03  9875   0.148E-01    0.152E-01
RMM:   7    -0.594122682260E+03    0.26325E-03   -0.70228E-04  8977   0.870E-02    0.836E-02
RMM:   8    -0.594122609107E+03    0.73154E-04   -0.27582E-04  9304   0.454E-02    0.342E-02
RMM:   9    -0.594122606122E+03    0.29851E-05   -0.12376E-04 10717   0.178E-02    0.190E-02
RMM:  10    -0.594122610795E+03   -0.46735E-05   -0.41893E-05  9240   0.168E-02    0.198E-02
RMM:  11    -0.594122608811E+03    0.19840E-05   -0.15087E-05  7969   0.103E-02    0.892E-03
RMM:  12    -0.594122611433E+03   -0.26222E-05   -0.68917E-06  6359   0.523E-03    0.579E-03
RMM:  13    -0.594122613746E+03   -0.23122E-05   -0.18236E-06  5527   0.445E-03    0.335E-03
RMM:  14    -0.594122616405E+03   -0.26591E-05   -0.12513E-06  5333   0.384E-03    0.432E-03
RMM:  15    -0.594122619942E+03   -0.35376E-05   -0.10021E-06  5241   0.359E-03    0.166E-03
RMM:  16    -0.594122621776E+03   -0.18342E-05   -0.53757E-07  5098   0.198E-03    0.118E-03
RMM:  17    -0.594122623543E+03   -0.17665E-05   -0.33763E-07  4934   0.177E-03    0.107E-03
RMM:  18    -0.594122624980E+03   -0.14367E-05   -0.27282E-07  4702   0.152E-03    0.955E-04
RMM:  19    -0.594122628747E+03   -0.37670E-05   -0.54148E-07  4762   0.141E-03    0.789E-04
RMM:  20    -0.594122631201E+03   -0.24546E-05   -0.40981E-07  4600   0.146E-03    0.484E-04
RMM:  21    -0.594122632585E+03   -0.13841E-05   -0.29814E-07  3844   0.114E-03    0.322E-04
RMM:  22    -0.594122633784E+03   -0.11981E-05   -0.26171E-07  3855   0.119E-03    0.389E-04
RMM:  23    -0.594122634893E+03   -0.11098E-05   -0.29909E-07  3607   0.104E-03    0.239E-04
RMM:  24    -0.594122635402E+03   -0.50886E-06   -0.20672E-07  3506   0.107E-03
   6 F= -.59412264E+03 E0= -.59412346E+03  d E =-.197577E-02
 curvature:  17.68 expect dE= 0.292E-01 dE for cont linesearch  0.101E-01
 ZBRENT: bracketing found
 ZBRENT: interpolating
 opt :   5.8841  next Energy=  -594.125056 (dE=-0.440E-02)
 bond charge predicted
       N       E                     dE             d eps       ncg     rms          rms(c)
DAV:   1    -0.594124668878E+03   -0.20340E-02   -0.73566E-01  8576   0.174E+00    0.247E-01
RMM:   2    -0.594127297425E+03   -0.26285E-02   -0.16662E-02  9101   0.450E-01    0.467E-01
RMM:   3    -0.594125506194E+03    0.17912E-02   -0.37855E-03  9985   0.211E-01    0.192E-01
RMM:   4    -0.594126819185E+03   -0.13130E-02   -0.30946E-03 11217   0.111E-01    0.325E-01
RMM:   5    -0.594125355204E+03    0.14640E-02   -0.20727E-03  9354   0.136E-01    0.154E-01
RMM:   6    -0.594125256306E+03    0.98897E-04   -0.12357E-03  9858   0.105E-01    0.105E-01
RMM:   7    -0.594125130509E+03    0.12580E-03   -0.34953E-04  9166   0.597E-02    0.579E-02
RMM:   8    -0.594125096443E+03    0.34066E-04   -0.14721E-04  9293   0.320E-02    0.257E-02
RMM:   9    -0.594125092614E+03    0.38287E-05   -0.61324E-05  9864   0.129E-02    0.134E-02
RMM:  10    -0.594125093149E+03   -0.53519E-06   -0.20943E-05  8400   0.121E-02    0.137E-02
RMM:  11    -0.594125091006E+03    0.21432E-05   -0.74799E-06  6701   0.761E-03    0.665E-03
RMM:  12    -0.594125091123E+03   -0.11767E-06   -0.30855E-06  5829   0.465E-03
   7 F= -.59412509E+03 E0= -.59412595E+03  d E =-.443150E-02
 curvature:  -0.73 expect dE=-0.904E-04 dE for cont linesearch -0.341E-06
 ZBRENT: interpolating
 opt :   6.0153  next Energy=  -594.125093 (dE=-0.443E-02)
 bond charge predicted
       N       E                     dE             d eps       ncg     rms          rms(c)
DAV:   1    -0.594125092295E+03   -0.12897E-05   -0.64996E-04 10128   0.523E-02    0.732E-03
RMM:   2    -0.594125095639E+03   -0.33432E-05   -0.17861E-05  8146   0.162E-02    0.151E-02
RMM:   3    -0.594125094031E+03    0.16076E-05   -0.33523E-06  5923   0.715E-03    0.601E-03
RMM:   4    -0.594125094525E+03   -0.49396E-06   -0.17374E-06  5344   0.451E-03    0.814E-03
RMM:   5    -0.594125094389E+03    0.13578E-06   -0.13922E-06  5296   0.510E-03
   8 F= -.59412509E+03 E0= -.59412595E+03  d E =-.443476E-02
 curvature:  -4.83 expect dE=-0.653E-03 dE for cont linesearch -0.964E-07
 trial: gam= 0.22675 g(F)=  0.135E-03 g(S)=  0.000E+00 ort =-0.690E-05 (trialstep = 0.203E+01)
 search vector abs. value=  0.255E-03
 bond charge predicted
       N       E                     dE             d eps       ncg     rms          rms(c)
DAV:   1    -0.594125260105E+03   -0.16558E-03   -0.16692E-02  8680   0.265E-01    0.330E-02
RMM:   2    -0.594125324278E+03   -0.64173E-04   -0.42448E-04  9492   0.695E-02    0.644E-02
RMM:   3    -0.594125290066E+03    0.34212E-04   -0.96192E-05  9873   0.320E-02    0.251E-02
RMM:   4    -0.594125318552E+03   -0.28486E-04   -0.62238E-05 10276   0.165E-02    0.485E-02
RMM:   5    -0.594125288136E+03    0.30417E-04   -0.27247E-05  8361   0.160E-02    0.122E-02
RMM:   6    -0.594125294258E+03   -0.61220E-05   -0.21258E-05  8306   0.130E-02    0.205E-02
RMM:   7    -0.594125288798E+03    0.54595E-05   -0.80491E-06  6474   0.101E-02    0.530E-03
RMM:   8    -0.594125288754E+03    0.44307E-07   -0.26546E-06  5753   0.391E-03
   9 F= -.59412529E+03 E0= -.59412614E+03  d E =-.194365E-03
 trial-energy change:   -0.000194  1 .order   -0.000190   -0.000270   -0.000109
 step:   3.1219(harm=  3.4028)  dis= 0.00542  next Energy=  -594.125319 (dE=-0.225E-03)
 bond charge predicted
       N       E                     dE             d eps       ncg     rms          rms(c)
DAV:   1    -0.594125315812E+03   -0.27014E-04   -0.48887E-03  8704   0.143E-01    0.177E-02
RMM:   2    -0.594125338416E+03   -0.22603E-04   -0.12717E-04  8693   0.427E-02    0.369E-02
RMM:   3    -0.594125326878E+03    0.11537E-04   -0.28551E-05  9167   0.170E-02    0.151E-02
RMM:   4    -0.594125329190E+03   -0.23119E-05   -0.10643E-05  6895   0.833E-03    0.185E-02
RMM:   5    -0.594125326646E+03    0.25439E-05   -0.73953E-06  6440   0.100E-02    0.117E-02
RMM:   6    -0.594125328773E+03   -0.21270E-05   -0.76085E-06  6680   0.830E-03    0.130E-02
RMM:   7    -0.594125326615E+03    0.21579E-05   -0.35709E-06  5812   0.790E-03    0.491E-03
RMM:   8    -0.594125326384E+03    0.23095E-06   -0.92159E-07  5162   0.346E-03
  10 F= -.59412533E+03 E0= -.59412618E+03  d E =-.231995E-03
 curvature:  -3.11 expect dE=-0.369E-03 dE for cont linesearch -0.162E-05
 trial: gam= 0.75174 g(F)=  0.119E-03 g(S)=  0.000E+00 ort = 0.115E-04 (trialstep = 0.204E+01)
 search vector abs. value=  0.280E-03
 bond charge predicted
       N       E                     dE             d eps       ncg     rms          rms(c)
DAV:   1    -0.594125544366E+03   -0.21775E-03   -0.18557E-02  8568   0.279E-01    0.379E-02
RMM:   2    -0.594125591879E+03   -0.47512E-04   -0.41819E-04  9062   0.741E-02    0.537E-02
RMM:   3    -0.594125584529E+03    0.73500E-05   -0.11580E-04 10016   0.340E-02    0.338E-02
RMM:   4    -0.594125613510E+03   -0.28981E-04   -0.63557E-05 10687   0.145E-02    0.478E-02
RMM:   5    -0.594125577922E+03    0.35588E-04   -0.38290E-05  8919   0.181E-02    0.224E-02
RMM:   6    -0.594125576766E+03    0.11557E-05   -0.28463E-05  8743   0.139E-02    0.159E-02
RMM:   7    -0.594125573673E+03    0.30938E-05   -0.88876E-06  6486   0.949E-03    0.705E-03
RMM:   8    -0.594125572998E+03    0.67458E-06   -0.26881E-06  5718   0.503E-03
  11 F= -.59412557E+03 E0= -.59412643E+03  d E =-.246614E-03
 ZBRENT: can't locate minimum, use default step
 trial-energy change:   -0.000247  1 .order   -0.000246   -0.000260   -0.000231
 step:   8.1679(harm= 18.2447)  dis= 0.01907  next Energy=  -594.126488 (dE=-0.116E-02)
 bond charge predicted
       N       E                     dE             d eps       ncg     rms          rms(c)
DAV:   1    -0.594125892161E+03   -0.31849E-03   -0.16700E-01  8544   0.836E-01    0.114E-01
RMM:   2    -0.594126315232E+03   -0.42307E-03   -0.37298E-03  9416   0.211E-01    0.161E-01
RMM:   3    -0.594126235923E+03    0.79310E-04   -0.10299E-03 10176   0.102E-01    0.995E-02
RMM:   4    -0.594126549274E+03   -0.31335E-03   -0.61302E-04 11235   0.449E-02    0.151E-01
RMM:   5    -0.594126171793E+03    0.37748E-03   -0.34426E-04  9561   0.546E-02    0.608E-02
RMM:   6    -0.594126166310E+03    0.54832E-05   -0.24775E-04 10265   0.399E-02    0.461E-02
RMM:   7    -0.594126142480E+03    0.23830E-04   -0.83448E-05  8947   0.274E-02    0.223E-02
RMM:   8    -0.594126136355E+03    0.61242E-05   -0.29853E-05  8171   0.124E-02    0.113E-02
RMM:   9    -0.594126135604E+03    0.75183E-06   -0.94927E-06  6715   0.685E-03
  12 F= -.59412614E+03 E0= -.59412700E+03  d E =-.809219E-03
 curvature: -12.30 expect dE=-0.122E-02 dE for cont linesearch -0.196E-03
 ZBRENT: increasing intervall
 opt :  20.4197  next Energy=  -594.126387 (dE=-0.106E-02)
 bond charge predicted
       N       E                     dE             d eps       ncg     rms          rms(c)
DAV:   1    -0.594125406832E+03    0.72952E-03   -0.66748E-01  8464   0.167E+00    0.228E-01
RMM:   2    -0.594127270659E+03   -0.18638E-02   -0.15516E-02  9484   0.428E-01    0.344E-01
RMM:   3    -0.594126718181E+03    0.55248E-03   -0.41260E-03 10160   0.205E-01    0.187E-01
RMM:   4    -0.594128100637E+03   -0.13825E-02   -0.26234E-03 11223   0.950E-02    0.313E-01
RMM:   5    -0.594126523729E+03    0.15769E-02   -0.14452E-03  9520   0.113E-01    0.123E-01
RMM:   6    -0.594126506261E+03    0.17468E-04   -0.10261E-03 10176   0.839E-02    0.967E-02
RMM:   7    -0.594126402721E+03    0.10354E-03   -0.35286E-04  8997   0.574E-02    0.456E-02
RMM:   8    -0.594126378830E+03    0.23892E-04   -0.12987E-04  9795   0.258E-02    0.238E-02
RMM:   9    -0.594126375083E+03    0.37463E-05   -0.42467E-05  8739   0.131E-02    0.131E-02
RMM:  10    -0.594126374834E+03    0.24974E-06   -0.15117E-05  7818   0.820E-03    0.882E-03
RMM:  11    -0.594126374647E+03    0.18652E-06   -0.54715E-06  6314   0.663E-03
  13 F= -.59412637E+03 E0= -.59412725E+03  d E =-.104826E-02
 curvature: -15.76 expect dE=-0.103E-01 dE for cont linesearch -0.706E-04
 ZBRENT: bracketing found
 ZBRENT: interpolating
 opt :  16.1752  next Energy=  -594.126450 (dE=-0.112E-02)
 bond charge predicted
       N       E                     dE             d eps       ncg     rms          rms(c)
DAV:   1    -0.594126317999E+03    0.56835E-04   -0.80016E-02  8576   0.579E-01    0.792E-02
RMM:   2    -0.594126528313E+03   -0.21031E-03   -0.18279E-03  9267   0.152E-01    0.114E-01
RMM:   3    -0.594126481831E+03    0.46482E-04   -0.49916E-04 10172   0.710E-02    0.679E-02
RMM:   4    -0.594126626551E+03   -0.14472E-03   -0.28390E-04 11179   0.315E-02    0.104E-01
RMM:   5    -0.594126451148E+03    0.17540E-03   -0.16143E-04  9557   0.373E-02    0.425E-02
RMM:   6    -0.594126456060E+03   -0.49122E-05   -0.12488E-04  9929   0.308E-02    0.370E-02
RMM:   7    -0.594126436686E+03    0.19374E-04   -0.36092E-05  8319   0.197E-02    0.125E-02
RMM:   8    -0.594126435862E+03    0.82381E-06   -0.14482E-05  7107   0.839E-03    0.836E-03
RMM:   9    -0.594126435389E+03    0.47314E-06   -0.32677E-06  5782   0.537E-03
  14 F= -.59412644E+03 E0= -.59412731E+03  d E =-.110900E-02
 curvature: -16.78 expect dE=-0.626E-02 dE for cont linesearch -0.223E-05
 trial: gam= 3.49360 g(F)=  0.373E-03 g(S)=  0.000E+00 ort = 0.610E-05 (trialstep = 0.356E+00)
 search vector abs. value=  0.383E-02
 bond charge predicted
       N       E                     dE             d eps       ncg     rms          rms(c)
DAV:   1    -0.594126554210E+03   -0.11835E-03   -0.76621E-03  8888   0.180E-01    0.243E-02
RMM:   2    -0.594126570137E+03   -0.15928E-04   -0.16836E-04  9121   0.483E-02    0.289E-02
RMM:   3    -0.594126571945E+03   -0.18070E-05   -0.52082E-05  9548   0.228E-02    0.247E-02
RMM:   4    -0.594126568693E+03    0.32519E-05   -0.14159E-05  7891   0.113E-02    0.146E-02
RMM:   5    -0.594126568710E+03   -0.17189E-07   -0.12083E-05  7089   0.117E-02    0.151E-02
RMM:   6    -0.594126570949E+03   -0.22392E-05   -0.62348E-06  6311   0.905E-03    0.148E-02
RMM:   7    -0.594126566936E+03    0.40128E-05   -0.20469E-06  5531   0.419E-03    0.508E-03
RMM:   8    -0.594126566532E+03    0.40457E-06   -0.81734E-07  5051   0.351E-03
  15 F= -.59412657E+03 E0= -.59412744E+03  d E =-.131142E-03
 ZBRENT: can't locate minimum, use default step
 trial-energy change:   -0.000131  1 .order   -0.000131   -0.000140   -0.000123
 step:   1.4225(harm=  2.8078)  dis= 0.01127  next Energy=  -594.126989 (dE=-0.554E-03)
 bond charge predicted
       N       E                     dE             d eps       ncg     rms          rms(c)
DAV:   1    -0.594126763844E+03   -0.19691E-03   -0.69227E-02  8560   0.539E-01    0.729E-02
RMM:   2    -0.594126922060E+03   -0.15822E-03   -0.14830E-03  9371   0.135E-01    0.936E-02
RMM:   3    -0.594126920672E+03    0.13884E-05   -0.43057E-04 10234   0.647E-02    0.702E-02
RMM:   4    -0.594127012622E+03   -0.91951E-04   -0.23029E-04 11061   0.297E-02    0.937E-02
RMM:   5    -0.594126883028E+03    0.12959E-03   -0.13564E-04  9432   0.345E-02    0.366E-02
RMM:   6    -0.594126884256E+03   -0.12280E-05   -0.10145E-04 10400   0.224E-02    0.292E-02
RMM:   7    -0.594126872565E+03    0.11690E-04   -0.33573E-05  8200   0.176E-02    0.131E-02
RMM:   8    -0.594126870224E+03    0.23410E-05   -0.10344E-05  6941   0.723E-03    0.529E-03
RMM:   9    -0.594126870311E+03   -0.86377E-07   -0.32509E-06  5797   0.498E-03
  16 F= -.59412687E+03 E0= -.59412775E+03  d E =-.434922E-03
 curvature:  -9.29 expect dE=-0.144E-02 dE for cont linesearch -0.113E-03
 ZBRENT: increasing intervall
 opt :   3.5562  next Energy=  -594.127057 (dE=-0.621E-03)
 bond charge predicted
       N       E                     dE             d eps       ncg     rms          rms(c)
DAV:   1    -0.594126676136E+03    0.19409E-03   -0.27726E-01  8480   0.108E+00    0.146E-01
RMM:   2    -0.594127316329E+03   -0.64019E-03   -0.59099E-03  9457   0.265E-01    0.189E-01
RMM:   3    -0.594127291937E+03    0.24392E-04   -0.16943E-03 10260   0.128E-01    0.139E-01
RMM:   4    -0.594127698636E+03   -0.40670E-03   -0.97975E-04 11040   0.636E-02    0.197E-01
RMM:   5    -0.594127132886E+03    0.56575E-03   -0.56153E-04  9417   0.714E-02    0.683E-02
RMM:   6    -0.594127148246E+03   -0.15360E-04   -0.40956E-04 10556   0.458E-02    0.613E-02
RMM:   7    -0.594127100198E+03    0.48048E-04   -0.14353E-04  8758   0.372E-02    0.281E-02
RMM:   8    -0.594127091001E+03    0.91964E-05   -0.49052E-05  9270   0.150E-02    0.125E-02
RMM:   9    -0.594127090609E+03    0.39255E-06   -0.14973E-05  7187   0.802E-03    0.932E-03
RMM:  10    -0.594127090098E+03    0.51032E-06   -0.40487E-06  5904   0.564E-03
  17 F= -.59412709E+03 E0= -.59412798E+03  d E =-.654709E-03
 curvature: -15.33 expect dE=-0.263E-02 dE for cont linesearch -0.239E-05
 trial: gam= 0.47095 g(F)=  0.172E-03 g(S)=  0.000E+00 ort =-0.244E-04 (trialstep = 0.996E+00)
 search vector abs. value=  0.999E-03
 bond charge predicted
       N       E                     dE             d eps       ncg     rms          rms(c)
DAV:   1    -0.594127217019E+03   -0.12641E-03   -0.15734E-02  9080   0.258E-01    0.356E-02
RMM:   2    -0.594127244492E+03   -0.27472E-04   -0.30728E-04  9334   0.636E-02    0.339E-02
RMM:   3    -0.594127264489E+03   -0.19997E-04   -0.11443E-04  9998   0.332E-02    0.460E-02
RMM:   4    -0.594127254222E+03    0.10266E-04   -0.40394E-05  9215   0.194E-02    0.318E-02
RMM:   5    -0.594127249859E+03    0.43631E-05   -0.22842E-05  8102   0.160E-02    0.238E-02
RMM:   6    -0.594127245021E+03    0.48382E-05   -0.16483E-05  8361   0.758E-03    0.113E-02
RMM:   7    -0.594127242414E+03    0.26070E-05   -0.58624E-06  6278   0.703E-03    0.535E-03
RMM:   8    -0.594127241923E+03    0.49141E-06   -0.12853E-06  5341   0.409E-03
  18 F= -.59412724E+03 E0= -.59412813E+03  d E =-.151824E-03
 ZBRENT: can't locate minimum, use default step
 trial-energy change:   -0.000152  1 .order   -0.000148   -0.000160   -0.000137
 step:   3.9829(harm=  7.0938)  dis= 0.01406  next Energy=  -594.127658 (dE=-0.568E-03)
 bond charge predicted
       N       E                     dE             d eps       ncg     rms          rms(c)
DAV:   1    -0.594127339337E+03   -0.96923E-04   -0.14135E-01  8480   0.773E-01    0.105E-01
RMM:   2    -0.594127541365E+03   -0.20203E-03   -0.25000E-03  9428   0.175E-01    0.902E-02
RMM:   3    -0.594127796040E+03   -0.25467E-03   -0.10531E-03 10067   0.102E-01    0.156E-01
RMM:   4    -0.594127565153E+03    0.23089E-03   -0.28506E-04  9463   0.566E-02    0.458E-02
RMM:   5    -0.594127640479E+03   -0.75326E-04   -0.19443E-04 10631   0.304E-02    0.815E-02
RMM:   6    -0.594127544914E+03    0.95565E-04   -0.93273E-05  9935   0.257E-02    0.229E-02
RMM:   7    -0.594127539239E+03    0.56744E-05   -0.33963E-05  9234   0.137E-02    0.159E-02
RMM:   8    -0.594127536608E+03    0.26314E-05   -0.10130E-05  6768   0.874E-03    0.724E-03
RMM:   9    -0.594127536572E+03    0.36111E-07   -0.49304E-06  6145   0.474E-03
  19 F= -.59412754E+03 E0= -.59412843E+03  d E =-.446473E-03
 curvature: -16.36 expect dE=-0.116E-02 dE for cont linesearch -0.476E-04
 ZBRENT: increasing intervall
 opt :   9.9573  next Energy=  -594.127358 (dE=-0.268E-03)
 bond charge predicted
       N       E                     dE             d eps       ncg     rms          rms(c)
DAV:   1    -0.594126608491E+03    0.92812E-03   -0.56486E-01  8480   0.155E+00    0.209E-01
RMM:   2    -0.594127413236E+03   -0.80474E-03   -0.99466E-03  9485   0.349E-01    0.177E-01
RMM:   3    -0.594128438077E+03   -0.10248E-02   -0.41739E-03 10087   0.202E-01    0.308E-01
RMM:   4    -0.594127432570E+03    0.10055E-02   -0.11019E-03  9325   0.113E-01    0.695E-02
RMM:   5    -0.594127735658E+03   -0.30309E-03   -0.72452E-04 10324   0.637E-02    0.152E-01
RMM:   6    -0.594127448559E+03    0.28710E-03   -0.28969E-04  9973   0.464E-02    0.506E-02
RMM:   7    -0.594127412765E+03    0.35794E-04   -0.16208E-04 10847   0.244E-02    0.325E-02
RMM:   8    -0.594127399994E+03    0.12771E-04   -0.35296E-05  8618   0.169E-02    0.133E-02
RMM:   9    -0.594127400208E+03   -0.21447E-06   -0.21547E-05  8225   0.734E-03    0.815E-03
RMM:  10    -0.594127400573E+03   -0.36501E-06   -0.65354E-06  6337   0.633E-03
  20 F= -.59412740E+03 E0= -.59412831E+03  d E =-.310475E-03
 curvature:  61.29 expect dE= 0.217E-01 dE for cont linesearch  0.764E-03
 ZBRENT: bracketing found
 ZBRENT: interpolating
 opt :   5.9298  next Energy=  -594.127589 (dE=-0.499E-03)
 bond charge predicted
       N       E                     dE             d eps       ncg     rms          rms(c)
DAV:   1    -0.594127237644E+03    0.16256E-03   -0.25653E-01  8480   0.104E+00    0.140E-01
RMM:   2    -0.594127603182E+03   -0.36554E-03   -0.44941E-03  9289   0.241E-01    0.119E-01
RMM:   3    -0.594128062929E+03   -0.45975E-03   -0.18797E-03 10119   0.136E-01    0.205E-01
RMM:   4    -0.594127612315E+03    0.45061E-03   -0.49547E-04  9278   0.760E-02    0.460E-02
RMM:   5    -0.594127804447E+03   -0.19213E-03   -0.36374E-04 10607   0.420E-02    0.114E-01
RMM:   6    -0.594127617934E+03    0.18651E-03   -0.14456E-04  9819   0.335E-02    0.350E-02
RMM:   7    -0.594127605638E+03    0.12296E-04   -0.68386E-05  9533   0.214E-02    0.234E-02
RMM:   8    -0.594127600246E+03    0.53917E-05   -0.23854E-05  8230   0.115E-02    0.836E-03
RMM:   9    -0.594127600359E+03   -0.11228E-06   -0.92045E-06  6639   0.475E-03
  21 F= -.59412760E+03 E0= -.59412850E+03  d E =-.510260E-03
 curvature:  -4.21 expect dE=-0.428E-03 dE for cont linesearch -0.565E-06
 trial: gam= 0.50293 g(F)=  0.102E-03 g(S)=  0.000E+00 ort = 0.116E-04 (trialstep = 0.198E+01)
 search vector abs. value=  0.366E-03
 bond charge predicted
       N       E                     dE             d eps       ncg     rms          rms(c)
DAV:   1    -0.594127712871E+03   -0.11262E-03   -0.23067E-02  8656   0.312E-01    0.451E-02
RMM:   2    -0.594127740492E+03   -0.27621E-04   -0.42607E-04  9564   0.726E-02    0.392E-02
RMM:   3    -0.594127774773E+03   -0.34281E-04   -0.19511E-04  9884   0.444E-02    0.611E-02
RMM:   4    -0.594127789871E+03   -0.15099E-04   -0.73805E-05 10276   0.228E-02    0.497E-02
RMM:   5    -0.594127733050E+03    0.56821E-04   -0.30637E-05  9652   0.151E-02    0.135E-02
RMM:   6    -0.594127736679E+03   -0.36290E-05   -0.21084E-05  8109   0.141E-02    0.197E-02
RMM:   7    -0.594127731730E+03    0.49490E-05   -0.59430E-06  6328   0.893E-03    0.439E-03
RMM:   8    -0.594127731859E+03   -0.12929E-06   -0.27860E-06  5767   0.439E-03
  22 F= -.59412773E+03 E0= -.59412864E+03  d E =-.131501E-03
 trial-energy change:   -0.000132  1 .order   -0.000132   -0.000213   -0.000051
 step:   2.6034(harm=  2.6034)  dis= 0.00661  next Energy=  -594.127740 (dE=-0.140E-03)
 reached required accuracy - stopping structural energy minimisation
 augmentation electrons   31.576843844525733     
 soft         electrons   253.55098134727334     
 augmentation electrons   31.576843844525733     
 soft         electrons   253.55098134727334     
 augmentation electrons   31.576843844525733     
 soft         electrons   253.55098134727334     
 augmentation electrons   31.576843844525733     
 soft         electrons   253.55098134727334     
 augmentation electrons   31.576843844525733     
 soft         electrons   253.55098134727334     
 augmentation electrons   31.576843844525733     
 soft         electrons   253.55098134727334     
 augmentation electrons   31.576843844525733     
 soft         electrons   253.55098134727334     
 augmentation electrons   31.576843844525733     
 soft         electrons   253.55098134727334     
 augmentation electrons   31.576843844525733     
 soft         electrons   253.55098134727334     
 augmentation electrons   31.576843844525733     
 soft         electrons   253.55098134727334     
 augmentation electrons   31.576843844525733     
 soft         electrons   253.55098134727334     
 augmentation electrons   31.576843844525733     
 soft         electrons   253.55098134727334     
 augmentation electrons   31.576843844525733     
 soft         electrons   253.55098134727334     
 augmentation electrons   31.576843844525733     
 soft         electrons   253.55098134727334     
 augmentation electrons   31.576843844525733     
 soft         electrons   253.55098134727334     
 augmentation electrons   31.576843844525733     
 soft         electrons   253.55098134727334     
 augmentation electrons   31.576843844525733     
 soft         electrons   253.55098134727334     
 augmentation electrons   31.576843844525733     
 soft         electrons   253.55098134727334     
 augmentation electrons   31.576843844525733     
 soft         electrons   253.55098134727334     
 augmentation electrons   31.576843844525733     
 soft         electrons   253.55098134727334     
 augmentation electrons   31.576843844525733     
 soft         electrons   253.55098134727334     
 augmentation electrons   31.576843844525733     
 soft         electrons   253.55098134727334     
 augmentation electrons   31.576843844525733     
 soft         electrons   253.55098134727334     
 augmentation electrons   31.576843844525733     
 soft         electrons   253.55098134727334     
 augmentation electrons   31.576843844525733     
 soft         electrons   253.55098134727334     
 augmentation electrons   31.576843844525733     
 soft         electrons   253.55098134727334     
 augmentation electrons   31.576843844525733     
 soft         electrons   253.55098134727334     
 augmentation electrons   31.576843844525733     
 soft         electrons   253.55098134727334     
 augmentation electrons   31.576843844525733     
 soft         electrons   253.55098134727334     
 augmentation electrons   31.576843844525733     
 soft         electrons   253.55098134727334     
 augmentation electrons   31.576843844525733     
 soft         electrons   253.55098134727334     
 augmentation electrons   31.576843844525733     
 soft         electrons   253.55098134727334     
 augmentation electrons   31.576843844525733     
 soft         electrons   253.55098134727334     
 augmentation electrons   31.576843844525733     
 soft         electrons   253.55098134727334     
 augmentation electrons   31.576843844525733     
 soft         electrons   253.55098134727334     
 augmentation electrons   31.576843844525733     
 soft         electrons   253.55098134727334     
 augmentation electrons   31.576843844525733     
 soft         electrons   253.55098134727334     
 augmentation electrons   31.576843844525733     
 soft         electrons   253.55098134727334     
 augmentation electrons   31.576843844525733     
 soft         electrons   253.55098134727334     
 augmentation electrons   31.576843844525733     
 soft         electrons   253.55098134727334     
 augmentation electrons   31.576843844525733     
 soft         electrons   253.55098134727334     
 augmentation electrons   31.576843844525733     
 soft         electrons   253.55098134727334     
 augmentation electrons   31.576843844525733     
 soft         electrons   253.55098134727334     
 augmentation electrons   31.576843844525733     
 soft         electrons   253.55098134727334     
 augmentation electrons   31.576843844525733     
 soft         electrons   253.55098134727334     
 augmentation electrons   31.576843844525733     
 soft         electrons   253.55098134727334     
 augmentation electrons   31.576843844525733     
 soft         electrons   253.55098134727334     
 augmentation electrons   31.576843844525733     
 soft         electrons   253.55098134727334     
 augmentation electrons   31.576843844525733     
 soft         electrons   253.55098134727334     
 augmentation electrons   31.576843844525733     
 soft         electrons   253.55098134727334     
 augmentation electrons   31.576843844525733     
 soft         electrons   253.55098134727334     
 augmentation electrons   31.576843844525733     
 soft         electrons   253.55098134727334     
 augmentation electrons   31.576843844525733     
 soft         electrons   253.55098134727334     
 augmentation electrons   31.576843844525733     
 soft         electrons   253.55098134727334     
 augmentation electrons   31.576843844525733     
 soft         electrons   253.55098134727334     
 augmentation electrons   31.576843844525733     
 soft         electrons   253.55098134727334     
 augmentation electrons   31.576843844525733     
 soft         electrons   253.55098134727334     
 augmentation electrons   31.576843844525733     
 soft         electrons   253.55098134727334     
 augmentation electrons   31.576843844525733     
 soft         electrons   253.55098134727334     
 augmentation electrons   31.576843844525733     
 soft         electrons   253.55098134727334     
 augmentation electrons   31.576843844525733     
 soft         electrons   253.55098134727334     
 augmentation electrons   31.576843844525733     
 soft         electrons   253.55098134727334     
 augmentation electrons   31.576843844525733     
 soft         electrons   253.55098134727334     
 augmentation electrons   31.576843844525733     
 augmentation electrons   31.576843844525733     
 soft         electrons   253.55098134727334     
 augmentation electrons   31.576843844525733     
 soft         electrons   253.55098134727334     
 augmentation electrons   31.576843844525733     
 soft         electrons   253.55098134727334     
 augmentation electrons   31.576843844525733     
 soft         electrons   253.55098134727334     
 augmentation electrons   31.576843844525733     
 soft         electrons   253.55098134727334     
 augmentation electrons   31.576843844525733     
 soft         electrons   253.55098134727334     
 augmentation electrons   31.576843844525733     
 soft         electrons   253.55098134727334     
 augmentation electrons   31.576843844525733     
 soft         electrons   253.55098134727334     
 soft         electrons   253.55098134727334     
 total        electrons   285.12782519179905     
 total        electrons   285.12782519179905     
 total        electrons   285.12782519179905     
 total        electrons   285.12782519179905     
 total        electrons   285.12782519179905     
 total        electrons   285.12782519179905     
 total        electrons   285.12782519179905     
 total        electrons   285.12782519179905     
 total        electrons   285.12782519179905     
 total        electrons   285.12782519179905     
 total        electrons   285.12782519179905     
 total        electrons   285.12782519179905     
 total        electrons   285.12782519179905     
 total        electrons   285.12782519179905     
 total        electrons   285.12782519179905     
 total        electrons   285.12782519179905     
 total        electrons   285.12782519179905     
 total        electrons   285.12782519179905     
 total        electrons   285.12782519179905     
 total        electrons   285.12782519179905     
 total        electrons   285.12782519179905     
 total        electrons   285.12782519179905     
 total        electrons   285.12782519179905     
 total        electrons   285.12782519179905     
 total        electrons   285.12782519179905     
 total        electrons   285.12782519179905     
 total        electrons   285.12782519179905     
 total        electrons   285.12782519179905     
 total        electrons   285.12782519179905     
 total        electrons   285.12782519179905     
 total        electrons   285.12782519179905     
 total        electrons   285.12782519179905     
 total        electrons   285.12782519179905     
 total        electrons   285.12782519179905     
 total        electrons   285.12782519179905     
 total        electrons   285.12782519179905     
 total        electrons   285.12782519179905     
 total        electrons   285.12782519179905     
 total        electrons   285.12782519179905     
 total        electrons   285.12782519179905     
 total        electrons   285.12782519179905     
 total        electrons   285.12782519179905     
 total        electrons   285.12782519179905     
 total        electrons   285.12782519179905     
 total        electrons   285.12782519179905     
 total        electrons   285.12782519179905     
 total        electrons   285.12782519179905     
 total        electrons   285.12782519179905     
 total        electrons   285.12782519179905     
 total        electrons   285.12782519179905     
 total        electrons   285.12782519179905     
 total        electrons   285.12782519179905     
 total        electrons   285.12782519179905     
 total        electrons   285.12782519179905     
 total        electrons   285.12782519179905     
 total        electrons   285.12782519179905     
 total        electrons   285.12782519179905     
 total        electrons   285.12782519179905     
 total        electrons   285.12782519179905     
 total        electrons   285.12782519179905     
 total        electrons   285.12782519179905     
 total        electrons   285.12782519179905     
 total        electrons   285.12782519179905     
 total        electrons   285.12782519179905     
 total        electrons   285.12782519179905     
 total        electrons   285.12782519179905     
 total        electrons   285.12782519179905     
 total        electrons   285.12782519179905     
 total        electrons   285.12782519179905     
 total        electrons   285.12782519179905     
 total        electrons   285.12782519179905     
 total        electrons   285.12782519179905     
Note: The following floating-point exceptions are signalling: IEEE_OVERFLOW_FLAG
Note: The following floating-point exceptions are signalling: IEEE_OVERFLOW_FLAG
Note: The following floating-point exceptions are signalling: IEEE_OVERFLOW_FLAG
Note: The following floating-point exceptions are signalling: IEEE_OVERFLOW_FLAG
Note: The following floating-point exceptions are signalling: IEEE_OVERFLOW_FLAG
Note: The following floating-point exceptions are signalling: IEEE_OVERFLOW_FLAG
Note: The following floating-point exceptions are signalling: IEEE_OVERFLOW_FLAG
Note: The following floating-point exceptions are signalling: IEEE_OVERFLOW_FLAG
Note: The following floating-point exceptions are signalling: IEEE_OVERFLOW_FLAG
Note: The following floating-point exceptions are signalling: IEEE_OVERFLOW_FLAG
Note: The following floating-point exceptions are signalling: IEEE_OVERFLOW_FLAG
Note: The following floating-point exceptions are signalling: IEEE_OVERFLOW_FLAG
Note: The following floating-point exceptions are signalling: IEEE_OVERFLOW_FLAG
Note: The following floating-point exceptions are signalling: IEEE_OVERFLOW_FLAG
Note: The following floating-point exceptions are signalling: IEEE_OVERFLOW_FLAG
Note: The following floating-point exceptions are signalling: IEEE_OVERFLOW_FLAG
Note: The following floating-point exceptions are signalling: IEEE_OVERFLOW_FLAG
Note: The following floating-point exceptions are signalling: IEEE_OVERFLOW_FLAG
Note: The following floating-point exceptions are signalling: IEEE_OVERFLOW_FLAG
Note: The following floating-point exceptions are signalling: IEEE_OVERFLOW_FLAG
Note: The following floating-point exceptions are signalling: IEEE_OVERFLOW_FLAG
Note: The following floating-point exceptions are signalling: IEEE_OVERFLOW_FLAG
Note: The following floating-point exceptions are signalling: IEEE_OVERFLOW_FLAG
Note: The following floating-point exceptions are signalling: IEEE_OVERFLOW_FLAG
Note: The following floating-point exceptions are signalling: IEEE_OVERFLOW_FLAG
Note: The following floating-point exceptions are signalling: IEEE_OVERFLOW_FLAG
Note: The following floating-point exceptions are signalling: IEEE_OVERFLOW_FLAG
Note: The following floating-point exceptions are signalling: IEEE_OVERFLOW_FLAG
Note: The following floating-point exceptions are signalling: IEEE_OVERFLOW_FLAG
Note: The following floating-point exceptions are signalling: IEEE_OVERFLOW_FLAG
Note: The following floating-point exceptions are signalling: IEEE_OVERFLOW_FLAG
Note: The following floating-point exceptions are signalling: IEEE_OVERFLOW_FLAG
Note: The following floating-point exceptions are signalling: IEEE_OVERFLOW_FLAG
Note: The following floating-point exceptions are signalling: IEEE_OVERFLOW_FLAG
Note: The following floating-point exceptions are signalling: IEEE_OVERFLOW_FLAG
Note: The following floating-point exceptions are signalling: IEEE_OVERFLOW_FLAG
Note: The following floating-point exceptions are signalling: IEEE_OVERFLOW_FLAG
Note: The following floating-point exceptions are signalling: IEEE_OVERFLOW_FLAG
Note: The following floating-point exceptions are signalling: IEEE_OVERFLOW_FLAG
Note: The following floating-point exceptions are signalling: IEEE_OVERFLOW_FLAG
Note: The following floating-point exceptions are signalling: IEEE_OVERFLOW_FLAG
Note: The following floating-point exceptions are signalling: IEEE_OVERFLOW_FLAG
Note: The following floating-point exceptions are signalling: IEEE_OVERFLOW_FLAG
Note: The following floating-point exceptions are signalling: IEEE_OVERFLOW_FLAG
Note: The following floating-point exceptions are signalling: IEEE_OVERFLOW_FLAG
Note: The following floating-point exceptions are signalling: IEEE_OVERFLOW_FLAG
Note: The following floating-point exceptions are signalling: IEEE_OVERFLOW_FLAG
Note: The following floating-point exceptions are signalling: IEEE_OVERFLOW_FLAG
Note: The following floating-point exceptions are signalling: IEEE_OVERFLOW_FLAG
Note: The following floating-point exceptions are signalling: IEEE_OVERFLOW_FLAG
Note: The following floating-point exceptions are signalling: IEEE_OVERFLOW_FLAG
Note: The following floating-point exceptions are signalling: IEEE_OVERFLOW_FLAG
Note: The following floating-point exceptions are signalling: IEEE_OVERFLOW_FLAG
Note: The following floating-point exceptions are signalling: IEEE_OVERFLOW_FLAG
Note: The following floating-point exceptions are signalling: IEEE_OVERFLOW_FLAG
Note: The following floating-point exceptions are signalling: IEEE_OVERFLOW_FLAG
Note: The following floating-point exceptions are signalling: IEEE_OVERFLOW_FLAG
Note: The following floating-point exceptions are signalling: IEEE_OVERFLOW_FLAG
Note: The following floating-point exceptions are signalling: IEEE_OVERFLOW_FLAG
Note: The following floating-point exceptions are signalling: IEEE_OVERFLOW_FLAG
Note: The following floating-point exceptions are signalling: IEEE_OVERFLOW_FLAG
Note: The following floating-point exceptions are signalling: IEEE_OVERFLOW_FLAG
Note: The following floating-point exceptions are signalling: IEEE_OVERFLOW_FLAG
Note: The following floating-point exceptions are signalling: IEEE_OVERFLOW_FLAG
Note: The following floating-point exceptions are signalling: IEEE_OVERFLOW_FLAG
Note: The following floating-point exceptions are signalling: IEEE_OVERFLOW_FLAG
Note: The following floating-point exceptions are signalling: IEEE_OVERFLOW_FLAG
Note: The following floating-point exceptions are signalling: IEEE_OVERFLOW_FLAG
Note: The following floating-point exceptions are signalling: IEEE_OVERFLOW_FLAG
Note: The following floating-point exceptions are signalling: IEEE_OVERFLOW_FLAG
Note: The following floating-point exceptions are signalling: IEEE_OVERFLOW_FLAG
Note: The following floating-point exceptions are signalling: IEEE_OVERFLOW_FLAG
