   51   51   85    1
  0.2316787E+02  0.8645320E-09  0.6085000E-09  0.2593596E-08  0.5000000E-15
   1.0000000000000000E-004
  CAR 
 Name                                    
    191    149    128

  0.3742002E-15  0.3742002E-15  0.3742002E-15  0.3367003E-02
    1      -13.976464   1.000000
    2      -12.625410   1.000000
    3      -12.476883   1.000000
    4      -11.941595   1.000000
    5      -11.644894   1.000000
    6      -11.227242   1.000000
    7      -11.178743   1.000000
    8      -11.127723   1.000000
    9      -11.065523   1.000000
   10      -10.691387   1.000000
   11      -10.688749   1.000000
   12      -10.477104   1.000000
   13      -10.162240   1.000000
   14      -10.146180   1.000000
   15       -9.835810   1.000000
   16       -9.808598   1.000000
   17       -9.338190   1.000000
   18       -9.128176   1.000000
   19       -8.887951   1.000000
   20       -8.795993   1.000000
   21       -8.735038   1.000000
   22       -8.388333   1.000000
   23       -8.324839   1.000000
   24       -8.109731   1.000000
   25       -8.045376   1.000000
   26       -8.029090   1.000000
   27       -7.525495   1.000000
   28       -7.340938   1.000000
   29       -7.029302   1.000000
   30       -6.768645   1.000000
   31       -6.613366   1.000000
   32       -6.505686   1.000000
   33       -6.139676   1.000000
   34       -6.024179   1.000000
   35       -5.804327   1.000000
   36       -5.687967   1.000000
   37       -5.608890   1.000000
   38       -5.556196   1.000000
   39       -5.522925   1.000000
   40       -5.465861   1.000000
   41       -5.339729   1.000000
   42       -5.220568   1.000000
   43       -5.147967   1.000000
   44       -5.084001   1.000000
   45       -4.992201   1.000000
   46       -4.890009   1.000000
   47       -4.800253   1.000000
   48       -4.690949   1.000000
   49       -4.680110   1.000000
   50       -4.631559   1.000000
   51       -4.584910   1.000000
   52       -4.566702   1.000000
   53       -4.445659   1.000000
   54       -4.383950   1.000000
   55       -4.289295   1.000000
   56       -4.248912   1.000000
   57       -4.105690   1.000000
   58       -4.093188   1.000000
   59       -4.029184   1.000000
   60       -4.015295   1.000000
   61       -3.882969   1.000000
   62       -3.807074   1.000000
   63       -3.629209   1.000000
   64       -3.485609   1.000000
   65       -3.469658   1.000000
   66       -3.416009   1.000000
   67       -3.390752   1.000000
   68       -3.355160   1.000000
   69       -3.318496   1.000000
   70       -3.295896   1.000000
   71       -3.270027   1.000000
   72       -3.158325   1.000000
   73       -3.131450   1.000000
   74       -2.787289   1.000000
   75       -2.627751   1.000000
   76       -2.466766   1.000000
   77       -2.346475   1.000000
   78       -2.301664   1.000000
   79       -2.264070   1.000000
   80       -2.249790   1.000000
   81       -1.805812   1.000000
   82       -1.756744   1.000000
   83       -1.506671   1.000000
   84       -1.458214   1.000000
   85       -1.176896   1.000000
   86       -1.155762   1.000000
   87       -1.074284   1.000000
   88       -1.021065   1.000000
   89       -0.918262   1.000000
   90       -0.419843   1.000000
   91       -0.361815   1.000000
   92       -0.084260   1.034644
   93        0.005405   0.813386
   94        0.025362   0.669636
   95        0.110973   0.058433
   96        0.153087  -0.031082
   97        0.169562  -0.035436
   98        0.466412  -0.000000
   99        0.480930  -0.000000
  100        0.543575  -0.000000
  101        0.580524  -0.000000
  102        0.681073  -0.000000
  103        0.740922  -0.000000
  104        0.755686  -0.000000
  105        0.840082  -0.000000
  106        0.911402  -0.000000
  107        1.080065  -0.000000
  108        1.233213  -0.000000
  109        1.285511  -0.000000
  110        1.381836  -0.000000
  111        1.415931  -0.000000
  112        1.452167  -0.000000
  113        1.487468  -0.000000
  114        1.555063  -0.000000
  115        1.571527  -0.000000
  116        1.686205  -0.000000
  117        1.701604  -0.000000
  118        1.748594  -0.000000
  119        1.788563  -0.000000
  120        1.875770  -0.000000
  121        1.931694  -0.000000
  122        2.073841  -0.000000
  123        2.087725  -0.000000
  124        2.154453  -0.000000
  125        2.202348  -0.000000
  126        2.224750  -0.000000
  127        2.256607  -0.000000
  128        2.272192  -0.000000

  0.1111111E+00  0.3729374E-15  0.3860503E-15  0.6734007E-02
    1      -13.949429   1.000000
    2      -12.606868   1.000000
    3      -12.588088   1.000000
    4      -11.882638   1.000000
    5      -11.628804   1.000000
    6      -11.218743   1.000000
    7      -11.187549   1.000000
    8      -11.121158   1.000000
    9      -11.095056   1.000000
   10      -10.689253   1.000000
   11      -10.685618   1.000000
   12      -10.482112   1.000000
   13      -10.156537   1.000000
   14      -10.144077   1.000000
   15       -9.822131   1.000000
   16       -9.791467   1.000000
   17       -9.309436   1.000000
   18       -9.146292   1.000000
   19       -8.900217   1.000000
   20       -8.782246   1.000000
   21       -8.724597   1.000000
   22       -8.433697   1.000000
   23       -8.380382   1.000000
   24       -8.096336   1.000000
   25       -8.076998   1.000000
   26       -8.032069   1.000000
   27       -7.594248   1.000000
   28       -7.417888   1.000000
   29       -6.959371   1.000000
   30       -6.678954   1.000000
   31       -6.588604   1.000000
   32       -6.470116   1.000000
   33       -6.117216   1.000000
   34       -6.013676   1.000000
   35       -5.908652   1.000000
   36       -5.685284   1.000000
   37       -5.625153   1.000000
   38       -5.525933   1.000000
   39       -5.471251   1.000000
   40       -5.436453   1.000000
   41       -5.356405   1.000000
   42       -5.201104   1.000000
   43       -5.116267   1.000000
   44       -5.056544   1.000000
   45       -4.995770   1.000000
   46       -4.839007   1.000000
   47       -4.817623   1.000000
   48       -4.695029   1.000000
   49       -4.665393   1.000000
   50       -4.641327   1.000000
   51       -4.569752   1.000000
   52       -4.550796   1.000000
   53       -4.440226   1.000000
   54       -4.375429   1.000000
   55       -4.279100   1.000000
   56       -4.234884   1.000000
   57       -4.137470   1.000000
   58       -4.105941   1.000000
   59       -4.047200   1.000000
   60       -4.016241   1.000000
   61       -3.874456   1.000000
   62       -3.811090   1.000000
   63       -3.640048   1.000000
   64       -3.509203   1.000000
   65       -3.446225   1.000000
   66       -3.429577   1.000000
   67       -3.390684   1.000000
   68       -3.353380   1.000000
   69       -3.308993   1.000000
   70       -3.284380   1.000000
   71       -3.244823   1.000000
   72       -3.182711   1.000000
   73       -3.124849   1.000000
   74       -2.865555   1.000000
   75       -2.609427   1.000000
   76       -2.468293   1.000000
   77       -2.355163   1.000000
   78       -2.337890   1.000000
   79       -2.297465   1.000000
   80       -2.276116   1.000000
   81       -1.821484   1.000000
   82       -1.694290   1.000000
   83       -1.504728   1.000000
   84       -1.458191   1.000000
   85       -1.203467   1.000000
   86       -1.137936   1.000000
   87       -1.053249   1.000000
   88       -0.992573   1.000000
   89       -0.821421   1.000000
   90       -0.483583   1.000000
   91       -0.430288   1.000000
   92       -0.072370   1.035166
   93        0.021767   0.697613
   94        0.035812   0.584709
   95        0.083726   0.203720
   96        0.121115   0.023161
   97        0.189210  -0.030493
   98        0.462447  -0.000000
   99        0.491041  -0.000000
  100        0.527234  -0.000000
  101        0.587013  -0.000000
  102        0.690841  -0.000000
  103        0.753402  -0.000000
  104        0.780178  -0.000000
  105        0.844789  -0.000000
  106        0.936152  -0.000000
  107        1.095595  -0.000000
  108        1.262543  -0.000000
  109        1.276402  -0.000000
  110        1.402028  -0.000000
  111        1.421418  -0.000000
  112        1.460970  -0.000000
  113        1.509932  -0.000000
  114        1.565748  -0.000000
  115        1.587997  -0.000000
  116        1.662842  -0.000000
  117        1.669341  -0.000000
  118        1.759092  -0.000000
  119        1.784691  -0.000000
  120        1.879166  -0.000000
  121        1.937006  -0.000000
  122        2.031263  -0.000000
  123        2.066164  -0.000000
  124        2.134707  -0.000000
  125        2.209662  -0.000000
  126        2.217171  -0.000000
  127        2.245853  -0.000000
  128        2.274022  -0.000000

  0.2222222E+00  0.3922785E-15  0.3630220E-15  0.6734007E-02
    1      -13.869085   1.000000
    2      -12.832836   1.000000
    3      -12.528233   1.000000
    4      -11.839909   1.000000
    5      -11.582475   1.000000
    6      -11.265354   1.000000
    7      -11.160254   1.000000
    8      -11.113947   1.000000
    9      -11.093297   1.000000
   10      -10.681284   1.000000
   11      -10.674978   1.000000
   12      -10.532791   1.000000
   13      -10.147017   1.000000
   14      -10.143177   1.000000
   15       -9.781038   1.000000
   16       -9.738816   1.000000
   17       -9.220310   1.000000
   18       -9.178564   1.000000
   19       -8.913410   1.000000
   20       -8.755152   1.000000
   21       -8.712024   1.000000
   22       -8.553746   1.000000
   23       -8.513992   1.000000
   24       -8.194706   1.000000
   25       -8.170307   1.000000
   26       -7.886014   1.000000
   27       -7.802090   1.000000
   28       -7.435438   1.000000
   29       -6.893451   1.000000
   30       -6.554458   1.000000
   31       -6.485090   1.000000
   32       -6.375933   1.000000
   33       -6.213139   1.000000
   34       -6.054309   1.000000
   35       -5.934027   1.000000
   36       -5.630570   1.000000
   37       -5.591627   1.000000
   38       -5.511073   1.000000
   39       -5.494123   1.000000
   40       -5.310242   1.000000
   41       -5.285983   1.000000
   42       -5.165189   1.000000
   43       -5.068017   1.000000
   44       -5.000572   1.000000
   45       -4.974812   1.000000
   46       -4.958970   1.000000
   47       -4.783956   1.000000
   48       -4.671531   1.000000
   49       -4.632857   1.000000
   50       -4.570542   1.000000
   51       -4.543128   1.000000
   52       -4.504607   1.000000
   53       -4.436458   1.000000
   54       -4.343504   1.000000
   55       -4.283431   1.000000
   56       -4.220036   1.000000
   57       -4.149058   1.000000
   58       -4.137887   1.000000
   59       -4.043945   1.000000
   60       -4.022602   1.000000
   61       -3.874127   1.000000
   62       -3.816195   1.000000
   63       -3.686138   1.000000
   64       -3.573818   1.000000
   65       -3.469380   1.000000
   66       -3.441682   1.000000
   67       -3.394014   1.000000
   68       -3.345799   1.000000
   69       -3.308797   1.000000
   70       -3.266772   1.000000
   71       -3.247542   1.000000
   72       -3.144723   1.000000
   73       -3.060486   1.000000
   74       -2.991235   1.000000
   75       -2.580341   1.000000
   76       -2.515268   1.000000
   77       -2.489897   1.000000
   78       -2.468125   1.000000
   79       -2.377220   1.000000
   80       -2.142337   1.000000
   81       -1.958645   1.000000
   82       -1.563652   1.000000
   83       -1.486475   1.000000
   84       -1.424195   1.000000
   85       -1.242287   1.000000
   86       -1.074948   1.000000
   87       -1.002885   1.000000
   88       -0.929218   1.000000
   89       -0.615491   1.000000
   90       -0.589089   1.000000
   91       -0.576262   1.000000
   92       -0.164964   1.005545
   93       -0.027406   0.970819
   94        0.009048   0.789483
   95        0.081439   0.219118
   96        0.206360  -0.022843
   97        0.350248  -0.000073
   98        0.374927  -0.000017
   99        0.419402  -0.000001
  100        0.494247  -0.000000
  101        0.611666  -0.000000
  102        0.685317  -0.000000
  103        0.731931  -0.000000
  104        0.853570  -0.000000
  105        0.895825  -0.000000
  106        1.097215  -0.000000
  107        1.171049  -0.000000
  108        1.188116  -0.000000
  109        1.355966  -0.000000
  110        1.401501  -0.000000
  111        1.442095  -0.000000
  112        1.493552  -0.000000
  113        1.546558  -0.000000
  114        1.579132  -0.000000
  115        1.591900  -0.000000
  116        1.602326  -0.000000
  117        1.683986  -0.000000
  118        1.745849  -0.000000
  119        1.782614  -0.000000
  120        1.888049  -0.000000
  121        1.956095  -0.000000
  122        1.966232  -0.000000
  123        2.012929  -0.000000
  124        2.041307  -0.000000
  125        2.167921  -0.000000
  126        2.187779  -0.000000
  127        2.273034  -0.000000
  128        2.310894  -0.000000

  0.3333333E+00  0.3713828E-15  0.3468587E-15  0.6734007E-02
    1      -13.737796   1.000000
    2      -13.093504   1.000000
    3      -12.412701   1.000000
    4      -11.922375   1.000000
    5      -11.514804   1.000000
    6      -11.308696   1.000000
    7      -11.123384   1.000000
    8      -11.105408   1.000000
    9      -11.030037   1.000000
   10      -10.673116   1.000000
   11      -10.659788   1.000000
   12      -10.636912   1.000000
   13      -10.150225   1.000000
   14      -10.145693   1.000000
   15       -9.720129   1.000000
   16       -9.656958   1.000000
   17       -9.206839   1.000000
   18       -9.097902   1.000000
   19       -8.882409   1.000000
   20       -8.767846   1.000000
   21       -8.753009   1.000000
   22       -8.647503   1.000000
   23       -8.622573   1.000000
   24       -8.315137   1.000000
   25       -8.286977   1.000000
   26       -8.079690   1.000000
   27       -7.649431   1.000000
   28       -7.332021   1.000000
   29       -6.926421   1.000000
   30       -6.566684   1.000000
   31       -6.507357   1.000000
   32       -6.397866   1.000000
   33       -6.148089   1.000000
   34       -6.017857   1.000000
   35       -5.812069   1.000000
   36       -5.644025   1.000000
   37       -5.507501   1.000000
   38       -5.477104   1.000000
   39       -5.436083   1.000000
   40       -5.256113   1.000000
   41       -5.220728   1.000000
   42       -5.159924   1.000000
   43       -5.156028   1.000000
   44       -5.022667   1.000000
   45       -4.955963   1.000000
   46       -4.846615   1.000000
   47       -4.759537   1.000000
   48       -4.643951   1.000000
   49       -4.597146   1.000000
   50       -4.533467   1.000000
   51       -4.490956   1.000000
   52       -4.466878   1.000000
   53       -4.419608   1.000000
   54       -4.322983   1.000000
   55       -4.246191   1.000000
   56       -4.227811   1.000000
   57       -4.191550   1.000000
   58       -4.066844   1.000000
   59       -4.044473   1.000000
   60       -3.993590   1.000000
   61       -3.890042   1.000000
   62       -3.833639   1.000000
   63       -3.715800   1.000000
   64       -3.673956   1.000000
   65       -3.497335   1.000000
   66       -3.488988   1.000000
   67       -3.428311   1.000000
   68       -3.382322   1.000000
   69       -3.326828   1.000000
   70       -3.277970   1.000000
   71       -3.239939   1.000000
   72       -3.061676   1.000000
   73       -2.967805   1.000000
   74       -2.956291   1.000000
   75       -2.717837   1.000000
   76       -2.686372   1.000000
   77       -2.592612   1.000000
   78       -2.490991   1.000000
   79       -2.415059   1.000000
   80       -2.132759   1.000000
   81       -1.934705   1.000000
   82       -1.656805   1.000000
   83       -1.543540   1.000000
   84       -1.264132   1.000000
   85       -1.203681   1.000000
   86       -0.972488   1.000000
   87       -0.899704   1.000000
   88       -0.857817   1.000000
   89       -0.744534   1.000000
   90       -0.707011   1.000000
   91       -0.390426   1.000000
   92       -0.279303   1.000021
   93       -0.077748   1.035438
   94       -0.004691   0.873208
   95        0.133178  -0.006439
   96        0.215269  -0.018814
   97        0.304302  -0.000788
   98        0.313499  -0.000508
   99        0.365323  -0.000030
  100        0.575743  -0.000000
  101        0.631483  -0.000000
  102        0.675676  -0.000000
  103        0.861061  -0.000000
  104        0.898620  -0.000000
  105        1.000704  -0.000000
  106        1.013376  -0.000000
  107        1.294667  -0.000000
  108        1.336540  -0.000000
  109        1.385028  -0.000000
  110        1.404178  -0.000000
  111        1.458714  -0.000000
  112        1.517367  -0.000000
  113        1.534408  -0.000000
  114        1.555955  -0.000000
  115        1.573181  -0.000000
  116        1.627030  -0.000000
  117        1.691913  -0.000000
  118        1.708933  -0.000000
  119        1.809519  -0.000000
  120        1.854795  -0.000000
  121        1.900651  -0.000000
  122        1.910989  -0.000000
  123        2.004205  -0.000000
  124        2.051835  -0.000000
  125        2.114780  -0.000000
  126        2.141150  -0.000000
  127        2.162436  -0.000000
  128        2.237702  -0.000000

  0.4444444E+00  0.3870091E-15  0.3932070E-15  0.6734007E-02
    1      -13.559816   1.000000
    2      -13.341447   1.000000
    3      -12.262314   1.000000
    4      -12.082580   1.000000
    5      -11.450275   1.000000
    6      -11.336851   1.000000
    7      -11.108075   1.000000
    8      -11.097968   1.000000
    9      -10.924401   1.000000
   10      -10.781750   1.000000
   11      -10.652897   1.000000
   12      -10.645077   1.000000
   13      -10.159678   1.000000
   14      -10.150944   1.000000
   15       -9.669437   1.000000
   16       -9.582346   1.000000
   17       -9.206682   1.000000
   18       -9.048245   1.000000
   19       -8.887272   1.000000
   20       -8.845941   1.000000
   21       -8.723335   1.000000
   22       -8.650061   1.000000
   23       -8.617474   1.000000
   24       -8.420728   1.000000
   25       -8.376683   1.000000
   26       -8.294377   1.000000
   27       -7.404473   1.000000
   28       -7.178056   1.000000
   29       -7.041456   1.000000
   30       -6.847604   1.000000
   31       -6.515928   1.000000
   32       -6.389962   1.000000
   33       -5.996212   1.000000
   34       -5.888516   1.000000
   35       -5.718433   1.000000
   36       -5.644512   1.000000
   37       -5.486255   1.000000
   38       -5.426807   1.000000
   39       -5.401853   1.000000
   40       -5.354892   1.000000
   41       -5.293295   1.000000
   42       -5.190334   1.000000
   43       -5.175269   1.000000
   44       -4.891716   1.000000
   45       -4.866645   1.000000
   46       -4.779815   1.000000
   47       -4.725191   1.000000
   48       -4.675272   1.000000
   49       -4.601350   1.000000
   50       -4.542646   1.000000
   51       -4.457014   1.000000
   52       -4.432644   1.000000
   53       -4.372209   1.000000
   54       -4.333155   1.000000
   55       -4.305833   1.000000
   56       -4.192416   1.000000
   57       -4.138564   1.000000
   58       -4.064181   1.000000
   59       -4.017087   1.000000
   60       -3.923272   1.000000
   61       -3.906877   1.000000
   62       -3.827022   1.000000
   63       -3.779229   1.000000
   64       -3.702854   1.000000
   65       -3.639739   1.000000
   66       -3.485036   1.000000
   67       -3.472760   1.000000
   68       -3.343934   1.000000
   69       -3.319942   1.000000
   70       -3.262046   1.000000
   71       -3.235355   1.000000
   72       -3.006018   1.000000
   73       -2.968902   1.000000
   74       -2.895063   1.000000
   75       -2.819451   1.000000
   76       -2.777425   1.000000
   77       -2.709346   1.000000
   78       -2.503925   1.000000
   79       -2.370623   1.000000
   80       -2.263380   1.000000
   81       -1.776389   1.000000
   82       -1.723372   1.000000
   83       -1.601405   1.000000
   84       -1.334569   1.000000
   85       -1.063927   1.000000
   86       -0.953498   1.000000
   87       -0.882235   1.000000
   88       -0.824521   1.000000
   89       -0.716645   1.000000
   90       -0.584770   1.000000
   91       -0.544515   1.000000
   92       -0.230249   1.000333
   93       -0.084152   1.034666
   94        0.007944   0.796849
   95        0.056271   0.412570
   96        0.178490  -0.034083
   97        0.239088  -0.009894
   98        0.281526  -0.002146
   99        0.533624  -0.000000
  100        0.572858  -0.000000
  101        0.611691  -0.000000
  102        0.658529  -0.000000
  103        0.792691  -0.000000
  104        0.911854  -0.000000
  105        1.161368  -0.000000
  106        1.208016  -0.000000
  107        1.296026  -0.000000
  108        1.389004  -0.000000
  109        1.428249  -0.000000
  110        1.478413  -0.000000
  111        1.495199  -0.000000
  112        1.507647  -0.000000
  113        1.514152  -0.000000
  114        1.570067  -0.000000
  115        1.586107  -0.000000
  116        1.607835  -0.000000
  117        1.631829  -0.000000
  118        1.698655  -0.000000
  119        1.717986  -0.000000
  120        1.823205  -0.000000
  121        1.853417  -0.000000
  122        1.884358  -0.000000
  123        1.975868  -0.000000
  124        2.055452  -0.000000
  125        2.100605  -0.000000
  126        2.155230  -0.000000
  127        2.159490  -0.000000
  128        2.177203  -0.000000

  0.3742002E-15  0.9090909E-01  0.3596334E-15  0.6734007E-02
    1      -13.943251   1.000000
    2      -12.596051   1.000000
    3      -12.482043   1.000000
    4      -11.909392   1.000000
    5      -11.622432   1.000000
    6      -11.347203   1.000000
    7      -11.304251   1.000000
    8      -11.172729   1.000000
    9      -11.080566   1.000000
   10      -10.703997   1.000000
   11      -10.669209   1.000000
   12      -10.449275   1.000000
   13      -10.111266   1.000000
   14      -10.091946   1.000000
   15       -9.870076   1.000000
   16       -9.800803   1.000000
   17       -9.315392   1.000000
   18       -9.175162   1.000000
   19       -8.987724   1.000000
   20       -8.803269   1.000000
   21       -8.717317   1.000000
   22       -8.267976   1.000000
   23       -8.182407   1.000000
   24       -8.048201   1.000000
   25       -7.933179   1.000000
   26       -7.896241   1.000000
   27       -7.531899   1.000000
   28       -7.379353   1.000000
   29       -7.014269   1.000000
   30       -6.719262   1.000000
   31       -6.637441   1.000000
   32       -6.496960   1.000000
   33       -6.130614   1.000000
   34       -6.055512   1.000000
   35       -5.813209   1.000000
   36       -5.725426   1.000000
   37       -5.625119   1.000000
   38       -5.524470   1.000000
   39       -5.472649   1.000000
   40       -5.443912   1.000000
   41       -5.363439   1.000000
   42       -5.261496   1.000000
   43       -5.195726   1.000000
   44       -5.091995   1.000000
   45       -5.000671   1.000000
   46       -4.900808   1.000000
   47       -4.868568   1.000000
   48       -4.806018   1.000000
   49       -4.685271   1.000000
   50       -4.663186   1.000000
   51       -4.593145   1.000000
   52       -4.553725   1.000000
   53       -4.489012   1.000000
   54       -4.429047   1.000000
   55       -4.381565   1.000000
   56       -4.270518   1.000000
   57       -4.122057   1.000000
   58       -4.045123   1.000000
   59       -3.989954   1.000000
   60       -3.959088   1.000000
   61       -3.874444   1.000000
   62       -3.813037   1.000000
   63       -3.628997   1.000000
   64       -3.511937   1.000000
   65       -3.483399   1.000000
   66       -3.473589   1.000000
   67       -3.401094   1.000000
   68       -3.361762   1.000000
   69       -3.317594   1.000000
   70       -3.285691   1.000000
   71       -3.224455   1.000000
   72       -3.161722   1.000000
   73       -3.128971   1.000000
   74       -2.869120   1.000000
   75       -2.616665   1.000000
   76       -2.407088   1.000000
   77       -2.331830   1.000000
   78       -2.306120   1.000000
   79       -2.286986   1.000000
   80       -2.188430   1.000000
   81       -1.915593   1.000000
   82       -1.634794   1.000000
   83       -1.512763   1.000000
   84       -1.472583   1.000000
   85       -1.236877   1.000000
   86       -1.169079   1.000000
   87       -1.073028   1.000000
   88       -1.007387   1.000000
   89       -0.957463   1.000000
   90       -0.552128   1.000000
   91       -0.341218   1.000000
   92       -0.201946   1.001275
   93       -0.107564   1.026094
   94       -0.069883   1.034698
   95        0.088789   0.171284
   96        0.123117   0.017357
   97        0.171421  -0.035319
   98        0.341989  -0.000116
   99        0.402222  -0.000003
  100        0.511981  -0.000000
  101        0.660536  -0.000000
  102        0.746818  -0.000000
  103        0.815252  -0.000000
  104        0.902064  -0.000000
  105        0.924647  -0.000000
  106        0.957038  -0.000000
  107        1.077324  -0.000000
  108        1.245099  -0.000000
  109        1.305900  -0.000000
  110        1.385126  -0.000000
  111        1.407111  -0.000000
  112        1.445237  -0.000000
  113        1.512331  -0.000000
  114        1.575785  -0.000000
  115        1.592227  -0.000000
  116        1.656674  -0.000000
  117        1.688429  -0.000000
  118        1.735238  -0.000000
  119        1.767264  -0.000000
  120        1.904135  -0.000000
  121        1.964145  -0.000000
  122        1.992682  -0.000000
  123        2.016226  -0.000000
  124        2.101078  -0.000000
  125        2.210869  -0.000000
  126        2.228696  -0.000000
  127        2.248834  -0.000000
  128        2.352575  -0.000000

  0.1111111E+00  0.9090909E-01  0.4822234E-15  0.6734007E-02
    1      -13.894413   1.000000
    2      -12.665866   1.000000
    3      -12.550807   1.000000
    4      -11.835943   1.000000
    5      -11.593674   1.000000
    6      -11.392404   1.000000
    7      -11.252767   1.000000
    8      -11.172713   1.000000
    9      -11.122847   1.000000
   10      -10.711645   1.000000
   11      -10.603655   1.000000
   12      -10.468923   1.000000
   13      -10.164210   1.000000
   14      -10.115166   1.000000
   15       -9.817710   1.000000
   16       -9.747633   1.000000
   17       -9.288798   1.000000
   18       -9.180402   1.000000
   19       -8.954141   1.000000
   20       -8.854050   1.000000
   21       -8.736784   1.000000
   22       -8.349002   1.000000
   23       -8.241766   1.000000
   24       -8.023263   1.000000
   25       -7.941690   1.000000
   26       -7.911100   1.000000
   27       -7.674476   1.000000
   28       -7.425034   1.000000
   29       -6.967815   1.000000
   30       -6.637768   1.000000
   31       -6.555023   1.000000
   32       -6.406040   1.000000
   33       -6.125066   1.000000
   34       -6.054597   1.000000
   35       -5.944156   1.000000
   36       -5.734750   1.000000
   37       -5.573841   1.000000
   38       -5.498119   1.000000
   39       -5.461719   1.000000
   40       -5.404827   1.000000
   41       -5.356310   1.000000
   42       -5.248364   1.000000
   43       -5.125889   1.000000
   44       -5.037544   1.000000
   45       -5.011247   1.000000
   46       -4.922126   1.000000
   47       -4.802677   1.000000
   48       -4.773212   1.000000
   49       -4.668346   1.000000
   50       -4.624790   1.000000
   51       -4.579142   1.000000
   52       -4.528723   1.000000
   53       -4.477834   1.000000
   54       -4.431850   1.000000
   55       -4.375652   1.000000
   56       -4.259201   1.000000
   57       -4.175780   1.000000
   58       -4.061969   1.000000
   59       -3.994619   1.000000
   60       -3.951341   1.000000
   61       -3.853416   1.000000
   62       -3.830200   1.000000
   63       -3.657879   1.000000
   64       -3.548434   1.000000
   65       -3.522998   1.000000
   66       -3.454255   1.000000
   67       -3.394591   1.000000
   68       -3.386487   1.000000
   69       -3.295271   1.000000
   70       -3.266527   1.000000
   71       -3.214173   1.000000
   72       -3.171165   1.000000
   73       -3.100428   1.000000
   74       -2.942900   1.000000
   75       -2.594875   1.000000
   76       -2.471359   1.000000
   77       -2.444220   1.000000
   78       -2.373044   1.000000
   79       -2.237984   1.000000
   80       -2.199698   1.000000
   81       -1.966088   1.000000
   82       -1.602967   1.000000
   83       -1.522657   1.000000
   84       -1.456095   1.000000
   85       -1.274693   1.000000
   86       -1.158835   1.000000
   87       -1.034992   1.000000
   88       -0.897561   1.000000
   89       -0.809485   1.000000
   90       -0.617926   1.000000
   91       -0.415183   1.000000
   92       -0.148226   1.009627
   93       -0.119923   1.020411
   94        0.015040   0.747729
   95        0.046087   0.498233
   96        0.142116  -0.020770
   97        0.147179  -0.026425
   98        0.249435  -0.007115
   99        0.361908  -0.000037
  100        0.630622  -0.000000
  101        0.654945  -0.000000
  102        0.752794  -0.000000
  103        0.785730  -0.000000
  104        0.891071  -0.000000
  105        0.930025  -0.000000
  106        0.982877  -0.000000
  107        1.162010  -0.000000
  108        1.256980  -0.000000
  109        1.298728  -0.000000
  110        1.349416  -0.000000
  111        1.416340  -0.000000
  112        1.499373  -0.000000
  113        1.536084  -0.000000
  114        1.570449  -0.000000
  115        1.596560  -0.000000
  116        1.621752  -0.000000
  117        1.698362  -0.000000
  118        1.740338  -0.000000
  119        1.776536  -0.000000
  120        1.910989  -0.000000
  121        1.939149  -0.000000
  122        1.974160  -0.000000