   75   75    1    1
  0.2059393E+02  0.1036705E-08  0.2428040E-08  0.6136055E-09  0.5000000E-15
   1.0000000000000000E-004
  CAR 
 Name                                    
    279     15    180

  0.3742002E-15  0.1262379E-14  0.3742002E-15  0.2222222E-01
    1      -14.012474   1.000000
    2      -12.838254   1.000000
    3      -12.824899   1.000000
    4      -12.809658   1.000000
    5      -11.884566   1.000000
    6      -11.711131   1.000000
    7      -11.679918   1.000000
    8      -11.461752   1.000000
    9      -11.453816   1.000000
   10      -11.281062   1.000000
   11      -11.255143   1.000000
   12      -11.017604   1.000000
   13      -10.943294   1.000000
   14      -10.474287   1.000000
   15      -10.445674   1.000000
   16      -10.305382   1.000000
   17      -10.181476   1.000000
   18      -10.063121   1.000000
   19       -9.714366   1.000000
   20       -9.586181   1.000000
   21       -9.530635   1.000000
   22       -9.480963   1.000000
   23       -9.381744   1.000000
   24       -9.338260   1.000000
   25       -8.851279   1.000000
   26       -8.810888   1.000000
   27       -8.559280   1.000000
   28       -8.483052   1.000000
   29       -8.204565   1.000000
   30       -8.184094   1.000000
   31       -8.107898   1.000000
   32       -7.773918   1.000000
   33       -7.741674   1.000000
   34       -7.326003   1.000000
   35       -7.224748   1.000000
   36       -7.185702   1.000000
   37       -6.992929   1.000000
   38       -6.890266   1.000000
   39       -6.810744   1.000000
   40       -6.676491   1.000000
   41       -6.669215   1.000000
   42       -6.663688   1.000000
   43       -6.534124   1.000000
   44       -6.485320   1.000000
   45       -6.431968   1.000000
   46       -6.220700   1.000000
   47       -6.188451   1.000000
   48       -6.082964   1.000000
   49       -6.076352   1.000000
   50       -5.887528   1.000000
   51       -5.755787   1.000000
   52       -5.634268   1.000000
   53       -5.617910   1.000000
   54       -5.598007   1.000000
   55       -5.578594   1.000000
   56       -5.518714   1.000000
   57       -5.436133   1.000000
   58       -5.282171   1.000000
   59       -5.189017   1.000000
   60       -5.174935   1.000000
   61       -5.144541   1.000000
   62       -4.904169   1.000000
   63       -4.871942   1.000000
   64       -4.669451   1.000000
   65       -4.659592   1.000000
   66       -4.642998   1.000000
   67       -4.505232   1.000000
   68       -4.479928   1.000000
   69       -4.376048   1.000000
   70       -4.228576   1.000000
   71       -4.153912   1.000000
   72       -4.108521   1.000000
   73       -4.055068   1.000000
   74       -4.003301   1.000000
   75       -3.984221   1.000000
   76       -3.914179   1.000000
   77       -3.893244   1.000000
   78       -3.891536   1.000000
   79       -3.862231   1.000000
   80       -3.858786   1.000000
   81       -3.753411   1.000000
   82       -3.572741   1.000000
   83       -3.569170   1.000000
   84       -3.545699   1.000000
   85       -3.536199   1.000000
   86       -3.485639   1.000000
   87       -3.470224   1.000000
   88       -3.459973   1.000000
   89       -3.443932   1.000000
   90       -3.441570   1.000000
   91       -3.413285   1.000000
   92       -3.357339   1.000000
   93       -3.223827   1.000000
   94       -3.168432   1.000000
   95       -2.989989   1.000000
   96       -2.900593   1.000000
   97       -2.874114   1.000000
   98       -2.833323   1.000000
   99       -2.745859   1.000000
  100       -2.646564   1.000000
  101       -2.558431   1.000000
  102       -2.427974   1.000000
  103       -2.412468   1.000000
  104       -2.299077   1.000000
  105       -2.260688   1.000000
  106       -2.193987   1.000000
  107       -2.101803   1.000000
  108       -1.992964   1.000000
  109       -1.984983   1.000000
  110       -1.953462   1.000000
  111       -1.951972   1.000000
  112       -1.900515   1.000000
  113       -1.750583   1.000000
  114       -1.719058   1.000000
  115       -1.688888   1.000000
  116       -1.645388   1.000000
  117       -1.567902   1.000000
  118       -1.550946   1.000000
  119       -1.517712   1.000000
  120       -1.387124   1.000000
  121       -1.326289   1.000000
  122       -1.146211   1.000000
  123       -1.114598   1.000000
  124       -0.824945   1.000000
  125       -0.761716   1.000000
  126       -0.617098   1.000000
  127       -0.471193   1.000000
  128       -0.406698   1.000000
  129       -0.373902   1.000000
  130       -0.296302   1.000000
  131       -0.056756   1.000000
  132       -0.001342   1.000000
  133        0.111020   1.000058
  134        0.279939   1.032002
  135        0.299995   1.035297
  136        0.307508   1.033435
  137        0.362229   0.906453
  138        0.435807   0.362423
  139        0.504620  -0.002426
  140        0.511991  -0.015780
  141        0.585809  -0.020094
  142        0.600906  -0.013823
  143        0.646838  -0.002977
  144        0.649836  -0.002643
  145        0.658966  -0.001815
  146        0.675781  -0.000863
  147        0.710480  -0.000152
  148        0.714013  -0.000125
  149        0.838926  -0.000000
  150        0.882040  -0.000000
  151        0.977353  -0.000000
  152        1.033277  -0.000000
  153        1.125246  -0.000000
  154        1.187496  -0.000000
  155        1.208915  -0.000000
  156        1.214065  -0.000000
  157        1.238152  -0.000000
  158        1.359767  -0.000000
  159        1.365917  -0.000000
  160        1.407708  -0.000000
  161        1.410381  -0.000000
  162        1.467562  -0.000000
  163        1.474937  -0.000000
  164        1.492617  -0.000000
  165        1.541691  -0.000000
  166        1.635210  -0.000000
  167        1.686968  -0.000000
  168        1.724414  -0.000000
  169        1.740892  -0.000000
  170        1.775317  -0.000000
  171        1.785302  -0.000000
  172        1.844486  -0.000000
  173        2.310116  -0.000000
  174        2.318829  -0.000000
  175        2.395352  -0.000000
  176        2.457128  -0.000000
  177        2.586796  -0.000000
  178        2.785166  -0.000000
  179        2.922487  -0.000000
  180        3.488448   0.000000

  0.2000000E+00  0.1262379E-14  0.3742002E-15  0.4444444E-01
    1      -13.963104   1.000000
    2      -13.242325   1.000000
    3      -12.772714   1.000000
    4      -12.336481   1.000000
    5      -12.090566   1.000000
    6      -11.868162   1.000000
    7      -11.614704   1.000000
    8      -11.271372   1.000000
    9      -11.265143   1.000000
   10      -11.243801   1.000000
   11      -11.199914   1.000000
   12      -11.086055   1.000000
   13      -10.846603   1.000000
   14      -10.609279   1.000000
   15      -10.571011   1.000000
   16      -10.532290   1.000000
   17      -10.474510   1.000000
   18       -9.815029   1.000000
   19       -9.712394   1.000000
   20       -9.572826   1.000000
   21       -9.466331   1.000000
   22       -9.451360   1.000000
   23       -9.428059   1.000000
   24       -9.323164   1.000000
   25       -9.005646   1.000000
   26       -8.842090   1.000000
   27       -8.256380   1.000000
   28       -8.186256   1.000000
   29       -8.157796   1.000000
   30       -8.144360   1.000000
   31       -8.089807   1.000000
   32       -8.031170   1.000000
   33       -7.596866   1.000000
   34       -7.467102   1.000000
   35       -7.194034   1.000000
   36       -7.189677   1.000000
   37       -7.159966   1.000000
   38       -7.075852   1.000000
   39       -6.862262   1.000000
   40       -6.744962   1.000000
   41       -6.664809   1.000000
   42       -6.646122   1.000000
   43       -6.584483   1.000000
   44       -6.478339   1.000000
   45       -6.390330   1.000000
   46       -6.278645   1.000000
   47       -6.144761   1.000000
   48       -6.045567   1.000000
   49       -6.028201   1.000000
   50       -5.997016   1.000000
   51       -5.682495   1.000000
   52       -5.644877   1.000000
   53       -5.563243   1.000000
   54       -5.396350   1.000000
   55       -5.376369   1.000000
   56       -5.342956   1.000000
   57       -5.325788   1.000000
   58       -5.314165   1.000000
   59       -5.288196   1.000000
   60       -5.229596   1.000000
   61       -5.167736   1.000000
   62       -5.035645   1.000000
   63       -4.814498   1.000000
   64       -4.803786   1.000000
   65       -4.704056   1.000000
   66       -4.684311   1.000000
   67       -4.525215   1.000000
   68       -4.518581   1.000000
   69       -4.450898   1.000000
   70       -4.213935   1.000000
   71       -4.167220   1.000000
   72       -4.086038   1.000000
   73       -4.073079   1.000000
   74       -4.001277   1.000000
   75       -3.966793   1.000000
   76       -3.965751   1.000000
   77       -3.861603   1.000000
   78       -3.852148   1.000000
   79       -3.803938   1.000000
   80       -3.742220   1.000000
   81       -3.710292   1.000000
   82       -3.701468   1.000000
   83       -3.597727   1.000000
   84       -3.571778   1.000000
   85       -3.561647   1.000000
   86       -3.555817   1.000000
   87       -3.497957   1.000000
   88       -3.423211   1.000000
   89       -3.416731   1.000000
   90       -3.401377   1.000000
   91       -3.399767   1.000000
   92       -3.287759   1.000000
   93       -3.277409   1.000000
   94       -3.207018   1.000000
   95       -3.001512   1.000000
   96       -2.955327   1.000000
   97       -2.919593   1.000000
   98       -2.756690   1.000000
   99       -2.736728   1.000000
  100       -2.668881   1.000000
  101       -2.570921   1.000000
  102       -2.466455   1.000000
  103       -2.399176   1.000000
  104       -2.330066   1.000000
  105       -2.288349   1.000000
  106       -2.168030   1.000000
  107       -2.096844   1.000000
  108       -1.974664   1.000000
  109       -1.929617   1.000000
  110       -1.892472   1.000000
  111       -1.856748   1.000000
  112       -1.823733   1.000000
  113       -1.798972   1.000000
  114       -1.727017   1.000000
  115       -1.690846   1.000000
  116       -1.572839   1.000000
  117       -1.528066   1.000000
  118       -1.455122   1.000000
  119       -1.413577   1.000000
  120       -1.400320   1.000000
  121       -1.267251   1.000000
  122       -1.162786   1.000000
  123       -1.061614   1.000000
  124       -0.893228   1.000000
  125       -0.783365   1.000000
  126       -0.723540   1.000000
  127       -0.557569   1.000000
  128       -0.426154   1.000000
  129       -0.377697   1.000000
  130       -0.372836   1.000000
  131       -0.201946   1.000000
  132       -0.166048   1.000000
  133       -0.052218   1.000000
  134        0.159999   1.000757
  135        0.179382   1.001795
  136        0.236304   1.013305
  137        0.319065   1.025372
  138        0.456827   0.205874
  139        0.467815   0.138185
  140        0.580710  -0.022417
  141        0.590387  -0.018078
  142        0.647894  -0.002855
  143        0.659562  -0.001770
  144        0.696703  -0.000312
  145        0.714815  -0.000120
  146        0.738182  -0.000031
  147        0.755243  -0.000011
  148        0.777979  -0.000002
  149        0.878194  -0.000000
  150        0.891626  -0.000000
  151        1.024626  -0.000000
  152        1.121666  -0.000000
  153        1.149813  -0.000000
  154        1.197303  -0.000000
  155        1.277580  -0.000000
  156        1.293967  -0.000000
  157        1.324247  -0.000000
  158        1.366909  -0.000000
  159        1.383922  -0.000000
  160        1.407441  -0.000000
  161        1.448170  -0.000000
  162        1.475435  -0.000000
  163        1.492336  -0.000000
  164        1.540714  -0.000000
  165        1.565810  -0.000000
  166        1.651003  -0.000000
  167        1.654189  -0.000000
  168        1.691733  -0.000000
  169        1.705329  -0.000000
  170        1.748871  -0.000000
  171        1.772131  -0.000000
  172        1.798090  -0.000000
  173        1.872411  -0.000000
  174        1.923212  -0.000000
  175        2.141989  -0.000000
  176        2.297935  -0.000000
  177        2.430437  -0.000000
  178        2.443395  -0.000000
  179        2.823320  -0.000000
  180        3.302835   0.000000

  0.4000000E+00  0.1262379E-14  0.3742002E-15  0.4444444E-01
    1      -13.816059   1.000000
    2      -13.573954   1.000000
    3      -12.635210   1.000000
    4      -12.404562   1.000000
    5      -11.818836   1.000000
    6      -11.779970   1.000000
    7      -11.734599   1.000000
    8      -11.236627   1.000000
    9      -11.187021   1.000000
   10      -11.174676   1.000000
   11      -11.096371   1.000000
   12      -11.020461   1.000000
   13      -10.885740   1.000000
   14      -10.784849   1.000000
   15      -10.707764   1.000000
   16      -10.684315   1.000000
   17      -10.571284   1.000000
   18      -10.095159   1.000000
   19       -9.701495   1.000000
   20       -9.632584   1.000000
   21       -9.383426   1.000000
   22       -9.366994   1.000000
   23       -9.329447   1.000000
   24       -9.276417   1.000000
   25       -9.079848   1.000000
   26       -8.787011   1.000000
   27       -8.286391   1.000000
   28       -8.040476   1.000000
   29       -7.843374   1.000000
   30       -7.823878   1.000000
   31       -7.804567   1.000000
   32       -7.779141   1.000000
   33       -7.749072   1.000000
   34       -7.699080   1.000000
   35       -7.483830   1.000000
   36       -7.440689   1.000000
   37       -7.342888   1.000000
   38       -7.273268   1.000000
   39       -7.159145   1.000000
   40       -6.877833   1.000000
   41       -6.719212   1.000000
   42       -6.534185   1.000000
   43       -6.502457   1.000000
   44       -6.388475   1.000000
   45       -6.356920   1.000000
   46       -6.141148   1.000000
   47       -6.116884   1.000000
   48       -5.950431   1.000000
   49       -5.901416   1.000000
   50       -5.819332   1.000000
   51       -5.811491   1.000000
   52       -5.692529   1.000000
   53       -5.686994   1.000000
   54       -5.552602   1.000000
   55       -5.406151   1.000000
   56       -5.311004   1.000000
   57       -5.293602   1.000000
   58       -5.127417   1.000000
   59       -5.102632   1.000000
   60       -5.077190   1.000000
   61       -5.059508   1.000000
   62       -5.004246   1.000000
   63       -4.888725   1.000000
   64       -4.853198   1.000000
   65       -4.782504   1.000000
   66       -4.647706   1.000000
   67       -4.618402   1.000000
   68       -4.548235   1.000000
   69       -4.395318   1.000000
   70       -4.320198   1.000000
   71       -4.235014   1.000000
   72       -4.133368   1.000000
   73       -4.105118   1.000000
   74       -4.056332   1.000000
   75       -4.044908   1.000000
   76       -3.972731   1.000000
   77       -3.935979   1.000000
   78       -3.900538   1.000000
   79       -3.766187   1.000000
   80       -3.729916   1.000000
   81       -3.683909   1.000000
   82       -3.667381   1.000000
   83       -3.655086   1.000000
   84       -3.634821   1.000000
   85       -3.603129   1.000000
   86       -3.526347   1.000000
   87       -3.448633   1.000000
   88       -3.430671   1.000000
   89       -3.404375   1.000000
   90       -3.305057   1.000000
   91       -3.231469   1.000000
   92       -3.216853   1.000000
   93       -3.197587   1.000000
   94       -3.159555   1.000000
   95       -3.077010   1.000000
   96       -3.042743   1.000000
   97       -2.959686   1.000000
   98       -2.913952   1.000000
   99       -2.799290   1.000000
  100       -2.761112   1.000000
  101       -2.607745   1.000000
  102       -2.458443   1.000000
  103       -2.353480   1.000000
  104       -2.316534   1.000000
  105       -2.168471   1.000000
  106       -2.137180   1.000000
  107       -2.120576   1.000000
  108       -1.988330   1.000000
  109       -1.917060   1.000000
  110       -1.911491   1.000000
  111       -1.892298   1.000000
  112       -1.751498   1.000000
  113       -1.680400   1.000000
  114       -1.613085   1.000000
  115       -1.553949   1.000000
  116       -1.472037   1.000000
  117       -1.452144   1.000000
  118       -1.409529   1.000000
  119       -1.259659   1.000000
  120       -1.194154   1.000000
  121       -1.071425   1.000000
  122       -1.061462   1.000000
  123       -1.045113   1.000000
  124       -1.017316   1.000000
  125       -0.912188   1.000000
  126       -0.870728   1.000000
  127       -0.708693   1.000000
  128       -0.671871   1.000000
  129       -0.653664   1.000000
  130       -0.526510   1.000000
  131       -0.382262   1.000000
  132       -0.353422   1.000000
  133       -0.057245   1.000000
  134       -0.030992   1.000000
  135        0.107330   1.000047
  136        0.261087   1.023891
  137        0.319483   1.024939
  138        0.378052   0.818340
  139        0.505252  -0.003740
  140        0.528834  -0.032400
  141        0.581449  -0.022077
  142        0.613870  -0.009491
  143        0.658524  -0.001849
  144        0.678955  -0.000744
  145        0.718479  -0.000098
  146        0.747908  -0.000017
  147        0.775304  -0.000003
  148        0.871096  -0.000000
  149        0.914002  -0.000000
  150        1.021684  -0.000000
  151        1.182357  -0.000000
  152        1.232899  -0.000000
  153        1.240830  -0.000000
  154        1.257926  -0.000000
  155        1.316612  -0.000000
  156        1.330174  -0.000000
  157        1.367447  -0.000000
  158        1.455314  -0.000000
  159        1.483020  -0.000000
  160        1.499288  -0.000000
  161        1.517830  -0.000000
  162        1.528092  -0.000000
  163        1.549296  -0.000000
  164        1.618182  -0.000000
  165        1.660897  -0.000000
  166        1.678533  -0.000000
  167        1.687119  -0.000000
  168        1.696372  -0.000000
  169        1.766895  -0.000000
  170        1.787659  -0.000000
  171        1.794488  -0.000000
  172        1.878022  -0.000000
  173        1.911030  -0.000000
  174        1.939448  -0.000000
  175        1.959061  -0.000000
  176        2.653172  -0.000000
  177        2.742902  -0.000000
  178        2.845055  -0.000000
  179        3.015368  -0.000000
  180        3.145194  -0.000000

  0.3742002E-15  0.1262379E-14  0.1111111E+00  0.4444444E-01
    1      -13.967067   1.000000
    2      -12.802275   1.000000
    3      -12.790324   1.000000
    4      -12.772329   1.000000
    5      -11.989277   1.000000
    6      -11.682997   1.000000
    7      -11.650735   1.000000
    8      -11.507143   1.000000
    9      -11.500580   1.000000
   10      -11.350111   1.000000
   11      -11.215615   1.000000
   12      -11.027388   1.000000
   13      -10.955369   1.000000
   14      -10.470564   1.000000
   15      -10.450507   1.000000
   16      -10.275091   1.000000
   17      -10.165405   1.000000
   18      -10.024246   1.000000
   19       -9.735111   1.000000
   20       -9.616777   1.000000
   21       -9.512324   1.000000
   22       -9.508278   1.000000
   23       -9.382786   1.000000
   24       -9.323829   1.000000
   25       -8.840051   1.000000
   26       -8.823265   1.000000
   27       -8.557433   1.000000
   28       -8.474126   1.000000
   29       -8.243745   1.000000
   30       -8.165225   1.000000
   31       -7.944738   1.000000
   32       -7.837829   1.000000
   33       -7.786115   1.000000
   34       -7.386104   1.000000
   35       -7.290353   1.000000
   36       -7.253048   1.000000
   37       -6.966172   1.000000
   38       -6.891414   1.000000
   39       -6.796542   1.000000
   40       -6.615916   1.000000
   41       -6.606248   1.000000
   42       -6.589829   1.000000
   43       -6.533377   1.000000
   44       -6.468924   1.000000
   45       -6.421100   1.000000
   46       -6.237305   1.000000
   47       -6.215001   1.000000
   48       -6.121650   1.000000
   49       -6.102412   1.000000
   50       -5.838945   1.000000
   51       -5.700633   1.000000
   52       -5.697716   1.000000
   53       -5.645389   1.000000
   54       -5.602241   1.000000
   55       -5.545588   1.000000
   56       -5.421842   1.000000
   57       -5.381530   1.000000
   58       -5.285837   1.000000
   59       -5.186731   1.000000
   60       -5.153859   1.000000
   61       -5.070581   1.000000
   62       -4.893448   1.000000
   63       -4.839924   1.000000
   64       -4.631137   1.000000
   65       -4.619509   1.000000
   66       -4.582164   1.000000
   67       -4.503388   1.000000
   68       -4.469203   1.000000
   69       -4.379534   1.000000
   70       -4.219913   1.000000
   71       -4.179481   1.000000
   72       -4.090276   1.000000
   73       -4.054937   1.000000
   74       -4.038385   1.000000
   75       -3.979677   1.000000
   76       -3.953773   1.000000
   77       -3.942540   1.000000
   78       -3.913496   1.000000
   79       -3.889953   1.000000
   80       -3.888582   1.000000
   81       -3.803933   1.000000
   82       -3.730138   1.000000
   83       -3.709924   1.000000
   84       -3.637873   1.000000
   85       -3.609758   1.000000
   86       -3.583808   1.000000
   87       -3.519074   1.000000
   88       -3.484994   1.000000
   89       -3.455165   1.000000
   90       -3.425626   1.000000
   91       -3.411460   1.000000
   92       -3.357816   1.000000
   93       -3.239709   1.000000
   94       -3.167592   1.000000
   95       -3.017545   1.000000
   96       -2.902299   1.000000
   97       -2.844217   1.000000
   98       -2.793563   1.000000
   99       -2.657329   1.000000
  100       -2.599586   1.000000
  101       -2.474674   1.000000
  102       -2.453666   1.000000
  103       -2.433278   1.000000
  104       -2.349520   1.000000
  105       -2.234744   1.000000
  106       -2.175461   1.000000
  107       -2.135697   1.000000
  108       -2.040133   1.000000
  109       -1.994361   1.000000
  110       -1.953802   1.000000
  111       -1.933250   1.000000
  112       -1.860555   1.000000
  113       -1.748102   1.000000
  114       -1.745730   1.000000
  115       -1.649987   1.000000
  116       -1.637617   1.000000
  117       -1.606180   1.000000
  118       -1.567321   1.000000
  119       -1.472236   1.000000
  120       -1.300118   1.000000
  121       -1.252195   1.000000
  122       -1.170711   1.000000
  123       -1.054826   1.000000
  124       -0.861346   1.000000
  125       -0.733108   1.000000
  126       -0.598766   1.000000
  127       -0.526431   1.000000
  128       -0.478873   1.000000
  129       -0.418961   1.000000
  130       -0.224700   1.000000
  131       -0.182922   1.000000
  132       -0.111752   1.000000
  133        0.188327   1.002596
  134        0.242063   1.015515
  135        0.290752   1.034935
  136        0.290910   1.034960
  137        0.322501   1.021483
  138        0.341771   0.983462
  139        0.427776   0.428584
  140        0.477887   0.086440
  141        0.480290   0.075607
  142        0.500851   0.006097
  143        0.634896  -0.004678
  144        0.647820  -0.002864
  145        0.681672  -0.000655
  146        0.839214  -0.000000
  147        0.873626  -0.000000
  148        0.888292  -0.000000
  149        0.955046  -0.000000
  150        0.993322  -0.000000
  151        1.021238  -0.000000
  152        1.080394  -0.000000
  153        1.106634  -0.000000
  154        1.120745  -0.000000
  155        1.166411  -0.000000
  156        1.205460  -0.000000
  157        1.311082  -0.000000
  158        1.320106  -0.000000
  159        1.372550  -0.000000
  160        1.388735  -0.000000
  161        1.448793  -0.000000
  162        1.454702  -0.000000
  163        1.497678  -0.000000
  164        1.507328  -0.000000
  165        1.547566  -0.000000
  166        1.611912  -0.000000
  167        1.637551  -0.000000
  168        1.659831  -0.000000
  169        1.716867  -0.000000
  170        1.764028  -0.000000
  171        1.803171  -0.000000
  172        1.905007  -0.000000
  173        1.942147  -0.000000
  174        2.029133  -0.000000
  175        2.357595  -0.000000
  176        2.448010  -0.000000
  177        2.525380  -0.000000
  178        2.807167  -0.000000
  179        3.708129   0.000000
  180        4.125396   0.000000

  0.2000000E+00  0.1262379E-14  0.1111111E+00  0.8888889E-01
    1      -13.918099   1.000000
    2      -13.203638   1.000000
    3      -12.734453   1.000000
    4      -12.307490   1.000000
    5      -12.058223   1.000000
    6      -11.969948   1.000000
    7      -11.676222   1.000000
    8      -11.334412   1.000000
    9      -11.297360   1.000000
   10      -11.214322   1.000000
   11      -11.168338   1.000000
   12      -11.108630   1.000000
   13      -10.848720   1.000000
   14      -10.583243   1.000000
   15      -10.555893   1.000000
   16      -10.516774   1.000000
   17      -10.484884   1.000000
   18       -9.795942   1.000000
   19       -9.734827   1.000000
   20       -9.570286   1.000000
   21       -9.473684   1.000000
   22       -9.457754   1.000000
   23       -9.415215   1.000000
   24       -9.328445   1.000000
   25       -9.003544   1.000000
   26       -8.835139   1.000000
   27       -8.279524   1.000000
   28       -8.201741   1.000000
   29       -8.149402   1.000000
   30       -8.139837   1.000000
   31       -8.096357   1.000000
   32       -7.876116   1.000000
   33       -7.678175   1.000000
   34       -7.546921   1.000000
   35       -7.279228   1.000000
   36       -7.155129   1.000000
   37       -7.071269   1.000000
   38       -7.055632   1.000000
   39       -6.866621   1.000000
   40       -6.744017   1.000000
   41       -6.689547   1.000000
   42       -6.650392   1.000000
   43       -6.526233   1.000000
   44       -6.467095   1.000000
   45       -6.452839   1.000000
   46       -6.371093   1.000000
   47       -6.132996   1.000000
   48       -6.082562   1.000000
   49       -5.952190   1.000000
   50       -5.825023   1.000000
   51       -5.712475   1.000000
   52       -5.671639   1.000000
   53       -5.541455   1.000000
   54       -5.464137   1.000000
   55       -5.395605   1.000000
   56       -5.359816   1.000000
   57       -5.299449   1.000000
   58       -5.259329   1.000000
   59       -5.207740   1.000000
   60       -5.171629   1.000000
   61       -5.114046   1.000000
   62       -5.007505   1.000000
   63       -4.808971   1.000000
   64       -4.772698   1.000000
   65       -4.667981   1.000000
   66       -4.648221   1.000000
   67       -4.518217   1.000000
   68       -4.503383   1.000000
   69       -4.385842   1.000000
   70       -4.221507   1.000000
   71       -4.169938   1.000000
   72       -4.107209   1.000000
   73       -4.074515   1.000000
   74       -4.021341   1.000000
   75       -3.977156   1.000000
   76       -3.949488   1.000000
   77       -3.926290   1.000000
   78       -3.914558   1.000000
   79       -3.854214   1.000000
   80       -3.781452   1.000000
   81       -3.743113   1.000000
   82       -3.721847   1.000000
   83       -3.705868   1.000000
   84       -3.664925   1.000000
   85       -3.656796   1.000000
   86       -3.603379   1.000000
   87       -3.555932   1.000000
   88       -3.510553   1.000000
   89       -3.474310   1.000000
   90       -3.422272   1.000000
   91       -3.324676   1.000000
   92       -3.296078   1.000000
   93       -3.253464   1.000000
   94       -3.201446   1.000000
   95       -3.006566   1.000000
   96       -2.901660   1.000000
   97       -2.863545   1.000000
   98       -2.804702   1.000000
   99       -2.765391   1.000000
  100       -2.650899   1.000000
  101       -2.569368   1.000000
  102       -2.472236   1.000000
  103       -2.343609   1.000000
  104       -2.307929   1.000000
  105       -2.288416   1.000000
  106       -2.163582   1.000000
  107       -2.123154   1.000000
  108       -2.014129   1.000000
  109       -1.955873   1.000000
  110       -1.916768   1.000000
  111       -1.870482   1.000000
  112       -1.781931   1.000000
  113       -1.745418   1.000000
  114       -1.711818   1.000000
  115       -1.663136   1.000000
  116       -1.611829   1.000000
  117       -1.540630   1.000000
  118       -1.531026   1.000000
  119       -1.405415   1.000000
  120       -1.338691   1.000000
  121       -1.234085   1.000000
  122       -1.173805   1.000000
  123       -1.070117   1.000000
  124       -0.854239   1.000000
  125       -0.832275   1.000000
  126       -0.695174   1.000000
  127       -0.625685   1.000000
  128       -0.580111   1.000000
  129       -0.367248   1.000000
  130       -0.338618   1.000000
  131       -0.180553   1.000000
  132       -0.004552   1.000000
  133        0.100114   1.000031
  134        0.152635   1.000533
  135        0.184743   1.002245
  136        0.208030   1.005461
  137        0.232198   1.011854
  138        0.374691   0.839086
  139        0.396952   0.684009
  140        0.484895   0.056468
  141        0.541457  -0.035456
  142        0.588307  -0.018984
  143        0.665820  -0.001351
  144        0.671848  -0.001033
  145        0.689417  -0.000450
  146        0.786441  -0.000001
  147        0.839953  -0.000000
  148        0.893239  -0.000000
  149        0.992116  -0.000000
  150        1.033573  -0.000000
  151        1.086075  -0.000000
  152        1.094232  -0.000000
  153        1.121935  -0.000000
  154        1.191369  -0.000000
  155        1.260058  -0.000000
  156        1.326720  -0.000000
  157        1.345580  -0.000000
  158        1.364285  -0.000000
  159        1.376717  -0.000000
  160        1.391048  -0.000000
  161        1.447607  -0.000000
  162        1.465336  -0.000000
  163        1.472484  -0.000000
  164        1.554933  -0.000000
  165        1.566759  -0.000000
  166        1.576763  -0.000000
  167        1.607633  -0.000000
  168        1.657587  -0.000000
  169        1.694632  -0.000000
  170        1.724805  -0.000000
  171        1.754273  -0.000000
  172        1.772459  -0.000000
  173        1.798183  -0.000000