   24   24   60    1
  0.8144829E+01  0.6078000E-09  0.6078000E-09  0.6110000E-09  0.5000000E-15
   1.0000000000000000E-004
  CAR 
 Name                                    
     92    365     60

  0.3742002E-15  0.3742002E-15  0.3742002E-15  0.1371742E-02
    1       -5.702860   1.000000
    2       -3.501338   1.000000
    3       -2.432989   1.000000
    4       -2.187938   1.000000
    5       -1.929159   1.000000
    6       -1.739682   1.000000
    7       -1.733827   1.000000
    8       -1.721437   1.000000
    9       -1.395980   1.000000
   10       -1.339435   1.000000
   11       -1.235713   1.000000
   12        0.047450   1.000000
   13        0.360171   1.000000
   14        0.569308   1.000000
   15        0.709925   1.000000
   16        2.518302   1.000000
   17        2.680827   1.000000
   18        2.927331   1.000000
   19        3.091814   1.000000
   20        3.269619   1.000000
   21        3.774564   1.000000
   22        3.859778   1.000000
   23        3.908797   1.000000
   24        4.212280   1.000000
   25        4.558181   1.000000
   26        4.591229   1.000000
   27        4.610797   1.000000
   28        4.640444   1.000000
   29        4.670802   1.000000
   30        4.704068   1.000000
   31        4.710617   1.000000
   32        4.765917   1.000000
   33        4.821661   1.000000
   34        4.878015   1.000000
   35        5.009942   1.000000
   36        5.682901   1.000000
   37        6.094138   1.000000
   38        6.850437   1.000000
   39        6.903386   1.000000
   40        7.355971   1.000000
   41        7.411527   1.000000
   42        7.522875   1.000000
   43        7.632746   1.000000
   44        8.571976   1.000000
   45        8.577188   1.000000
   46        8.759433   1.000012
   47        9.237178  -0.030272
   48        9.271004  -0.015329
   49        9.397104  -0.000075
   50        9.975218  -0.000000
   51        9.979299  -0.000000
   52       10.041374  -0.000000
   53       10.124950  -0.000000
   54       10.140815  -0.000000
   55       10.191831  -0.000000
   56       10.294858  -0.000000
   57       10.333645  -0.000000
   58       10.411700  -0.000000
   59       10.630391  -0.000000
   60       10.650015  -0.000000

  0.1111111E+00  0.3745146E-15  0.3742002E-15  0.2743484E-02
    1       -5.643073   1.000000
    2       -3.480388   1.000000
    3       -2.448263   1.000000
    4       -2.332583   1.000000
    5       -2.175344   1.000000
    6       -1.999406   1.000000
    7       -1.931739   1.000000
    8       -1.924690   1.000000
    9       -1.056044   1.000000
   10       -1.048053   1.000000
   11       -0.673407   1.000000
   12        0.128877   1.000000
   13        0.484347   1.000000
   14        0.550325   1.000000
   15        0.747403   1.000000
   16        2.542029   1.000000
   17        2.674873   1.000000
   18        2.918680   1.000000
   19        3.114867   1.000000
   20        3.302912   1.000000
   21        3.635450   1.000000
   22        3.678048   1.000000
   23        3.908316   1.000000
   24        3.911705   1.000000
   25        4.254329   1.000000
   26        4.429346   1.000000
   27        4.628129   1.000000
   28        4.638726   1.000000
   29        4.678206   1.000000
   30        4.725754   1.000000
   31        4.779095   1.000000
   32        4.779637   1.000000
   33        4.860109   1.000000
   34        4.993045   1.000000
   35        5.462490   1.000000
   36        5.926551   1.000000
   37        5.979666   1.000000
   38        6.198454   1.000000
   39        6.260951   1.000000
   40        7.404671   1.000000
   41        7.680222   1.000000
   42        7.973359   1.000000
   43        8.069653   1.000000
   44        8.361386   1.000000
   45        8.402329   1.000000
   46        8.716202   1.000001
   47        9.225765  -0.034120
   48        9.416821  -0.000024
   49        9.418720  -0.000021
   50        9.931802  -0.000000
   51        9.960102  -0.000000
   52        9.964856  -0.000000
   53       10.079682  -0.000000
   54       10.134074  -0.000000
   55       10.143467  -0.000000
   56       10.317497  -0.000000
   57       10.335976  -0.000000
   58       10.374615  -0.000000
   59       10.549854  -0.000000
   60       10.576770  -0.000000

  0.2222222E+00  0.3685699E-15  0.3742002E-15  0.2743484E-02
    1       -5.465259   1.000000
    2       -3.416644   1.000000
    3       -3.043173   1.000000
    4       -2.538351   1.000000
    5       -2.174084   1.000000
    6       -2.169060   1.000000
    7       -2.143870   1.000000
    8       -2.102554   1.000000
    9       -0.576886   1.000000
   10       -0.563728   1.000000
   11        0.145847   1.000000
   12        0.368605   1.000000
   13        0.503082   1.000000
   14        0.546146   1.000000
   15        1.104963   1.000000
   16        2.595256   1.000000
   17        2.658529   1.000000
   18        2.799537   1.000000
   19        3.049854   1.000000
   20        3.152982   1.000000
   21        3.208495   1.000000
   22        3.391886   1.000000
   23        3.498403   1.000000
   24        3.995045   1.000000
   25        4.063535   1.000000
   26        4.371703   1.000000
   27        4.664961   1.000000
   28        4.671089   1.000000
   29        4.675113   1.000000
   30        4.705205   1.000000
   31        4.726072   1.000000
   32        4.903814   1.000000
   33        4.985960   1.000000
   34        5.039032   1.000000
   35        5.296195   1.000000
   36        5.499225   1.000000
   37        5.695815   1.000000
   38        6.179138   1.000000
   39        6.431503   1.000000
   40        7.045332   1.000000
   41        7.867968   1.000000
   42        7.892698   1.000000
   43        7.940090   1.000000
   44        8.696469   1.000000
   45        8.743480   1.000004
   46        8.959185   1.033685
   47        9.173022   0.010664
   48        9.477387  -0.000000
   49        9.675528  -0.000000
   50        9.684144  -0.000000
   51        9.838354  -0.000000
   52        9.865611  -0.000000
   53        9.934629  -0.000000
   54        9.992613  -0.000000
   55       10.115429  -0.000000
   56       10.257079  -0.000000
   57       10.261274  -0.000000
   58       10.435657  -0.000000
   59       10.445220  -0.000000
   60       10.451405  -0.000000

  0.3333333E+00  0.4145315E-15  0.3742002E-15  0.2743484E-02
    1       -5.173903   1.000000
    2       -3.698891   1.000000
    3       -3.308110   1.000000
    4       -2.734345   1.000000
    5       -2.343697   1.000000
    6       -2.340281   1.000000
    7       -2.121838   1.000000
    8       -2.110350   1.000000
    9       -0.040266   1.000000
   10       -0.024881   1.000000
   11        0.452987   1.000000
   12        0.496759   1.000000
   13        0.752335   1.000000
   14        0.983759   1.000000
   15        1.734632   1.000000
   16        2.395417   1.000000
   17        2.395639   1.000000
   18        2.433559   1.000000
   19        2.634415   1.000000
   20        2.650240   1.000000
   21        3.372761   1.000000
   22        3.419993   1.000000
   23        3.471192   1.000000
   24        3.500659   1.000000
   25        4.303384   1.000000
   26        4.367350   1.000000
   27        4.533945   1.000000
   28        4.548738   1.000000
   29        4.631725   1.000000
   30        4.710446   1.000000
   31        4.732000   1.000000
   32        4.735595   1.000000
   33        4.819952   1.000000
   34        5.061557   1.000000
   35        5.118066   1.000000
   36        5.264383   1.000000
   37        5.339011   1.000000
   38        6.566230   1.000000
   39        6.857493   1.000000
   40        6.980480   1.000000
   41        7.435756   1.000000
   42        7.474129   1.000000
   43        8.165154   1.000000
   44        8.811930   1.000255
   45        9.093972   0.494306
   46        9.188666  -0.019627
   47        9.209697  -0.034841
   48        9.352875  -0.000747
   49        9.440618  -0.000005
   50        9.569071  -0.000000
   51        9.838971  -0.000000
   52        9.875391  -0.000000
   53        9.926256  -0.000000
   54        9.957358  -0.000000
   55       10.092972  -0.000000
   56       10.179040  -0.000000
   57       10.186084  -0.000000
   58       10.403132  -0.000000
   59       10.406106  -0.000000
   60       10.433481  -0.000000

  0.4444444E+00  0.3784822E-15  0.3742002E-15  0.2743484E-02
    1       -4.776032   1.000000
    2       -4.280763   1.000000
    3       -3.153727   1.000000
    4       -2.956974   1.000000
    5       -2.428965   1.000000
    6       -2.427730   1.000000
    7       -2.102540   1.000000
    8       -2.093757   1.000000
    9        0.427618   1.000000
   10        0.441670   1.000000
   11        0.444258   1.000000
   12        0.452316   1.000000
   13        1.253618   1.000000
   14        1.747061   1.000000
   15        1.827774   1.000000
   16        1.846614   1.000000
   17        1.933224   1.000000
   18        2.396955   1.000000
   19        2.595465   1.000000
   20        2.636708   1.000000
   21        2.789148   1.000000
   22        3.471466   1.000000
   23        3.538565   1.000000
   24        3.565396   1.000000
   25        3.766930   1.000000
   26        4.238180   1.000000
   27        4.483066   1.000000
   28        4.523182   1.000000
   29        4.609942   1.000000
   30        4.681414   1.000000
   31        4.744846   1.000000
   32        4.752872   1.000000
   33        4.755822   1.000000
   34        4.969290   1.000000
   35        5.183141   1.000000
   36        5.203126   1.000000
   37        5.621265   1.000000
   38        6.069358   1.000000
   39        7.164965   1.000000
   40        7.179641   1.000000
   41        7.404776   1.000000
   42        7.436976   1.000000
   43        8.541753   1.000000
   44        8.715121   1.000001
   45        8.736143   1.000003
   46        8.901257   1.010250
   47        8.978010   1.034582
   48        8.999355   1.017648
   49        9.679551  -0.000000
   50        9.755750  -0.000000
   51        9.788598  -0.000000
   52        9.836294  -0.000000
   53        9.947596  -0.000000
   54        9.991750  -0.000000
   55       10.089155  -0.000000
   56       10.116402  -0.000000
   57       10.149750  -0.000000
   58       10.413800  -0.000000
   59       10.430810  -0.000000
   60       10.486000  -0.000000

  0.3742002E-15  0.1111111E+00  0.3742002E-15  0.2743484E-02
    1       -5.643072   1.000000
    2       -3.480384   1.000000
    3       -2.448219   1.000000
    4       -2.332623   1.000000
    5       -2.175356   1.000000
    6       -1.999478   1.000000
    7       -1.931649   1.000000
    8       -1.924711   1.000000
    9       -1.056015   1.000000
   10       -1.048193   1.000000
   11       -0.673315   1.000000
   12        0.128879   1.000000
   13        0.484556   1.000000
   14        0.550349   1.000000
   15        0.747238   1.000000
   16        2.542033   1.000000
   17        2.674860   1.000000
   18        2.918640   1.000000
   19        3.114838   1.000000
   20        3.302894   1.000000
   21        3.635428   1.000000
   22        3.678143   1.000000
   23        3.908315   1.000000
   24        3.911709   1.000000
   25        4.254325   1.000000
   26        4.429212   1.000000
   27        4.628118   1.000000
   28        4.638879   1.000000
   29        4.678215   1.000000
   30        4.725623   1.000000
   31        4.779129   1.000000
   32        4.779586   1.000000
   33        4.860097   1.000000
   34        4.993128   1.000000
   35        5.462531   1.000000
   36        5.926559   1.000000
   37        5.979683   1.000000
   38        6.198664   1.000000
   39        6.260693   1.000000
   40        7.404771   1.000000
   41        7.680113   1.000000
   42        7.973287   1.000000
   43        8.069775   1.000000
   44        8.361385   1.000000
   45        8.402478   1.000000
   46        8.716084   1.000001
   47        9.225663  -0.034145
   48        9.416861  -0.000024
   49        9.418762  -0.000021
   50        9.931799  -0.000000
   51        9.960170  -0.000000
   52        9.964858  -0.000000
   53       10.079707  -0.000000
   54       10.134083  -0.000000
   55       10.143487  -0.000000
   56       10.317491  -0.000000
   57       10.335950  -0.000000
   58       10.374574  -0.000000
   59       10.549830  -0.000000
   60       10.576694  -0.000000

  0.1111111E+00  0.1111111E+00  0.3742002E-15  0.2743484E-02
    1       -5.523974   1.000000
    2       -3.433289   1.000000
    3       -2.653637   1.000000
    4       -2.651565   1.000000
    5       -2.469108   1.000000
    6       -2.217259   1.000000
    7       -2.059439   1.000000
    8       -1.525604   1.000000
    9       -1.253142   1.000000
   10       -0.310186   1.000000
   11       -0.175256   1.000000
   12        0.291016   1.000000
   13        0.337737   1.000000
   14        0.851387   1.000000
   15        0.871136   1.000000
   16        2.548460   1.000000
   17        2.612691   1.000000
   18        2.847439   1.000000
   19        3.006809   1.000000
   20        3.242273   1.000000
   21        3.465482   1.000000
   22        3.483203   1.000000
   23        3.805775   1.000000
   24        4.034272   1.000000
   25        4.156778   1.000000
   26        4.181722   1.000000
   27        4.366208   1.000000
   28        4.582310   1.000000
   29        4.614767   1.000000
   30        4.677762   1.000000
   31        4.717327   1.000000
   32        5.002426   1.000000
   33        5.007394   1.000000
   34        5.473107   1.000000
   35        5.509439   1.000000
   36        5.530845   1.000000
   37        5.707081   1.000000
   38        5.760741   1.000000
   39        6.420954   1.000000
   40        7.166126   1.000000
   41        7.808088   1.000000
   42        7.845893   1.000000
   43        8.404519   1.000000
   44        8.491491   1.000000
   45        8.581192   1.000000
   46        8.734854   1.000002
   47        9.177183   0.000672
   48        9.457712  -0.000002
   49        9.715316  -0.000000
   50        9.793427  -0.000000
   51        9.838386  -0.000000
   52        9.919214  -0.000000
   53        9.939429  -0.000000
   54       10.069700  -0.000000
   55       10.126849  -0.000000
   56       10.135501  -0.000000
   57       10.278833  -0.000000
   58       10.443805  -0.000000
   59       10.458879  -0.000000
   60       10.474728  -0.000000

  0.2222222E+00  0.1111111E+00  0.3742002E-15  0.2743484E-02
    1       -5.289226   1.000000
    2       -3.344602   1.000000
    3       -3.339364   1.000000
    4       -2.883993   1.000000
    5       -2.584931   1.000000
    6       -2.377206   1.000000
    7       -1.927229   1.000000
    8       -1.607125   1.000000
    9       -0.820147   1.000000
   10        0.121674   1.000000
   11        0.239992   1.000000
   12        0.601203   1.000000
   13        0.603454   1.000000
   14        0.953367   1.000000
   15        1.439267   1.000000
   16        2.278080   1.000000
   17        2.557501   1.000000
   18        2.598194   1.000000
   19        2.653792   1.000000
   20        3.182399   1.000000
   21        3.234809   1.000000
   22        3.405327   1.000000
   23        3.650067   1.000000
   24        3.699170   1.000000
   25        4.183844   1.000000
   26        4.246237   1.000000
   27        4.521611   1.000000
   28        4.553355   1.000000
   29        4.565509   1.000000
   30        4.622533   1.000000
   31        4.692709   1.000000
   32        4.768205   1.000000
   33        5.039672   1.000000
   34        5.057263   1.000000
   35        5.176183   1.000000
   36        5.432553   1.000000
   37        5.537202   1.000000
   38        6.179451   1.000000
   39        6.782700   1.000000
   40        6.998965   1.000000
   41        7.287151   1.000000
   42        8.041776   1.000000
   43        8.086825   1.000000
   44        8.598622   1.000000
   45        9.093408   0.499078
   46        9.104487   0.405972
   47        9.418644  -0.000021
   48        9.491730  -0.000000
   49        9.533697  -0.000000
   50        9.562130  -0.000000
   51        9.709521  -0.000000
   52        9.710470  -0.000000
   53        9.894833  -0.000000
   54       10.065654  -0.000000
   55       10.120572  -0.000000
   56       10.221981  -0.000000
   57       10.228775  -0.000000
   58       10.259809  -0.000000
   59       10.267224  -0.000000
   60       10.424244  -0.000000

  0.3333333E+00  0.1111111E+00  0.3742002E-15  0.2743484E-02
    1       -4.944547   1.000000
    2       -3.959596   1.000000
    3       -3.213505   1.000000
    4       -3.023104   1.000000
    5       -2.829294   1.000000
    6       -2.387062   1.000000
    7       -1.815090   1.000000
    8       -1.725159   1.000000
    9       -0.239552   1.000000
   10       -0.042755   1.000000
   11        0.733144   1.000000
   12        0.999571   1.000000
   13        1.046361   1.000000
   14        1.424842   1.000000
   15        1.569515   1.000000
   16        2.159920   1.000000
   17        2.171577   1.000000
   18        2.510259   1.000000
   19        2.644066   1.000000
   20        2.671270   1.000000
   21        2.990646   1.000000
   22        3.087995   1.000000
   23        3.639518   1.000000
   24        3.819548   1.000000
   25        3.892620   1.000000
   26        4.311984   1.000000
   27        4.366391   1.000000
   28        4.423306   1.000000
   29        4.525797   1.000000
   30        4.526954   1.000000
   31        4.630791   1.000000
   32        4.742998   1.000000
   33        4.774287   1.000000
   34        5.071044   1.000000
   35        5.315819   1.000000
   36        5.348003   1.000000
   37        5.547016   1.000000
   38        6.332188   1.000000
   39        6.751151   1.000000
   40        6.849242   1.000000
   41        7.594254   1.000000
   42        7.745972   1.000000
   43        8.377956   1.000000
   44        8.716922   1.000001
   45        8.945759   1.028734
   46        8.978383   1.034484
   47        9.019296   0.973075
   48        9.256351  -0.021661
   49        9.597923  -0.000000
   50        9.636132  -0.000000
   51        9.686931  -0.000000
   52        9.830548  -0.000000
   53        9.907957  -0.000000
   54       10.022234  -0.000000
   55       10.113225  -0.000000
   56       10.137042  -0.000000
   57       10.146643  -0.000000
   58       10.215846  -0.000000
   59       10.296437  -0.000000
   60       10.382251  -0.000000

  0.4444444E+00  0.1111111E+00  0.3742002E-15  0.2743484E-02
    1       -4.498978   1.000000
    2       -4.497927   1.000000
    3       -3.070229   1.000000
    4       -3.055078   1.000000
    5       -3.041684   1.000000
    6       -2.372549   1.000000
    7       -1.771458   1.000000
    8       -1.766681   1.000000
    9       -0.094086   1.000000
   10        0.136932   1.000000
   11        0.985313   1.000000
   12        1.010021   1.000000
   13        1.146033   1.000000
   14        1.586362   1.000000
   15        1.587625   1.000000
   16        2.225703   1.000000
   17        2.245502   1.000000
   18        2.353884   1.000000
   19        2.429046   1.000000
   20        2.719161   1.000000
   21        2.993177   1.000000
   22        3.020287   1.000000
   23        3.082894   1.000000
   24        3.893671   1.000000
   25        3.903427   1.000000
   26        3.980973   1.000000
   27        4.365018   1.000000
   28        4.435505   1.000000
   29        4.442743   1.000000
   30        4.597220   1.000000
   31        4.695779   1.000000
   32        4.713991   1.000000
   33        4.858276   1.000000
   34        4.939508   1.000000
   35        5.465735   1.000000
   36        5.474601   1.000000
   37        5.726680   1.000000
   38        5.890754   1.000000
   39        6.670960   1.000000
   40        7.046598   1.000000
   41        7.595051   1.000000
   42        8.012403   1.000000
   43        8.609776   1.000000
   44        8.742203   1.000004
   45        8.793103   1.000092
   46        8.805441   1.000181
   47        8.845260   1.001263
   48        8.853801   1.001827
   49        9.621488  -0.000000
   50        9.648030  -0.000000
   51        9.742439  -0.000000
   52        9.748696  -0.000000
   53        9.980224  -0.000000
   54       10.099205  -0.000000
   55       10.123578  -0.000000
   56       10.124059  -0.000000
   57       10.152721  -0.000000
   58       10.218205  -0.000000
   59       10.226368  -0.000000
   60       10.257733  -0.000000

 -0.4444444E+00  0.1111111E+00  0.3742002E-15  0.2743484E-02
    1       -4.945931   1.000000
    2       -3.959239   1.000000
    3       -3.237450   1.000000
    4       -3.021497   1.000000
    5       -2.838614   1.000000
    6       -2.356638   1.000000
    7       -1.806717   1.000000
    8       -1.729638   1.000000
    9       -0.223344   1.000000
   10       -0.011384   1.000000
   11        0.716431   1.000000
   12        0.988324   1.000000
   13        1.042236   1.000000
   14        1.323996   1.000000
   15        1.678435   1.000000
   16        1.987232   1.000000
   17        2.168159   1.000000
   18        2.635780   1.000000
   19        2.665517   1.000000
   20        2.772264   1.000000
   21        2.986148   1.000000
   22        3.087263   1.000000
   23        3.465488   1.000000
   24        3.741361   1.000000
   25        3.857321   1.000000
   26        4.299711   1.000000
   27        4.397511   1.000000
   28        4.441733   1.000000
   29        4.510987   1.000000
   30        4.511984   1.000000
   31        4.543811   1.000000
   32        4.684032   1.000000
   33        4.947228   1.000000
   34        5.202127   1.000000
   35        5.293171   1.000000
   36        5.504342   1.000000
   37        5.520648   1.000000
   38        6.221145   1.000000
   39        6.848135   1.000000
   40        6.885780   1.000000
   41        7.558939   1.000000
   42        7.700206   1.000000
   43        8.393687   1.000000
   44        8.709660   1.000000
   45        8.982891   1.032829
   46        8.989374   1.028735
   47        9.002179   1.013290
   48        9.256865  -0.021426
   49        9.568621  -0.000000
   50        9.635413  -0.000000
   51        9.723914  -0.000000
   52        9.849397  -0.000000
   53        9.925742  -0.000000
   54        9.977771  -0.000000
   55       10.148295  -0.000000
   56       10.161591  -0.000000
   57       10.168492  -0.000000
   58       10.197190  -0.000000
   59       10.267509  -0.000000
   60       10.331905  -0.000000

 -0.3333333E+00  0.1111111E+00  0.3742002E-15  0.2743484E-02
    1       -5.290606   1.000000
    2       -3.368052   1.000000
    3       -3.340067   1.000000
    4       -2.881353   1.000000
    5       -2.632800   1.000000
    6       -2.339044   1.000000
    7       -1.873884   1.000000
    8       -1.616999   1.000000
    9       -0.799809   1.000000
   10        0.160001   1.000000
   11        0.229917   1.000000
   12        0.573863   1.000000
   13        0.596924   1.000000
   14        0.938626   1.000000
   15        1.326148   1.000000
   16        2.335147   1.000000
   17        2.646538   1.000000
   18        2.692546   1.000000
   19        2.789971   1.000000
   20        3.091537   1.000000
   21        3.154646   1.000000
   22        3.172825   1.000000
   23        3.590015   1.000000
   24        3.657428   1.000000
   25        4.141710   1.000000
   26        4.148904   1.000000
   27        4.389181   1.000000
   28        4.606112   1.000000
   29        4.662889   1.000000
   30        4.717598   1.000000
   31        4.745193   1.000000
   32        4.854270   1.000000
   33        5.010683   1.000000
   34        5.084666   1.000000
   35        5.197397   1.000000
   36        5.495792   1.000000
   37        5.539083   1.000000
   38        6.453521   1.000000
   39        6.738972   1.000000
   40        6.880048   1.000000
   41        7.299656   1.000000
   42        8.018967   1.000000
   43        8.042377   1.000000
   44        8.588985   1.000000
   45        9.108917   0.369596
   46        9.143576   0.128386
   47        9.442354  -0.000005
   48        9.494513  -0.000000
   49        9.523263  -0.000000
   50        9.534257  -0.000000
   51        9.688382  -0.000000
   52        9.714271  -0.000000
   53        9.925073  -0.000000
   54       10.010382  -0.000000
   55       10.156660  -0.000000
   56       10.225734  -0.000000
   57       10.238409  -0.000000
   58       10.258746  -0.000000
   59       10.312857  -0.000000
   60       10.342923  -0.000000

 -0.2222222E+00  0.1111111E+00  0.3742002E-15  0.2743484E-02
    1       -5.524990   1.000000
    2       -3.449909   1.000000
    3       -2.655469   1.000000
    4       -2.649283   1.000000
    5       -2.485779   1.000000
    6       -2.310671   1.000000
    7       -1.901308   1.000000
    8       -1.544258   1.000000
    9       -1.223874   1.000000
   10       -0.259370   1.000000
   11       -0.251183   1.000000
   12        0.285489   1.000000
   13        0.350809   1.000000
   14        0.791947   1.000000
   15        0.854511   1.000000
   16        2.640203   1.000000
   17        2.775795   1.000000
   18        2.975858   1.000000
   19        2.999492   1.000000
   20        3.114104   1.000000
   21        3.125907   1.000000
   22        3.584062   1.000000
   23        3.674231   1.000000
   24        3.967514   1.000000
   25        4.022197   1.000000
   26        4.205053   1.000000
   27        4.281131   1.000000
   28        4.636897   1.000000
   29        4.750374   1.000000
   30        4.772608   1.000000
   31        4.794573   1.000000
   32        4.892704   1.000000
   33        4.981746   1.000000
   34        5.438024   1.000000
   35        5.578298   1.000000
   36        5.660133   1.000000
   37        5.830756   1.000000
   38        5.979616   1.000000
   39        6.184059   1.000000
   40        7.200846   1.000000
   41        7.761650   1.000000
   42        7.867881   1.000000
   43        8.406395   1.000000
   44        8.504492   1.000000
   45        8.535689   1.000000
   46        8.699680   1.000000
   47        9.202004  -0.031962
   48        9.458243  -0.000002
   49        9.708033  -0.000000
   50        9.789436  -0.000000
   51        9.857201  -0.000000
   52        9.865677  -0.000000
   53        9.949203  -0.000000
   54       10.069505  -0.000000
   55       10.101254  -0.000000
   56       10.134439  -0.000000
   57       10.300821  -0.000000
   58       10.408734  -0.000000
   59       10.410593  -0.000000
   60       10.595636  -0.000000

 -0.1111111E+00  0.1111111E+00  0.3742002E-15  0.2743484E-02
    1       -5.643445   1.000000
    2       -3.486356   1.000000
    3       -2.440555   1.000000
    4       -2.327785   1.000000
    5       -2.259162   1.000000
    6       -1.988044   1.000000
    7       -1.899829   1.000000
    8       -1.873887   1.000000
    9       -1.055608   1.000000
   10       -1.030262   1.000000
   11       -0.695719   1.000000
   12        0.126751   1.000000
   13        0.413212   1.000000
   14        0.616419   1.000000
   15        0.726434   1.000000
   16        2.584147   1.000000
   17        2.733817   1.000000
   18        2.980305   1.000000
   19        3.016597   1.000000
   20        3.179494   1.000000
   21        3.691772   1.000000
   22        3.865635   1.000000
   23        3.888785   1.000000
   24        3.909018   1.000000
   25        4.011691   1.000000
   26        4.228330   1.000000
   27        4.533226   1.000000
   28        4.652427   1.000000
   29        4.672501   1.000000
   30        4.754356   1.000000
   31        4.806275   1.000000
   32        4.811816   1.000000
   33        4.934566   1.000000
   34        5.305240   1.000000
   35        5.573906   1.000000
   36        5.717904   1.000000
   37        6.004456   1.000000
   38        6.193647   1.000000
   39        6.261231   1.000000
   40        7.500917   1.000000
   41        7.582995   1.000000
   42        8.000341   1.000000
   43        8.049691   1.000000
   44        8.326691   1.000000
   45        8.535598   1.000000
   46        8.590459   1.000000
   47        9.255373  -0.022109
   48        9.402209  -0.000056
   49        9.417927  -0.000022
   50        9.917089  -0.000000
   51        9.969857  -0.000000
   52       10.011558  -0.000000
   53       10.022056  -0.000000
   54       10.119910  -0.000000
   55       10.179745  -0.000000
   56       10.229539  -0.000000
   57       10.321048  -0.000000
   58       10.465249  -0.000000
   59       10.511089  -0.000000
   60       10.536936  -0.000000

  0.3742002E-15  0.2222222E+00  0.3742002E-15  0.2743484E-02
    1       -5.465256   1.000000
    2       -3.416632   1.000000
    3       -3.043174   1.000000
    4       -2.538220   1.000000
    5       -2.174078   1.000000
    6       -2.169098   1.000000
    7       -2.143914   1.000000
    8       -2.102762   1.000000
    9       -0.576810   1.000000
   10       -0.563759   1.000000
   11        0.145886   1.000000
   12        0.368611   1.000000
   13        0.503174   1.000000
   14        0.546506   1.000000
   15        1.104737   1.000000
   16        2.595255   1.000000
   17        2.658487   1.000000
   18        2.799429   1.000000
   19        3.049787   1.000000
   20        3.152944   1.000000
   21        3.208405   1.000000
   22        3.391818   1.000000
   23        3.498626   1.000000
   24        3.994904   1.000000
   25        4.063551   1.000000
   26        4.371682   1.000000
   27        4.665139   1.000000
   28        4.671189   1.000000
   29        4.675075   1.000000
   30        4.705235   1.000000
   31        4.725782   1.000000
   32        4.903784   1.000000
   33        4.985949   1.000000
   34        5.039236   1.000000
   35        5.296230   1.000000