   46   46    1    1
  0.2568611E+02  0.8645320E-09  0.6085000E-09  0.2593596E-08  0.5000000E-15
   1.0000000000000000E-004
  CAR 
 Name                                    
    176    149    114

  0.3742002E-15  0.3742002E-15  0.3742002E-15  0.3367003E-02
    1      -14.101120   1.000000
    2      -12.805862   1.000000
    3      -12.549128   1.000000
    4      -12.038519   1.000000
    5      -11.610187   1.000000
    6      -11.370333   1.000000
    7      -11.203436   1.000000
    8      -11.002236   1.000000
    9      -10.893066   1.000000
   10      -10.874330   1.000000
   11      -10.731931   1.000000
   12      -10.427756   1.000000
   13      -10.261399   1.000000
   14      -10.205532   1.000000
   15       -9.785956   1.000000
   16       -9.454035   1.000000
   17       -9.015790   1.000000
   18       -8.896169   1.000000
   19       -8.768576   1.000000
   20       -8.525153   1.000000
   21       -8.330514   1.000000
   22       -8.319692   1.000000
   23       -8.154571   1.000000
   24       -8.007011   1.000000
   25       -7.680041   1.000000
   26       -7.672630   1.000000
   27       -7.390058   1.000000
   28       -7.083929   1.000000
   29       -6.451185   1.000000
   30       -6.346188   1.000000
   31       -6.290075   1.000000
   32       -6.202016   1.000000
   33       -6.063140   1.000000
   34       -5.880206   1.000000
   35       -5.778218   1.000000
   36       -5.697026   1.000000
   37       -5.588359   1.000000
   38       -5.465169   1.000000
   39       -5.286428   1.000000
   40       -5.158032   1.000000
   41       -5.149074   1.000000
   42       -5.057673   1.000000
   43       -4.991197   1.000000
   44       -4.876713   1.000000
   45       -4.822757   1.000000
   46       -4.707224   1.000000
   47       -4.645529   1.000000
   48       -4.474384   1.000000
   49       -4.470611   1.000000
   50       -4.334092   1.000000
   51       -4.313052   1.000000
   52       -4.102617   1.000000
   53       -4.078512   1.000000
   54       -4.055829   1.000000
   55       -3.972850   1.000000
   56       -3.874157   1.000000
   57       -3.811256   1.000000
   58       -3.758489   1.000000
   59       -3.614615   1.000000
   60       -3.575354   1.000000
   61       -3.448375   1.000000
   62       -3.361728   1.000000
   63       -3.336999   1.000000
   64       -3.129584   1.000000
   65       -3.104179   1.000000
   66       -2.962333   1.000000
   67       -2.909397   1.000000
   68       -2.833937   1.000000
   69       -2.673210   1.000000
   70       -2.622775   1.000000
   71       -2.577136   1.000000
   72       -2.479734   1.000000
   73       -2.403913   1.000000
   74       -2.331861   1.000000
   75       -1.913898   1.000000
   76       -1.775234   1.000000
   77       -1.675602   1.000000
   78       -1.567804   1.000000
   79       -1.515282   1.000000
   80       -1.413803   1.000000
   81       -1.252758   1.000000
   82       -1.069627   1.000006
   83       -0.950837   1.000209
   84       -0.704600   1.022120
   85       -0.677788   1.028252
   86       -0.597593   1.031874
   87       -0.447729   0.767437
   88       -0.341044   0.336599
   89       -0.111939  -0.033638
   90       -0.038660  -0.018148
   91       -0.031996  -0.016735
   92        0.060091  -0.003932
   93        0.126771  -0.000983
   94        0.264497  -0.000025
   95        0.363397  -0.000001
   96        0.388317  -0.000000
   97        0.511088  -0.000000
   98        0.517099  -0.000000
   99        0.632130  -0.000000
  100        0.674421  -0.000000
  101        0.696976  -0.000000
  102        0.874427  -0.000000
  103        0.882280  -0.000000
  104        1.040183  -0.000000
  105        1.067285  -0.000000
  106        1.112897  -0.000000
  107        1.139547  -0.000000
  108        1.227008  -0.000000
  109        1.248876  -0.000000
  110        1.356316  -0.000000
  111        1.460392  -0.000000
  112        1.490964  -0.000000
  113        1.656288  -0.000000
  114        1.773055  -0.000000

  0.1111111E+00  0.3729374E-15  0.3860503E-15  0.6734007E-02
    1      -14.077877   1.000000
    2      -12.823691   1.000000
    3      -12.617744   1.000000
    4      -11.978647   1.000000
    5      -11.592449   1.000000
    6      -11.365765   1.000000
    7      -11.240407   1.000000
    8      -11.013422   1.000000
    9      -10.893203   1.000000
   10      -10.864510   1.000000
   11      -10.723957   1.000000
   12      -10.429152   1.000000
   13      -10.228896   1.000000
   14      -10.200167   1.000000
   15       -9.765586   1.000000
   16       -9.468460   1.000000
   17       -9.018051   1.000000
   18       -8.894307   1.000000
   19       -8.765385   1.000000
   20       -8.563372   1.000000
   21       -8.405535   1.000000
   22       -8.337203   1.000000
   23       -8.148302   1.000000
   24       -7.948889   1.000000
   25       -7.691686   1.000000
   26       -7.682754   1.000000
   27       -7.468568   1.000000
   28       -7.081492   1.000000
   29       -6.404525   1.000000
   30       -6.308240   1.000000
   31       -6.253444   1.000000
   32       -6.165515   1.000000
   33       -6.050839   1.000000
   34       -5.850717   1.000000
   35       -5.787638   1.000000
   36       -5.737216   1.000000
   37       -5.592357   1.000000
   38       -5.447489   1.000000
   39       -5.313303   1.000000
   40       -5.147532   1.000000
   41       -5.116589   1.000000
   42       -5.046376   1.000000
   43       -4.938854   1.000000
   44       -4.877139   1.000000
   45       -4.812327   1.000000
   46       -4.705775   1.000000
   47       -4.637361   1.000000
   48       -4.500834   1.000000
   49       -4.438511   1.000000
   50       -4.328600   1.000000
   51       -4.295719   1.000000
   52       -4.101419   1.000000
   53       -4.088396   1.000000
   54       -4.044838   1.000000
   55       -3.992924   1.000000
   56       -3.868672   1.000000
   57       -3.828549   1.000000
   58       -3.754032   1.000000
   59       -3.663880   1.000000
   60       -3.568340   1.000000
   61       -3.450380   1.000000
   62       -3.408468   1.000000
   63       -3.352828   1.000000
   64       -3.129465   1.000000
   65       -3.083581   1.000000
   66       -2.942340   1.000000
   67       -2.895748   1.000000
   68       -2.831320   1.000000
   69       -2.714530   1.000000
   70       -2.659294   1.000000
   71       -2.611972   1.000000
   72       -2.459955   1.000000
   73       -2.395337   1.000000
   74       -2.321693   1.000000
   75       -1.980969   1.000000
   76       -1.767172   1.000000
   77       -1.661006   1.000000
   78       -1.584419   1.000000
   79       -1.483675   1.000000
   80       -1.375267   1.000000
   81       -1.228597   1.000000
   82       -1.094352   1.000003
   83       -0.945802   1.000238
   84       -0.748989   1.012854
   85       -0.681124   1.027512
   86       -0.580647   1.025203
   87       -0.462199   0.815791
   88       -0.325320   0.276076
   89       -0.119840  -0.034605
   90       -0.049929  -0.020644
   91       -0.009022  -0.012325
   92        0.086840  -0.002328
   93        0.157478  -0.000476
   94        0.244688  -0.000045
   95        0.376271  -0.000001
   96        0.393338  -0.000000
   97        0.506679  -0.000000
   98        0.522205  -0.000000
   99        0.615289  -0.000000
  100        0.678240  -0.000000
  101        0.728931  -0.000000
  102        0.886736  -0.000000
  103        0.899886  -0.000000
  104        1.055970  -0.000000
  105        1.098572  -0.000000
  106        1.117687  -0.000000
  107        1.151513  -0.000000
  108        1.231889  -0.000000
  109        1.265722  -0.000000
  110        1.347123  -0.000000
  111        1.461952  -0.000000
  112        1.506166  -0.000000
  113        1.649673  -0.000000
  114        1.849973  -0.000000

  0.2222222E+00  0.3922785E-15  0.3630220E-15  0.6734007E-02
    1      -14.010373   1.000000
    2      -12.960571   1.000000
    3      -12.640129   1.000000
    4      -11.914886   1.000000
    5      -11.542371   1.000000
    6      -11.355262   1.000000
    7      -11.307846   1.000000
    8      -11.037197   1.000000
    9      -10.896012   1.000000
   10      -10.842088   1.000000
   11      -10.701210   1.000000
   12      -10.437590   1.000000
   13      -10.201092   1.000000
   14      -10.137554   1.000000
   15       -9.703586   1.000000
   16       -9.509149   1.000000
   17       -9.020208   1.000000
   18       -8.889654   1.000000
   19       -8.744766   1.000000
   20       -8.675554   1.000000
   21       -8.579696   1.000000
   22       -8.355952   1.000000
   23       -8.145984   1.000000
   24       -7.844341   1.000000
   25       -7.731545   1.000000
   26       -7.704140   1.000000
   27       -7.591810   1.000000
   28       -7.055285   1.000000
   29       -6.341932   1.000000
   30       -6.264296   1.000000
   31       -6.207867   1.000000
   32       -6.107743   1.000000
   33       -6.028589   1.000000
   34       -5.911349   1.000000
   35       -5.768980   1.000000
   36       -5.669118   1.000000
   37       -5.511756   1.000000
   38       -5.405967   1.000000
   39       -5.287694   1.000000
   40       -5.152433   1.000000
   41       -5.100208   1.000000
   42       -5.022133   1.000000
   43       -4.931687   1.000000
   44       -4.812452   1.000000
   45       -4.768623   1.000000
   46       -4.682045   1.000000
   47       -4.613122   1.000000
   48       -4.523537   1.000000
   49       -4.401662   1.000000
   50       -4.311439   1.000000
   51       -4.262904   1.000000
   52       -4.149986   1.000000
   53       -4.089959   1.000000
   54       -4.031821   1.000000
   55       -4.000150   1.000000
   56       -3.863989   1.000000
   57       -3.847355   1.000000
   58       -3.760820   1.000000
   59       -3.717573   1.000000
   60       -3.577748   1.000000
   61       -3.540865   1.000000
   62       -3.443319   1.000000
   63       -3.370502   1.000000
   64       -3.118525   1.000000
   65       -3.092600   1.000000
   66       -2.939644   1.000000
   67       -2.921256   1.000000
   68       -2.847578   1.000000
   69       -2.792259   1.000000
   70       -2.734911   1.000000
   71       -2.623835   1.000000
   72       -2.402962   1.000000
   73       -2.368181   1.000000
   74       -2.289848   1.000000
   75       -2.105157   1.000000
   76       -1.763831   1.000000
   77       -1.649931   1.000000
   78       -1.626408   1.000000
   79       -1.506723   1.000000
   80       -1.215231   1.000000
   81       -1.168705   1.000000
   82       -1.136393   1.000001
   83       -0.933046   1.000331
   84       -0.875963   1.001281
   85       -0.702348   1.022639
   86       -0.516899   0.953431
   87       -0.487792   0.889462
   88       -0.293053   0.166295
   89       -0.085303  -0.028708
   90       -0.055568  -0.021929
   91        0.059453  -0.003979
   92        0.087516  -0.002296
   93        0.193199  -0.000191
   94        0.224490  -0.000081
   95        0.369477  -0.000001
   96        0.421787  -0.000000
   97        0.509863  -0.000000
   98        0.535578  -0.000000
   99        0.616217  -0.000000
  100        0.673966  -0.000000
  101        0.778578  -0.000000
  102        0.930727  -0.000000
  103        0.950108  -0.000000
  104        1.069184  -0.000000
  105        1.126560  -0.000000
  106        1.164920  -0.000000
  107        1.192553  -0.000000
  108        1.258084  -0.000000
  109        1.282379  -0.000000
  110        1.378361  -0.000000
  111        1.483074  -0.000000
  112        1.597062  -0.000000
  113        1.689151  -0.000000
  114        1.832946  -0.000000

  0.3333333E+00  0.3713828E-15  0.3468587E-15  0.6734007E-02
    1      -13.908087   1.000000
    2      -13.167800   1.000000
    3      -12.577910   1.000000
    4      -11.939738   1.000000
    5      -11.478530   1.000000
    6      -11.356363   1.000000
    7      -11.328983   1.000000
    8      -11.059414   1.000000
    9      -10.900619   1.000000
   10      -10.818611   1.000000
   11      -10.673135   1.000000
   12      -10.462204   1.000000
   13      -10.203605   1.000000
   14      -10.016316   1.000000
   15       -9.607288   1.000000
   16       -9.565553   1.000000
   17       -9.020250   1.000000
   18       -8.915729   1.000000
   19       -8.851474   1.000000
   20       -8.765791   1.000000
   21       -8.629340   1.000000
   22       -8.367979   1.000000
   23       -8.152983   1.000000
   24       -7.973502   1.000000
   25       -7.741380   1.000000
   26       -7.682135   1.000000
   27       -7.538478   1.000000
   28       -6.957836   1.000000
   29       -6.499146   1.000000
   30       -6.317023   1.000000
   31       -6.260821   1.000000
   32       -6.054126   1.000000
   33       -5.944190   1.000000
   34       -5.804527   1.000000
   35       -5.673260   1.000000
   36       -5.547580   1.000000
   37       -5.408720   1.000000
   38       -5.364453   1.000000
   39       -5.258151   1.000000
   40       -5.184202   1.000000
   41       -5.097285   1.000000
   42       -4.999083   1.000000
   43       -4.896767   1.000000
   44       -4.801429   1.000000
   45       -4.694047   1.000000
   46       -4.648069   1.000000
   47       -4.565908   1.000000
   48       -4.500883   1.000000
   49       -4.393323   1.000000
   50       -4.322507   1.000000
   51       -4.248761   1.000000
   52       -4.198789   1.000000
   53       -4.114572   1.000000
   54       -4.007340   1.000000
   55       -3.966111   1.000000
   56       -3.880756   1.000000
   57       -3.832846   1.000000
   58       -3.785674   1.000000
   59       -3.715010   1.000000
   60       -3.694665   1.000000
   61       -3.535472   1.000000
   62       -3.455545   1.000000
   63       -3.358444   1.000000
   64       -3.169786   1.000000
   65       -3.150544   1.000000
   66       -3.092017   1.000000
   67       -2.996382   1.000000
   68       -2.926655   1.000000
   69       -2.803513   1.000000
   70       -2.715205   1.000000
   71       -2.607139   1.000000
   72       -2.373080   1.000000
   73       -2.313624   1.000000
   74       -2.225502   1.000000
   75       -2.138041   1.000000
   76       -1.816606   1.000000
   77       -1.698934   1.000000
   78       -1.627003   1.000000
   79       -1.514295   1.000000
   80       -1.317776   1.000000
   81       -1.158131   1.000000
   82       -1.037925   1.000017
   83       -0.907020   1.000627
   84       -0.859333   1.001834
   85       -0.692764   1.024856
   86       -0.518088   0.955592
   87       -0.428099   0.695223
   88       -0.259927   0.078703
   89       -0.117972  -0.034404
   90       -0.050269  -0.020721
   91        0.028258  -0.006922
   92        0.160827  -0.000438
   93        0.185102  -0.000237
   94        0.269773  -0.000021
   95        0.354064  -0.000001
   96        0.386005  -0.000000
   97        0.539141  -0.000000
   98        0.593038  -0.000000
   99        0.696356  -0.000000
  100        0.705989  -0.000000
  101        0.792539  -0.000000
  102        0.974342  -0.000000
  103        1.005720  -0.000000
  104        1.073404  -0.000000
  105        1.127154  -0.000000
  106        1.196417  -0.000000
  107        1.254061  -0.000000
  108        1.289839  -0.000000
  109        1.323074  -0.000000
  110        1.444733  -0.000000
  111        1.488722  -0.000000
  112        1.547068  -0.000000
  113        1.604450  -0.000000
  114        1.739850  -0.000000

  0.4444444E+00  0.3870091E-15  0.3932070E-15  0.6734007E-02
    1      -13.805956   1.000000
    2      -13.331701   1.000000
    3      -12.513246   1.000000
    4      -12.002836   1.000000
    5      -11.427968   1.000000
    6      -11.363901   1.000000
    7      -11.322747   1.000000
    8      -11.072086   1.000000
    9      -10.903712   1.000000
   10      -10.803945   1.000000
   11      -10.653095   1.000000
   12      -10.490717   1.000000
   13      -10.200303   1.000000
   14       -9.910950   1.000000
   15       -9.619892   1.000000
   16       -9.510192   1.000000
   17       -9.038446   1.000000
   18       -9.004222   1.000000
   19       -8.940019   1.000000
   20       -8.845421   1.000000
   21       -8.516752   1.000000
   22       -8.359707   1.000000
   23       -8.218309   1.000000
   24       -8.097767   1.000000
   25       -7.753937   1.000000
   26       -7.696773   1.000000
   27       -7.357068   1.000000
   28       -6.853654   1.000000
   29       -6.698069   1.000000
   30       -6.460671   1.000000
   31       -6.275988   1.000000
   32       -6.024626   1.000000
   33       -5.840026   1.000000
   34       -5.640770   1.000000
   35       -5.601962   1.000000
   36       -5.515075   1.000000
   37       -5.427626   1.000000
   38       -5.297077   1.000000
   39       -5.249078   1.000000
   40       -5.156383   1.000000
   41       -5.116442   1.000000
   42       -4.991424   1.000000
   43       -4.852280   1.000000
   44       -4.792399   1.000000
   45       -4.691315   1.000000
   46       -4.582409   1.000000
   47       -4.504407   1.000000
   48       -4.465009   1.000000
   49       -4.412493   1.000000
   50       -4.374356   1.000000
   51       -4.302915   1.000000
   52       -4.187218   1.000000
   53       -4.117418   1.000000
   54       -3.981415   1.000000
   55       -3.941094   1.000000
   56       -3.894965   1.000000
   57       -3.806226   1.000000
   58       -3.778159   1.000000
   59       -3.758651   1.000000
   60       -3.687826   1.000000
   61       -3.518541   1.000000
   62       -3.429964   1.000000
   63       -3.370734   1.000000
   64       -3.310892   1.000000
   65       -3.241314   1.000000
   66       -3.154788   1.000000
   67       -3.102802   1.000000
   68       -2.922482   1.000000
   69       -2.805171   1.000000
   70       -2.689566   1.000000
   71       -2.633974   1.000000
   72       -2.388591   1.000000
   73       -2.245448   1.000000
   74       -2.137850   1.000000
   75       -2.089532   1.000000
   76       -1.883417   1.000000
   77       -1.747968   1.000000
   78       -1.628406   1.000000
   79       -1.502506   1.000000
   80       -1.443237   1.000000
   81       -1.164772   1.000000
   82       -1.106706   1.000002
   83       -0.827321   1.003494
   84       -0.776884   1.008472
   85       -0.638334   1.034873
   86       -0.459115   0.805868
   87       -0.361202   0.418762
   88       -0.234308   0.029782
   89       -0.162600  -0.032096
   90       -0.078363  -0.027173
   91        0.004436  -0.010119
   92        0.067063  -0.003444
   93        0.129345  -0.000927
   94        0.292302  -0.000011
   95        0.350715  -0.000001
   96        0.457496  -0.000000
   97        0.558617  -0.000000
   98        0.642621  -0.000000
   99        0.740492  -0.000000
  100        0.851378  -0.000000
  101        0.858981  -0.000000
  102        0.976358  -0.000000
  103        1.024671  -0.000000
  104        1.098952  -0.000000
  105        1.143786  -0.000000
  106        1.199176  -0.000000
  107        1.271550  -0.000000
  108        1.363943  -0.000000
  109        1.392914  -0.000000
  110        1.499299  -0.000000
  111        1.629042  -0.000000
  112        1.738958  -0.000000
  113        1.781298  -0.000000
  114        2.075839  -0.000000

  0.3742002E-15  0.9090909E-01  0.3596334E-15  0.6734007E-02
    1      -14.068851   1.000000
    2      -12.785842   1.000000
    3      -12.546043   1.000000
    4      -12.007224   1.000000
    5      -11.588961   1.000000
    6      -11.520885   1.000000
    7      -11.281570   1.000000
    8      -11.183111   1.000000
    9      -10.982790   1.000000
   10      -10.719199   1.000000
   11      -10.581681   1.000000
   12      -10.455333   1.000000
   13      -10.223107   1.000000
   14      -10.169865   1.000000
   15       -9.752038   1.000000
   16       -9.525924   1.000000
   17       -9.027149   1.000000
   18       -8.865619   1.000000
   19       -8.788503   1.000000
   20       -8.576109   1.000000
   21       -8.316240   1.000000
   22       -8.175708   1.000000
   23       -8.084562   1.000000
   24       -7.955273   1.000000
   25       -7.739395   1.000000
   26       -7.445619   1.000000
   27       -7.374666   1.000000
   28       -7.056087   1.000000
   29       -6.472949   1.000000
   30       -6.351689   1.000000
   31       -6.279013   1.000000
   32       -6.220221   1.000000
   33       -6.099954   1.000000
   34       -5.879636   1.000000
   35       -5.743395   1.000000
   36       -5.638064   1.000000
   37       -5.586757   1.000000
   38       -5.490272   1.000000
   39       -5.317663   1.000000
   40       -5.244234   1.000000
   41       -5.142922   1.000000
   42       -5.086630   1.000000
   43       -4.988036   1.000000
   44       -4.930863   1.000000
   45       -4.837729   1.000000
   46       -4.742908   1.000000
   47       -4.657546   1.000000
   48       -4.520098   1.000000
   49       -4.460139   1.000000
   50       -4.390479   1.000000
   51       -4.342191   1.000000
   52       -4.216237   1.000000
   53       -4.125647   1.000000
   54       -4.040173   1.000000
   55       -3.940505   1.000000
   56       -3.865375   1.000000
   57       -3.775280   1.000000
   58       -3.698859   1.000000
   59       -3.631082   1.000000
   60       -3.602919   1.000000
   61       -3.445390   1.000000
   62       -3.372259   1.000000
   63       -3.314288   1.000000
   64       -3.155951   1.000000
   65       -3.100493   1.000000
   66       -2.963675   1.000000
   67       -2.914900   1.000000
   68       -2.873438   1.000000
   69       -2.691179   1.000000
   70       -2.611266   1.000000
   71       -2.547614   1.000000
   72       -2.517499   1.000000
   73       -2.379415   1.000000
   74       -2.278691   1.000000
   75       -1.975056   1.000000
   76       -1.782804   1.000000
   77       -1.691381   1.000000
   78       -1.591192   1.000000
   79       -1.553049   1.000000
   80       -1.406684   1.000000
   81       -1.244445   1.000000
   82       -1.080781   1.000004
   83       -0.943781   1.000251
   84       -0.797269   1.006041
   85       -0.687742   1.026012
   86       -0.609768   1.034406
   87       -0.494237   0.905467
   88       -0.338872   0.328018
   89       -0.253441   0.064776
   90       -0.106510  -0.032812
   91       -0.043631  -0.019235
   92        0.067446  -0.003419
   93        0.133050  -0.000851
   94        0.234012  -0.000062
   95        0.413549  -0.000000
   96        0.442756  -0.000000
   97        0.527809  -0.000000
   98        0.588675  -0.000000
   99        0.634668  -0.000000
  100        0.667750  -0.000000
  101        0.742659  -0.000000
  102        0.875719  -0.000000
  103        0.911281  -0.000000
  104        1.033827  -0.000000
  105        1.098970  -0.000000
  106        1.112221  -0.000000
  107        1.183662  -0.000000
  108        1.222145  -0.000000
  109        1.309811  -0.000000
  110        1.401531  -0.000000
  111        1.535440  -0.000000
  112        1.597502  -0.000000
  113        1.752245  -0.000000
  114        2.484698  -0.000000

  0.1111111E+00  0.9090909E-01  0.4822234E-15  0.6734007E-02
    1      -14.027155   1.000000
    2      -12.840834   1.000000
    3      -12.621497   1.000000
    4      -11.927037   1.000000
    5      -11.558529   1.000000
    6      -11.528998   1.000000
    7      -11.308860   1.000000
    8      -11.216084   1.000000
    9      -10.948322   1.000000
   10      -10.717556   1.000000
   11      -10.569770   1.000000
   12      -10.458270   1.000000
   13      -10.197578   1.000000
   14      -10.161636   1.000000
   15       -9.721129   1.000000
   16       -9.528715   1.000000
   17       -9.061843   1.000000
   18       -8.859925   1.000000
   19       -8.775668   1.000000
   20       -8.607652   1.000000
   21       -8.394717   1.000000
   22       -8.262419   1.000000
   23       -8.083966   1.000000
   24       -7.870536   1.000000
   25       -7.751810   1.000000
   26       -7.561713   1.000000
   27       -7.376788   1.000000
   28       -7.048516   1.000000
   29       -6.435078   1.000000
   30       -6.313574   1.000000
   31       -6.214210   1.000000
   32       -6.168820   1.000000
   33       -6.072158   1.000000
   34       -5.871993   1.000000
   35       -5.779041   1.000000
   36       -5.654149   1.000000
   37       -5.553820   1.000000
   38       -5.437297   1.000000
   39       -5.320637   1.000000
   40       -5.209788   1.000000
   41       -5.157841   1.000000
   42       -5.082598   1.000000
   43       -4.955393   1.000000
   44       -4.870461   1.000000
   45       -4.820589   1.000000
   46       -4.732944   1.000000
   47       -4.639158   1.000000
   48       -4.498780   1.000000
   49       -4.443068   1.000000
   50       -4.415660   1.000000
   51       -4.319495   1.000000
   52       -4.194532   1.000000
   53       -4.137674   1.000000
   54       -4.051839   1.000000
   55       -3.932351   1.000000
   56       -3.887133   1.000000
   57       -3.788891   1.000000
   58       -3.713937   1.000000
   59       -3.669367   1.000000
   60       -3.620604   1.000000
   61       -3.509089   1.000000
   62       -3.394334   1.000000
   63       -3.331786   1.000000
   64       -3.135556   1.000000
   65       -3.086134   1.000000
   66       -2.941705   1.000000
   67       -2.904336   1.000000
   68       -2.845138   1.000000
   69       -2.785040   1.000000
   70       -2.684352   1.000000
   71       -2.594973   1.000000
   72       -2.494131   1.000000
   73       -2.358901   1.000000
   74       -2.262383   1.000000
   75       -2.076460   1.000000
   76       -1.750323   1.000000
   77       -1.704544   1.000000
   78       -1.625754   1.000000
   79       -1.492003   1.000000
   80       -1.337098   1.000000
   81       -1.212169   1.000000
   82       -1.092890   1.000003
   83       -0.944874   1.000244
   84       -0.829084   1.003377
   85       -0.710828   1.020699
   86       -0.573904   1.021358
   87       -0.507602   0.935314
   88       -0.345436   0.354131
   89       -0.197652  -0.013786
   90       -0.089987  -0.029705
   91       -0.069829  -0.025224
   92        0.074236  -0.002996
   93        0.172645  -0.000326
   94        0.230343  -0.000069
   95        0.401424  -0.000000
   96        0.440113  -0.000000
   97        0.535336  -0.000000
   98        0.598474  -0.000000
   99        0.625995  -0.000000
  100        0.709549  -0.000000
  101        0.763102  -0.000000
  102        0.877281  -0.000000
  103        0.959673  -0.000000
  104        1.064684  -0.000000
  105        1.107211  -0.000000
  106        1.141004  -0.000000
  107        1.164960  -0.000000
  108        1.223468  -0.000000
  109        1.287316  -0.000000
  110        1.361408  -0.000000
  111        1.468874  -0.000000
  112        1.558737  -0.000000
  113        1.684686  -0.000000
  114        1.956932  -0.000000

  0.2222222E+00  0.9090909E-01  0.3065600E-15  0.6734007E-02
    1      -13.943950   1.000000
    2      -13.022923   1.000000
    3      -12.596644   1.000000
    4      -11.897719   1.000000
    5      -11.546786   1.000000
    6      -11.499200   1.000000
    7      -11.336818   1.000000
    8      -11.249219   1.000000
    9      -10.885919   1.000000
   10      -10.708874   1.000000
   11      -10.560611   1.000000
   12      -10.470568   1.000000
   13      -10.197088   1.000000
   14      -10.112244   1.000000
   15       -9.659991   1.000000
   16       -9.519922   1.000000
   17       -9.134911   1.000000
   18       -8.904345   1.000000
   19       -8.708262   1.000000
   20       -8.640072   1.000000
   21       -8.509857   1.000000
   22       -8.369843   1.000000
   23       -8.109044   1.000000
   24       -7.878410   1.000000
   25       -7.742739   1.000000
   26       -7.612909   1.000000
   27       -7.366640   1.000000
   28       -7.004648   1.000000
   29       -6.442077   1.000000
   30       -6.335027   1.000000
   31       -6.201191   1.000000
   32       -6.138356   1.000000
   33       -6.016693   1.000000
   34       -5.860112   1.000000
   35       -5.726369   1.000000
   36       -5.548720   1.000000
   37       -5.501051   1.000000
   38       -5.381204   1.000000
   39       -5.292089   1.000000
   40       -5.224392   1.000000
   41       -5.153814   1.000000
   42       -5.021506   1.000000
   43       -4.923466   1.000000
   44       -4.836703   1.000000
   45       -4.779283   1.000000
   46       -4.710920   1.000000
   47       -4.580301   1.000000
   48       -4.489170   1.000000
   49       -4.463656   1.000000
   50       -4.386222   1.000000
   51       -4.299102   1.000000
   52       -4.186862   1.000000
   53       -4.118318   1.000000
   54       -4.054053   1.000000
   55       -3.944415   1.000000
   56       -3.916567   1.000000
   57       -3.785735   1.000000
   58       -3.765149   1.000000
   59       -3.704770   1.000000
   60       -3.638072   1.000000
   61       -3.578889   1.000000
   62       -3.448055   1.000000
   63       -3.320024   1.000000
   64       -3.181227   1.000000
   65       -3.101635   1.000000
   66       -3.009148   1.000000
   67       -2.913212   1.000000
   68       -2.877395   1.000000
   69       -2.813064   1.000000
   70       -2.762368   1.000000
   71       -2.614026   1.000000
   72       -2.433211   1.000000
   73       -2.331028   1.000000
   74       -2.229982   1.000000
   75       -2.168967   1.000000
   76       -1.799797   1.000000
   77       -1.732831   1.000000
   78       -1.624441   1.000000
   79       -1.480678   1.000000
   80       -1.249742   1.000000
   81       -1.169309   1.000000
   82       -1.058954   1.000009
   83       -0.952039   1.000202
   84       -0.892245   1.000887
   85       -0.724998   1.017578
   86       -0.594316   1.030891
   87       -0.446136   0.761844
   88       -0.339638   0.331038
   89       -0.151883  -0.034312
   90       -0.068935  -0.025018