   74   74   85    1
  0.2110353E+02  0.1053953E-08  0.6141200E-09  0.2412750E-08  0.5000000E-15
   1.0000000000000000E-004
  CAR 
 Name                                    
    284     23    184

  0.3742002E-15  0.3742002E-15  0.1262379E-14  0.2222222E-01
    1      -13.976886   1.000000
    2      -12.848891   1.000000
    3      -12.792916   1.000000
    4      -12.746221   1.000000
    5      -11.805788   1.000000
    6      -11.688181   1.000000
    7      -11.644514   1.000000
    8      -11.588284   1.000000
    9      -11.419186   1.000000
   10      -11.263031   1.000000
   11      -11.193413   1.000000
   12      -11.085488   1.000000
   13      -11.049082   1.000000
   14      -10.733897   1.000000
   15      -10.510935   1.000000
   16      -10.309464   1.000000
   17      -10.169720   1.000000
   18      -10.153242   1.000000
   19       -9.871330   1.000000
   20       -9.698847   1.000000
   21       -9.665059   1.000000
   22       -9.585672   1.000000
   23       -9.446665   1.000000
   24       -9.416406   1.000000
   25       -8.908912   1.000000
   26       -8.891052   1.000000
   27       -8.683067   1.000000
   28       -8.501290   1.000000
   29       -8.457820   1.000000
   30       -8.284436   1.000000
   31       -8.203399   1.000000
   32       -7.931548   1.000000
   33       -7.751669   1.000000
   34       -7.480023   1.000000
   35       -7.320264   1.000000
   36       -7.271314   1.000000
   37       -7.110236   1.000000
   38       -7.031546   1.000000
   39       -6.975976   1.000000
   40       -6.970031   1.000000
   41       -6.799550   1.000000
   42       -6.779953   1.000000
   43       -6.657811   1.000000
   44       -6.615827   1.000000
   45       -6.523169   1.000000
   46       -6.468717   1.000000
   47       -6.402656   1.000000
   48       -6.284317   1.000000
   49       -6.226339   1.000000
   50       -6.130226   1.000000
   51       -5.895972   1.000000
   52       -5.860884   1.000000
   53       -5.815437   1.000000
   54       -5.775300   1.000000
   55       -5.659443   1.000000
   56       -5.593394   1.000000
   57       -5.580186   1.000000
   58       -5.407135   1.000000
   59       -5.398110   1.000000
   60       -5.378475   1.000000
   61       -5.257395   1.000000
   62       -5.246893   1.000000
   63       -5.011227   1.000000
   64       -4.900614   1.000000
   65       -4.770468   1.000000
   66       -4.724638   1.000000
   67       -4.723356   1.000000
   68       -4.678059   1.000000
   69       -4.554464   1.000000
   70       -4.497222   1.000000
   71       -4.427253   1.000000
   72       -4.389614   1.000000
   73       -4.273055   1.000000
   74       -4.248280   1.000000
   75       -4.215316   1.000000
   76       -4.201169   1.000000
   77       -4.168322   1.000000
   78       -4.095039   1.000000
   79       -3.995611   1.000000
   80       -3.991329   1.000000
   81       -3.966716   1.000000
   82       -3.936357   1.000000
   83       -3.907183   1.000000
   84       -3.894272   1.000000
   85       -3.829053   1.000000
   86       -3.808411   1.000000
   87       -3.710232   1.000000
   88       -3.664608   1.000000
   89       -3.635738   1.000000
   90       -3.574674   1.000000
   91       -3.545668   1.000000
   92       -3.535985   1.000000
   93       -3.372503   1.000000
   94       -3.275403   1.000000
   95       -3.179691   1.000000
   96       -3.142628   1.000000
   97       -2.999318   1.000000
   98       -2.927325   1.000000
   99       -2.851969   1.000000
  100       -2.793519   1.000000
  101       -2.704975   1.000000
  102       -2.599650   1.000000
  103       -2.577926   1.000000
  104       -2.427565   1.000000
  105       -2.413081   1.000000
  106       -2.399837   1.000000
  107       -2.342334   1.000000
  108       -2.226256   1.000000
  109       -2.153139   1.000000
  110       -2.123525   1.000000
  111       -2.013727   1.000000
  112       -1.946318   1.000000
  113       -1.939574   1.000000
  114       -1.878381   1.000000
  115       -1.845577   1.000000
  116       -1.830186   1.000000
  117       -1.791223   1.000000
  118       -1.748360   1.000000
  119       -1.687020   1.000000
  120       -1.678440   1.000000
  121       -1.388267   1.000000
  122       -1.055799   1.000000
  123       -1.050738   1.000000
  124       -1.042538   1.000000
  125       -0.822302   1.000000
  126       -0.815619   1.000000
  127       -0.738591   1.000000
  128       -0.564669   1.000000
  129       -0.457729   1.000000
  130       -0.392198   1.000000
  131       -0.250657   1.000000
  132       -0.218068   1.000000
  133       -0.151350   1.000000
  134       -0.063700   1.000000
  135        0.156678   1.000367
  136        0.167257   1.000616
  137        0.234193   1.008882
  138        0.270168   1.022733
  139        0.279731   1.027132
  140        0.307709   1.035450
  141        0.380666   0.871323
  142        0.404709   0.713359
  143        0.482655   0.120360
  144        0.514775   0.000668
  145        0.551062  -0.035374
  146        0.591489  -0.022789
  147        0.611395  -0.014238
  148        0.672696  -0.001657
  149        0.752139  -0.000027
  150        0.773519  -0.000007
  151        0.962323  -0.000000
  152        1.059723  -0.000000
  153        1.081721  -0.000000
  154        1.121952  -0.000000
  155        1.167488  -0.000000
  156        1.221258  -0.000000
  157        1.283431  -0.000000
  158        1.285652  -0.000000
  159        1.324536  -0.000000
  160        1.371081  -0.000000
  161        1.381862  -0.000000
  162        1.402692  -0.000000
  163        1.469671  -0.000000
  164        1.545964  -0.000000
  165        1.565687  -0.000000
  166        1.617588  -0.000000
  167        1.646317  -0.000000
  168        1.684934  -0.000000
  169        1.694459  -0.000000
  170        1.723653  -0.000000
  171        1.725828  -0.000000
  172        1.735639  -0.000000
  173        1.745740  -0.000000
  174        1.791761  -0.000000
  175        1.805426  -0.000000
  176        1.853024  -0.000000
  177        1.898912  -0.000000
  178        1.945645  -0.000000
  179        1.960357  -0.000000
  180        2.007081  -0.000000
  181        2.156614  -0.000000
  182        2.176246  -0.000000
  183        2.260448  -0.000000
  184        2.314227  -0.000000

  0.2000000E+00  0.3742002E-15  0.1262379E-14  0.4444444E-01
    1      -13.928423   1.000000
    2      -13.222905   1.000000
    3      -12.711591   1.000000
    4      -12.337015   1.000000
    5      -12.048254   1.000000
    6      -11.795566   1.000000
    7      -11.640121   1.000000
    8      -11.347549   1.000000
    9      -11.260803   1.000000
   10      -11.231973   1.000000
   11      -11.137610   1.000000
   12      -11.125265   1.000000
   13      -10.969444   1.000000
   14      -10.800305   1.000000
   15      -10.608281   1.000000
   16      -10.565128   1.000000
   17      -10.563942   1.000000
   18       -9.883426   1.000000
   19       -9.848695   1.000000
   20       -9.679647   1.000000
   21       -9.559318   1.000000
   22       -9.526753   1.000000
   23       -9.452151   1.000000
   24       -9.421823   1.000000
   25       -9.128604   1.000000
   26       -8.879770   1.000000
   27       -8.435008   1.000000
   28       -8.386932   1.000000
   29       -8.292893   1.000000
   30       -8.203230   1.000000
   31       -8.162796   1.000000
   32       -8.131082   1.000000
   33       -7.656272   1.000000
   34       -7.533655   1.000000
   35       -7.508540   1.000000
   36       -7.350923   1.000000
   37       -7.231055   1.000000
   38       -7.149349   1.000000
   39       -7.074752   1.000000
   40       -6.988811   1.000000
   41       -6.867082   1.000000
   42       -6.725734   1.000000
   43       -6.712617   1.000000
   44       -6.577516   1.000000
   45       -6.571454   1.000000
   46       -6.391009   1.000000
   47       -6.238311   1.000000
   48       -6.231279   1.000000
   49       -6.118817   1.000000
   50       -6.067451   1.000000
   51       -5.979910   1.000000
   52       -5.934544   1.000000
   53       -5.721665   1.000000
   54       -5.693103   1.000000
   55       -5.638525   1.000000
   56       -5.567162   1.000000
   57       -5.488128   1.000000
   58       -5.457266   1.000000
   59       -5.403257   1.000000
   60       -5.296280   1.000000
   61       -5.259623   1.000000
   62       -5.239339   1.000000
   63       -5.135775   1.000000
   64       -4.911522   1.000000
   65       -4.820937   1.000000
   66       -4.783617   1.000000
   67       -4.743744   1.000000
   68       -4.642864   1.000000
   69       -4.571651   1.000000
   70       -4.536247   1.000000
   71       -4.380590   1.000000
   72       -4.353782   1.000000
   73       -4.246505   1.000000
   74       -4.243166   1.000000
   75       -4.228764   1.000000
   76       -4.203594   1.000000
   77       -4.115179   1.000000
   78       -4.080749   1.000000
   79       -3.995228   1.000000
   80       -3.983756   1.000000
   81       -3.969438   1.000000
   82       -3.955883   1.000000
   83       -3.948680   1.000000
   84       -3.929774   1.000000
   85       -3.776230   1.000000
   86       -3.738615   1.000000
   87       -3.684091   1.000000
   88       -3.628679   1.000000
   89       -3.622322   1.000000
   90       -3.583720   1.000000
   91       -3.566297   1.000000
   92       -3.555801   1.000000
   93       -3.537934   1.000000
   94       -3.251389   1.000000
   95       -3.221124   1.000000
   96       -3.208814   1.000000
   97       -3.004098   1.000000
   98       -2.980378   1.000000
   99       -2.908967   1.000000
  100       -2.805107   1.000000
  101       -2.782097   1.000000
  102       -2.748265   1.000000
  103       -2.411960   1.000000
  104       -2.361822   1.000000
  105       -2.337007   1.000000
  106       -2.301126   1.000000
  107       -2.265168   1.000000
  108       -2.228692   1.000000
  109       -2.186953   1.000000
  110       -2.060188   1.000000
  111       -2.016293   1.000000
  112       -1.999739   1.000000
  113       -1.942096   1.000000
  114       -1.826798   1.000000
  115       -1.779881   1.000000
  116       -1.764301   1.000000
  117       -1.755986   1.000000
  118       -1.713752   1.000000
  119       -1.641091   1.000000
  120       -1.553358   1.000000
  121       -1.347239   1.000000
  122       -1.150489   1.000000
  123       -1.081413   1.000000
  124       -1.061371   1.000000
  125       -0.936488   1.000000
  126       -0.823407   1.000000
  127       -0.818024   1.000000
  128       -0.594690   1.000000
  129       -0.582400   1.000000
  130       -0.474725   1.000000
  131       -0.420611   1.000000
  132       -0.328342   1.000000
  133       -0.222802   1.000000
  134       -0.136655   1.000000
  135        0.009831   1.000000
  136        0.087676   1.000007
  137        0.249873   1.014044
  138        0.262163   1.019106
  139        0.333882   1.021736
  140        0.377943   0.885850
  141        0.465782   0.223698
  142        0.502104   0.035956
  143        0.526939  -0.020527
  144        0.566495  -0.033250
  145        0.589607  -0.023659
  146        0.616017  -0.012540
  147        0.652591  -0.003729
  148        0.669853  -0.001869
  149        0.709319  -0.000296
  150        0.803157  -0.000001
  151        1.026917  -0.000000
  152        1.086975  -0.000000
  153        1.122259  -0.000000
  154        1.209777  -0.000000
  155        1.229699  -0.000000
  156        1.239179  -0.000000
  157        1.251860  -0.000000
  158        1.287242  -0.000000
  159        1.369759  -0.000000
  160        1.423709  -0.000000
  161        1.435753  -0.000000
  162        1.470207  -0.000000
  163        1.503449  -0.000000
  164        1.536999  -0.000000
  165        1.557588  -0.000000
  166        1.587706  -0.000000
  167        1.627109  -0.000000
  168        1.652212  -0.000000
  169        1.697028  -0.000000
  170        1.732053  -0.000000
  171        1.768839  -0.000000
  172        1.786827  -0.000000
  173        1.808857  -0.000000
  174        1.823740  -0.000000
  175        1.856006  -0.000000
  176        1.882042  -0.000000
  177        1.939436  -0.000000
  178        1.948888  -0.000000
  179        1.980631  -0.000000
  180        2.026127  -0.000000
  181        2.096115  -0.000000
  182        2.120600  -0.000000
  183        2.219685  -0.000000
  184        2.224064  -0.000000

  0.4000000E+00  0.3742002E-15  0.1262379E-14  0.4444444E-01
    1      -13.784262   1.000000
    2      -13.546718   1.000000
    3      -12.580155   1.000000
    4      -12.350071   1.000000
    5      -11.798505   1.000000
    6      -11.764667   1.000000
    7      -11.710995   1.000000
    8      -11.264917   1.000000
    9      -11.252764   1.000000
   10      -11.212896   1.000000
   11      -11.096421   1.000000
   12      -11.064662   1.000000
   13      -10.951883   1.000000
   14      -10.841920   1.000000
   15      -10.830414   1.000000
   16      -10.690935   1.000000
   17      -10.674257   1.000000
   18      -10.113510   1.000000
   19       -9.892268   1.000000
   20       -9.659632   1.000000
   21       -9.524622   1.000000
   22       -9.496949   1.000000
   23       -9.419081   1.000000
   24       -9.282398   1.000000
   25       -9.081448   1.000000
   26       -8.833674   1.000000
   27       -8.397155   1.000000
   28       -8.277250   1.000000
   29       -8.057842   1.000000
   30       -8.013501   1.000000
   31       -7.948261   1.000000
   32       -7.904733   1.000000
   33       -7.866474   1.000000
   34       -7.761181   1.000000
   35       -7.654382   1.000000
   36       -7.635322   1.000000
   37       -7.533907   1.000000
   38       -7.352068   1.000000
   39       -7.235002   1.000000
   40       -7.032811   1.000000
   41       -6.790951   1.000000
   42       -6.749634   1.000000
   43       -6.580898   1.000000
   44       -6.512775   1.000000
   45       -6.412241   1.000000
   46       -6.370251   1.000000
   47       -6.222289   1.000000
   48       -6.146016   1.000000
   49       -6.088712   1.000000
   50       -6.020567   1.000000
   51       -5.992196   1.000000
   52       -5.904314   1.000000
   53       -5.791656   1.000000
   54       -5.720674   1.000000
   55       -5.635441   1.000000
   56       -5.564757   1.000000
   57       -5.440591   1.000000
   58       -5.422687   1.000000
   59       -5.376420   1.000000
   60       -5.274515   1.000000
   61       -5.187869   1.000000
   62       -5.095190   1.000000
   63       -5.048039   1.000000
   64       -4.946003   1.000000
   65       -4.846545   1.000000
   66       -4.791314   1.000000
   67       -4.729464   1.000000
   68       -4.680467   1.000000
   69       -4.646639   1.000000
   70       -4.583918   1.000000
   71       -4.465118   1.000000
   72       -4.399099   1.000000
   73       -4.289882   1.000000
   74       -4.223889   1.000000
   75       -4.217256   1.000000
   76       -4.196091   1.000000
   77       -4.157346   1.000000
   78       -4.146258   1.000000
   79       -3.979657   1.000000
   80       -3.953414   1.000000
   81       -3.900598   1.000000
   82       -3.894283   1.000000
   83       -3.878903   1.000000
   84       -3.852597   1.000000
   85       -3.807084   1.000000
   86       -3.776967   1.000000
   87       -3.701387   1.000000
   88       -3.662004   1.000000
   89       -3.643273   1.000000
   90       -3.591472   1.000000
   91       -3.485547   1.000000
   92       -3.481909   1.000000
   93       -3.442187   1.000000
   94       -3.360146   1.000000
   95       -3.312410   1.000000
   96       -3.239413   1.000000
   97       -3.227306   1.000000
   98       -3.130641   1.000000
   99       -3.032780   1.000000
  100       -2.926521   1.000000
  101       -2.802092   1.000000
  102       -2.542303   1.000000
  103       -2.414367   1.000000
  104       -2.400699   1.000000
  105       -2.397274   1.000000
  106       -2.268436   1.000000
  107       -2.099907   1.000000
  108       -2.069814   1.000000
  109       -2.057399   1.000000
  110       -2.052838   1.000000
  111       -1.945168   1.000000
  112       -1.942433   1.000000
  113       -1.874245   1.000000
  114       -1.807623   1.000000
  115       -1.754532   1.000000
  116       -1.671344   1.000000
  117       -1.643639   1.000000
  118       -1.497487   1.000000
  119       -1.478505   1.000000
  120       -1.426707   1.000000
  121       -1.272180   1.000000
  122       -1.227857   1.000000
  123       -1.190416   1.000000
  124       -1.185863   1.000000
  125       -1.155170   1.000000
  126       -0.958514   1.000000
  127       -0.911887   1.000000
  128       -0.884249   1.000000
  129       -0.721767   1.000000
  130       -0.679703   1.000000
  131       -0.587286   1.000000
  132       -0.465595   1.000000
  133       -0.238281   1.000000
  134       -0.196947   1.000000
  135       -0.054559   1.000000
  136        0.169229   1.000677
  137        0.231711   1.008209
  138        0.247042   1.012997
  139        0.273065   1.024073
  140        0.358428   0.968174
  141        0.395519   0.779584
  142        0.458431   0.276435
  143        0.533258  -0.027414
  144        0.602391  -0.017898
  145        0.639159  -0.006065
  146        0.687109  -0.000873
  147        0.692242  -0.000687
  148        0.839467  -0.000000
  149        0.886095  -0.000000
  150        0.913959  -0.000000
  151        0.966682  -0.000000
  152        1.133997  -0.000000
  153        1.169818  -0.000000
  154        1.231766  -0.000000
  155        1.280525  -0.000000
  156        1.328458  -0.000000
  157        1.359506  -0.000000
  158        1.395235  -0.000000
  159        1.424124  -0.000000
  160        1.456907  -0.000000
  161        1.483601  -0.000000
  162        1.516951  -0.000000
  163        1.548768  -0.000000
  164        1.587593  -0.000000
  165        1.612775  -0.000000
  166        1.616929  -0.000000
  167        1.657662  -0.000000
  168        1.670899  -0.000000
  169        1.714511  -0.000000
  170        1.739165  -0.000000
  171        1.777941  -0.000000
  172        1.789507  -0.000000
  173        1.802456  -0.000000
  174        1.836117  -0.000000
  175        1.895795  -0.000000
  176        1.921134  -0.000000
  177        1.938798  -0.000000
  178        1.963558  -0.000000
  179        1.995949  -0.000000
  180        2.028494  -0.000000
  181        2.069007  -0.000000
  182        2.092366  -0.000000
  183        2.166355  -0.000000
  184        2.176758  -0.000000

  0.3742002E-15  0.1111111E+00  0.1262379E-14  0.4444444E-01
    1      -13.929954   1.000000
    2      -12.809221   1.000000
    3      -12.758521   1.000000
    4      -12.707570   1.000000
    5      -11.910635   1.000000
    6      -11.659777   1.000000
    7      -11.626159   1.000000
    8      -11.615993   1.000000
    9      -11.457882   1.000000
   10      -11.309437   1.000000
   11      -11.169085   1.000000
   12      -11.088607   1.000000
   13      -11.059123   1.000000
   14      -10.705253   1.000000
   15      -10.532522   1.000000
   16      -10.285311   1.000000
   17      -10.150808   1.000000
   18      -10.115098   1.000000
   19       -9.868269   1.000000
   20       -9.709553   1.000000
   21       -9.687008   1.000000
   22       -9.607574   1.000000
   23       -9.461972   1.000000
   24       -9.397377   1.000000
   25       -8.928838   1.000000
   26       -8.869675   1.000000
   27       -8.681870   1.000000
   28       -8.501966   1.000000
   29       -8.450384   1.000000
   30       -8.309423   1.000000
   31       -8.033258   1.000000
   32       -7.943675   1.000000
   33       -7.857964   1.000000
   34       -7.465792   1.000000
   35       -7.438582   1.000000
   36       -7.381693   1.000000
   37       -7.084024   1.000000
   38       -7.014974   1.000000
   39       -6.985584   1.000000
   40       -6.955629   1.000000
   41       -6.739956   1.000000
   42       -6.709313   1.000000
   43       -6.657910   1.000000
   44       -6.617813   1.000000
   45       -6.521699   1.000000
   46       -6.453061   1.000000
   47       -6.415472   1.000000
   48       -6.287003   1.000000
   49       -6.197354   1.000000
   50       -6.151803   1.000000
   51       -5.967135   1.000000
   52       -5.829760   1.000000
   53       -5.746380   1.000000
   54       -5.688035   1.000000
   55       -5.660925   1.000000
   56       -5.637070   1.000000
   57       -5.506526   1.000000
   58       -5.433769   1.000000
   59       -5.355388   1.000000
   60       -5.318961   1.000000
   61       -5.237511   1.000000
   62       -5.219730   1.000000
   63       -5.008844   1.000000
   64       -4.836105   1.000000
   65       -4.812742   1.000000
   66       -4.712630   1.000000
   67       -4.701846   1.000000
   68       -4.621679   1.000000
   69       -4.568481   1.000000
   70       -4.547676   1.000000
   71       -4.425732   1.000000
   72       -4.355386   1.000000
   73       -4.304200   1.000000
   74       -4.289058   1.000000
   75       -4.228198   1.000000
   76       -4.210654   1.000000
   77       -4.197023   1.000000
   78       -4.101001   1.000000
   79       -4.094851   1.000000
   80       -4.091703   1.000000
   81       -4.078654   1.000000
   82       -3.978483   1.000000
   83       -3.972995   1.000000
   84       -3.857596   1.000000
   85       -3.795783   1.000000
   86       -3.773852   1.000000
   87       -3.746022   1.000000
   88       -3.725167   1.000000
   89       -3.654491   1.000000
   90       -3.557212   1.000000
   91       -3.552000   1.000000
   92       -3.520231   1.000000
   93       -3.496318   1.000000
   94       -3.313803   1.000000
   95       -3.098344   1.000000
   96       -2.961270   1.000000
   97       -2.933024   1.000000
   98       -2.929536   1.000000
   99       -2.835983   1.000000
  100       -2.810400   1.000000
  101       -2.680009   1.000000
  102       -2.605108   1.000000
  103       -2.590457   1.000000
  104       -2.532360   1.000000
  105       -2.474421   1.000000
  106       -2.355007   1.000000
  107       -2.285570   1.000000
  108       -2.253937   1.000000
  109       -2.246477   1.000000
  110       -2.147171   1.000000
  111       -2.101188   1.000000
  112       -2.018772   1.000000
  113       -1.990384   1.000000
  114       -1.902977   1.000000
  115       -1.847993   1.000000
  116       -1.756626   1.000000
  117       -1.745258   1.000000
  118       -1.709921   1.000000
  119       -1.690970   1.000000
  120       -1.571256   1.000000
  121       -1.347657   1.000000
  122       -1.139718   1.000000
  123       -1.087815   1.000000
  124       -0.917678   1.000000
  125       -0.863230   1.000000
  126       -0.786776   1.000000
  127       -0.750802   1.000000
  128       -0.629081   1.000000
  129       -0.614502   1.000000
  130       -0.357201   1.000000
  131       -0.323913   1.000000
  132       -0.249416   1.000000
  133       -0.055608   1.000000
  134       -0.007996   1.000000
  135        0.074756   1.000003
  136        0.122376   1.000058
  137        0.167205   1.000615
  138        0.219478   1.005435
  139        0.247755   1.013256
  140        0.271249   1.023232
  141        0.284694   1.029310
  142        0.350750   0.990402
  143        0.499533   0.044951
  144        0.512968   0.004823
  145        0.540811  -0.032596
  146        0.667164  -0.002091
  147        0.716068  -0.000209
  148        0.721772  -0.000154
  149        0.888388  -0.000000
  150        0.942492  -0.000000
  151        1.000629  -0.000000
  152        1.046090  -0.000000
  153        1.066829  -0.000000
  154        1.123698  -0.000000
  155        1.203653  -0.000000
  156        1.227015  -0.000000
  157        1.274718  -0.000000
  158        1.290654  -0.000000
  159        1.357898  -0.000000
  160        1.379417  -0.000000
  161        1.405575  -0.000000
  162        1.445877  -0.000000
  163        1.453020  -0.000000
  164        1.460143  -0.000000
  165        1.534211  -0.000000
  166        1.597002  -0.000000
  167        1.630952  -0.000000
  168        1.674750  -0.000000
  169        1.691099  -0.000000
  170        1.729461  -0.000000
  171        1.735063  -0.000000
  172        1.754393  -0.000000
  173        1.793820  -0.000000
  174        1.819841  -0.000000
  175        1.845080  -0.000000
  176        1.865049  -0.000000
  177        1.894142  -0.000000
  178        1.906470  -0.000000
  179        1.945597  -0.000000
  180        1.981036  -0.000000
  181        2.016840  -0.000000
  182        2.049378  -0.000000
  183        2.187078  -0.000000
  184        2.317422  -0.000000

  0.2000000E+00  0.1111111E+00  0.1262379E-14  0.4444444E-01
    1      -13.881893   1.000000
    2      -13.182404   1.000000
    3      -12.672261   1.000000
    4      -12.305399   1.000000
    5      -12.015311   1.000000
    6      -11.896604   1.000000
    7      -11.694904   1.000000
    8      -11.369225   1.000000
    9      -11.306612   1.000000
   10      -11.206516   1.000000
   11      -11.148166   1.000000
   12      -11.109230   1.000000
   13      -10.968549   1.000000
   14      -10.779174   1.000000
   15      -10.588967   1.000000
   16      -10.576211   1.000000
   17      -10.538850   1.000000
   18       -9.890996   1.000000
   19       -9.825455   1.000000
   20       -9.689895   1.000000
   21       -9.579287   1.000000
   22       -9.517788   1.000000
   23       -9.447365   1.000000
   24       -9.429714   1.000000
   25       -9.129632   1.000000
   26       -8.877647   1.000000
   27       -8.440849   1.000000
   28       -8.385355   1.000000
   29       -8.298269   1.000000
   30       -8.231906   1.000000
   31       -8.155346   1.000000
   32       -7.973627   1.000000
   33       -7.743596   1.000000
   34       -7.618671   1.000000
   35       -7.497692   1.000000
   36       -7.432547   1.000000
   37       -7.146487   1.000000
   38       -7.132434   1.000000
   39       -7.056248   1.000000
   40       -7.009681   1.000000
   41       -6.852091   1.000000
   42       -6.707998   1.000000
   43       -6.668994   1.000000
   44       -6.652235   1.000000
   45       -6.572766   1.000000
   46       -6.532261   1.000000
   47       -6.292243   1.000000
   48       -6.164352   1.000000
   49       -6.074608   1.000000
   50       -5.999834   1.000000
   51       -5.944372   1.000000
   52       -5.872575   1.000000
   53       -5.717186   1.000000
   54       -5.694833   1.000000
   55       -5.667652   1.000000
   56       -5.545464   1.000000
   57       -5.488621   1.000000
   58       -5.378065   1.000000
   59       -5.332924   1.000000
   60       -5.301938   1.000000
   61       -5.255773   1.000000
   62       -5.197072   1.000000
   63       -5.118869   1.000000
   64       -4.930150   1.000000
   65       -4.778832   1.000000
   66       -4.756604   1.000000
   67       -4.683396   1.000000
   68       -4.628173   1.000000
   69       -4.570075   1.000000
   70       -4.533060   1.000000
   71       -4.403023   1.000000
   72       -4.373439   1.000000
   73       -4.274875   1.000000
   74       -4.245824   1.000000
   75       -4.221146   1.000000
   76       -4.199240   1.000000
   77       -4.174917   1.000000
   78       -4.152248   1.000000
   79       -4.109896   1.000000
   80       -4.072192   1.000000
   81       -4.053192   1.000000
   82       -4.010281   1.000000
   83       -3.939866   1.000000
   84       -3.883285   1.000000
   85       -3.814363   1.000000
   86       -3.760913   1.000000
   87       -3.739482   1.000000
   88       -3.705964   1.000000
   89       -3.662863   1.000000
   90       -3.577919   1.000000
   91       -3.536784   1.000000
   92       -3.503160   1.000000
   93       -3.480708   1.000000
   94       -3.291400   1.000000
   95       -3.165481   1.000000
   96       -3.063134   1.000000
   97       -3.035181   1.000000
   98       -2.993585   1.000000
   99       -2.887473   1.000000
  100       -2.820394   1.000000
  101       -2.794305   1.000000
  102       -2.729012   1.000000
  103       -2.455958   1.000000
  104       -2.429538   1.000000
  105       -2.383748   1.000000
  106       -2.309482   1.000000
  107       -2.282685   1.000000
  108       -2.259479   1.000000
  109       -2.129781   1.000000
  110       -2.092780   1.000000
  111       -2.021099   1.000000
  112       -1.996838   1.000000
  113       -1.944573   1.000000
  114       -1.922534   1.000000
  115       -1.840166   1.000000
  116       -1.821187   1.000000
  117       -1.745917   1.000000
  118       -1.665248   1.000000
  119       -1.599775   1.000000
  120       -1.514693   1.000000
  121       -1.319921   1.000000
  122       -1.190283   1.000000
  123       -1.088509   1.000000
  124       -1.008772   1.000000
  125       -0.965694   1.000000
  126       -0.869419   1.000000
  127       -0.823133   1.000000
  128       -0.762574   1.000000
  129       -0.533238   1.000000
  130       -0.464776   1.000000
  131       -0.301320   1.000000
  132       -0.228377   1.000000
  133       -0.096589   1.000000
  134       -0.062476   1.000000
  135       -0.013599   1.000000
  136        0.002510   1.000000
  137        0.119746   1.000049
  138        0.169008   1.000670
  139        0.237973   1.009983
  140        0.329690   1.026327
  141        0.395481   0.779839
  142        0.421032   0.582977
  143        0.473963   0.170277
  144        0.553353  -0.035458
  145        0.570786  -0.031810
  146        0.657398  -0.003099
  147        0.785698  -0.000003
  148        0.803925  -0.000001
  149        0.827341  -0.000000
  150        0.926799  -0.000000
  151        0.973984  -0.000000
  152        1.081804  -0.000000
  153        1.163905  -0.000000
  154        1.188766  -0.000000
  155        1.261090  -0.000000
  156        1.290590  -0.000000
  157        1.309450  -0.000000