 running on   72 total cores
 distrk:  each k-point on   72 cores,    1 groups
 distr:  one band on    9 cores,    8 groups
 using from now: INCAR     
 vasp.5.4.4.18Apr17-6-g9f103f2a35 (build Dec  7 2020 12:43:57) complex           
 POSCAR found type information on POSCAR  Mo V  B  H 
 POSCAR found :  4 types and      74 ions
 scaLAPACK will be used
 LDA part: xc-table for Pade appr. of Perdew
 POSCAR, INCAR and KPOINTS ok, starting setup
 resort distribution
 resort distribution
 resort distribution
 resort distribution
 resort distribution
 resort distribution
 resort distribution
 resort distribution
 resort distribution
 resort distribution
 resort distribution
 resort distribution
 resort distribution
 resort distribution
 resort distribution
 resort distribution
 resort distribution
 resort distribution
 resort distribution
 resort distribution
 resort distribution
 resort distribution
 resort distribution
 resort distribution
 resort distribution
 resort distribution
 resort distribution
 resort distribution
 resort distribution
 resort distribution
 resort distribution
 resort distribution
 resort distribution
 resort distribution
 resort distribution
 resort distribution
 resort distribution
 resort distribution
 resort distribution
 resort distribution
 resort distribution
 resort distribution
 resort distribution
 resort distribution
 resort distribution
 resort distribution
 resort distribution
 resort distribution
 resort distribution
 resort distribution
 resort distribution
 resort distribution
 resort distribution
 resort distribution
 resort distribution
 resort distribution
 resort distribution
 resort distribution
 resort distribution
 resort distribution
 resort distribution
 resort distribution
 resort distribution
 resort distribution
 resort distribution
 resort distribution
 resort distribution
 resort distribution
 resort distribution
 resort distribution
 resort distribution
 resort distribution
 FFT: planning ...
 WAVECAR not read
 augmentation electrons   284.06513466319734     
 soft         electrons   0.0000000000000000     
 augmentation electrons   284.06513466319734     
 soft         electrons   0.0000000000000000     
 augmentation electrons   284.06513466319734     
 soft         electrons   0.0000000000000000     
 augmentation electrons   284.06513466319734     
 soft         electrons   0.0000000000000000     
 augmentation electrons   284.06513466319734     
 soft         electrons   0.0000000000000000     
 augmentation electrons   284.06513466319734     
 soft         electrons   0.0000000000000000     
 augmentation electrons   284.06513466319734     
 soft         electrons   0.0000000000000000     
 augmentation electrons   284.06513466319734     
 soft         electrons   0.0000000000000000     
 augmentation electrons   284.06513466319734     
 soft         electrons   0.0000000000000000     
 augmentation electrons   284.06513466319734     
 soft         electrons   0.0000000000000000     
 augmentation electrons   284.06513466319734     
 soft         electrons   0.0000000000000000     
 augmentation electrons   284.06513466319734     
 soft         electrons   0.0000000000000000     
 augmentation electrons   284.06513466319734     
 soft         electrons   0.0000000000000000     
 augmentation electrons   284.06513466319734     
 soft         electrons   0.0000000000000000     
 augmentation electrons   284.06513466319734     
 soft         electrons   0.0000000000000000     
 augmentation electrons   284.06513466319734     
 soft         electrons   0.0000000000000000     
 augmentation electrons   284.06513466319734     
 soft         electrons   0.0000000000000000     
 augmentation electrons   284.06513466319734     
 soft         electrons   0.0000000000000000     
 augmentation electrons   284.06513466319734     
 soft         electrons   0.0000000000000000     
 augmentation electrons   284.06513466319734     
 soft         electrons   0.0000000000000000     
 augmentation electrons   284.06513466319734     
 soft         electrons   0.0000000000000000     
 augmentation electrons   284.06513466319734     
 soft         electrons   0.0000000000000000     
 augmentation electrons   284.06513466319734     
 soft         electrons   0.0000000000000000     
 augmentation electrons   284.06513466319734     
 soft         electrons   0.0000000000000000     
 augmentation electrons   284.06513466319734     
 soft         electrons   0.0000000000000000     
 augmentation electrons   284.06513466319734     
 soft         electrons   0.0000000000000000     
 augmentation electrons   284.06513466319734     
 soft         electrons   0.0000000000000000     
 augmentation electrons   284.06513466319734     
 soft         electrons   0.0000000000000000     
 augmentation electrons   284.06513466319734     
 soft         electrons   0.0000000000000000     
 augmentation electrons   284.06513466319734     
 soft         electrons   0.0000000000000000     
 augmentation electrons   284.06513466319734     
 soft         electrons   0.0000000000000000     
 augmentation electrons   284.06513466319734     
 soft         electrons   0.0000000000000000     
 augmentation electrons   284.06513466319734     
 soft         electrons   0.0000000000000000     
 augmentation electrons   284.06513466319734     
 soft         electrons   0.0000000000000000     
 augmentation electrons   284.06513466319734     
 soft         electrons   0.0000000000000000     
 augmentation electrons   284.06513466319734     
 soft         electrons   0.0000000000000000     
 augmentation electrons   284.06513466319734     
 soft         electrons   0.0000000000000000     
 augmentation electrons   284.06513466319734     
 soft         electrons   0.0000000000000000     
 augmentation electrons   284.06513466319734     
 soft         electrons   0.0000000000000000     
 augmentation electrons   284.06513466319734     
 soft         electrons   0.0000000000000000     
 augmentation electrons   284.06513466319734     
 soft         electrons   0.0000000000000000     
 augmentation electrons   284.06513466319734     
 soft         electrons   0.0000000000000000     
 augmentation electrons   284.06513466319734     
 soft         electrons   0.0000000000000000     
 augmentation electrons   284.06513466319734     
 soft         electrons   0.0000000000000000     
 augmentation electrons   284.06513466319734     
 soft         electrons   0.0000000000000000     
 augmentation electrons   284.06513466319734     
 soft         electrons   0.0000000000000000     
 augmentation electrons   284.06513466319734     
 soft         electrons   0.0000000000000000     
 augmentation electrons   284.06513466319734     
 soft         electrons   0.0000000000000000     
 augmentation electrons   284.06513466319734     
 soft         electrons   0.0000000000000000     
 augmentation electrons   284.06513466319734     
 soft         electrons   0.0000000000000000     
 augmentation electrons   284.06513466319734     
 soft         electrons   0.0000000000000000     
 augmentation electrons   284.06513466319734     
 soft         electrons   0.0000000000000000     
 augmentation electrons   284.06513466319734     
 soft         electrons   0.0000000000000000     
 augmentation electrons   284.06513466319734     
 soft         electrons   0.0000000000000000     
 augmentation electrons   284.06513466319734     
 soft         electrons   0.0000000000000000     
 augmentation electrons   284.06513466319734     
 soft         electrons   0.0000000000000000     
 augmentation electrons   284.06513466319734     
 soft         electrons   0.0000000000000000     
 augmentation electrons   284.06513466319734     
 soft         electrons   0.0000000000000000     
 augmentation electrons   284.06513466319734     
 soft         electrons   0.0000000000000000     
 augmentation electrons   284.06513466319734     
 soft         electrons   0.0000000000000000     
 augmentation electrons   284.06513466319734     
 soft         electrons   0.0000000000000000     
 augmentation electrons   284.06513466319734     
 soft         electrons   0.0000000000000000     
 augmentation electrons   284.06513466319734     
 soft         electrons   0.0000000000000000     
 augmentation electrons   284.06513466319734     
 soft         electrons   0.0000000000000000     
 augmentation electrons   284.06513466319734     
 soft         electrons   0.0000000000000000     
 augmentation electrons   284.06513466319734     
 soft         electrons   0.0000000000000000     
 augmentation electrons   284.06513466319734     
 soft         electrons   0.0000000000000000     
 augmentation electrons   284.06513466319734     
 soft         electrons   0.0000000000000000     
 augmentation electrons   284.06513466319734     
 soft         electrons   0.0000000000000000     
 augmentation electrons   284.06513466319734     
 soft         electrons   0.0000000000000000     
 augmentation electrons   284.06513466319734     
 soft         electrons   0.0000000000000000     
 total        electrons   284.06513466319734     
 total        electrons   284.06513466319734     
 total        electrons   284.06513466319734     
 total        electrons   284.06513466319734     
 total        electrons   284.06513466319734     
 total        electrons   284.06513466319734     
 total        electrons   284.06513466319734     
 total        electrons   284.06513466319734     
 total        electrons   284.06513466319734     
 total        electrons   284.06513466319734     
 total        electrons   284.06513466319734     
 total        electrons   284.06513466319734     
 total        electrons   284.06513466319734     
 total        electrons   284.06513466319734     
 total        electrons   284.06513466319734     
 total        electrons   284.06513466319734     
 total        electrons   284.06513466319734     
 total        electrons   284.06513466319734     
 total        electrons   284.06513466319734     
 total        electrons   284.06513466319734     
 total        electrons   284.06513466319734     
 total        electrons   284.06513466319734     
 total        electrons   284.06513466319734     
 total        electrons   284.06513466319734     
 total        electrons   284.06513466319734     
 augmentation electrons   284.06513466319734     
 soft         electrons   0.0000000000000000     
 total        electrons   284.06513466319734     
 total        electrons   284.06513466319734     
 total        electrons   284.06513466319734     
 total        electrons   284.06513466319734     
 total        electrons   284.06513466319734     
 total        electrons   284.06513466319734     
 total        electrons   284.06513466319734     
 total        electrons   284.06513466319734     
 total        electrons   284.06513466319734     
 total        electrons   284.06513466319734     
 total        electrons   284.06513466319734     
 total        electrons   284.06513466319734     
 total        electrons   284.06513466319734     
 total        electrons   284.06513466319734     
 total        electrons   284.06513466319734     
 total        electrons   284.06513466319734     
 total        electrons   284.06513466319734     
 total        electrons   284.06513466319734     
 total        electrons   284.06513466319734     
 total        electrons   284.06513466319734     
 total        electrons   284.06513466319734     
 total        electrons   284.06513466319734     
 total        electrons   284.06513466319734     
 total        electrons   284.06513466319734     
 total        electrons   284.06513466319734     
 total        electrons   284.06513466319734     
 total        electrons   284.06513466319734     
 total        electrons   284.06513466319734     
 total        electrons   284.06513466319734     
 total        electrons   284.06513466319734     
 total        electrons   284.06513466319734     
 total        electrons   284.06513466319734     
 total        electrons   284.06513466319734     
 total        electrons   284.06513466319734     
 total        electrons   284.06513466319734     
 total        electrons   284.06513466319734     
 total        electrons   284.06513466319734     
 total        electrons   284.06513466319734     
 total        electrons   284.06513466319734     
 total        electrons   284.06513466319734     
 total        electrons   284.06513466319734     
 total        electrons   284.06513466319734     
 total        electrons   284.06513466319734     
 total        electrons   284.06513466319734     
 total        electrons   284.06513466319734     
 total        electrons   284.06513466319734     
 total        electrons   284.06513466319734     
 augmentation electrons   1284.9953543078657     
 soft         electrons   0.0000000000000000     
 augmentation electrons   1284.9953543078657     
 soft         electrons   0.0000000000000000     
 augmentation electrons   1284.9953543078657     
 soft         electrons   0.0000000000000000     
 augmentation electrons   1284.9953543078657     
 soft         electrons   0.0000000000000000     
 augmentation electrons   1284.9953543078657     
 soft         electrons   0.0000000000000000     
 augmentation electrons   1284.9953543078657     
 soft         electrons   0.0000000000000000     
 augmentation electrons   1284.9953543078657     
 soft         electrons   0.0000000000000000     
 augmentation electrons   1284.9953543078657     
 soft         electrons   0.0000000000000000     
 augmentation electrons   1284.9953543078657     
 soft         electrons   0.0000000000000000     
 augmentation electrons   1284.9953543078657     
 soft         electrons   0.0000000000000000     
 augmentation electrons   1284.9953543078657     
 soft         electrons   0.0000000000000000     
 augmentation electrons   1284.9953543078657     
 soft         electrons   0.0000000000000000     
 augmentation electrons   1284.9953543078657     
 soft         electrons   0.0000000000000000     
 augmentation electrons   1284.9953543078657     
 soft         electrons   0.0000000000000000     
 augmentation electrons   1284.9953543078657     
 soft         electrons   0.0000000000000000     
 augmentation electrons   1284.9953543078657     
 soft         electrons   0.0000000000000000     
 augmentation electrons   1284.9953543078657     
 soft         electrons   0.0000000000000000     
 augmentation electrons   1284.9953543078657     
 augmentation electrons   1284.9953543078657     
 soft         electrons   0.0000000000000000     
 augmentation electrons   1284.9953543078657     
 soft         electrons   0.0000000000000000     
 augmentation electrons   1284.9953543078657     
 soft         electrons   0.0000000000000000     
 augmentation electrons   1284.9953543078657     
 soft         electrons   0.0000000000000000     
 augmentation electrons   1284.9953543078657     
 soft         electrons   0.0000000000000000     
 augmentation electrons   1284.9953543078657     
 soft         electrons   0.0000000000000000     
 augmentation electrons   1284.9953543078657     
 soft         electrons   0.0000000000000000     
 augmentation electrons   1284.9953543078657     
 soft         electrons   0.0000000000000000     
 augmentation electrons   1284.9953543078657     
 soft         electrons   0.0000000000000000     
 augmentation electrons   1284.9953543078657     
 soft         electrons   0.0000000000000000     
 augmentation electrons   1284.9953543078657     
 soft         electrons   0.0000000000000000     
 augmentation electrons   1284.9953543078657     
 soft         electrons   0.0000000000000000     
 augmentation electrons   1284.9953543078657     
 soft         electrons   0.0000000000000000     
 augmentation electrons   1284.9953543078657     
 soft         electrons   0.0000000000000000     
 augmentation electrons   1284.9953543078657     
 soft         electrons   0.0000000000000000     
 augmentation electrons   1284.9953543078657     
 soft         electrons   0.0000000000000000     
 augmentation electrons   1284.9953543078657     
 soft         electrons   0.0000000000000000     
 augmentation electrons   1284.9953543078657     
 soft         electrons   0.0000000000000000     
 augmentation electrons   1284.9953543078657     
 soft         electrons   0.0000000000000000     
 augmentation electrons   1284.9953543078657     
 soft         electrons   0.0000000000000000     
 augmentation electrons   1284.9953543078657     
 soft         electrons   0.0000000000000000     
 augmentation electrons   1284.9953543078657     
 soft         electrons   0.0000000000000000     
 augmentation electrons   1284.9953543078657     
 soft         electrons   0.0000000000000000     
 augmentation electrons   1284.9953543078657     
 soft         electrons   0.0000000000000000     
 augmentation electrons   1284.9953543078657     
 soft         electrons   0.0000000000000000     
 augmentation electrons   1284.9953543078657     
 soft         electrons   0.0000000000000000     
 augmentation electrons   1284.9953543078657     
 soft         electrons   0.0000000000000000     
 augmentation electrons   1284.9953543078657     
 soft         electrons   0.0000000000000000     
 augmentation electrons   1284.9953543078657     
 soft         electrons   0.0000000000000000     
 augmentation electrons   1284.9953543078657     
 soft         electrons   0.0000000000000000     
 augmentation electrons   1284.9953543078657     
 soft         electrons   0.0000000000000000     
 augmentation electrons   1284.9953543078657     
 soft         electrons   0.0000000000000000     
 augmentation electrons   1284.9953543078657     
 soft         electrons   0.0000000000000000     
 augmentation electrons   1284.9953543078657     
 soft         electrons   0.0000000000000000     
 augmentation electrons   1284.9953543078657     
 soft         electrons   0.0000000000000000     
 augmentation electrons   1284.9953543078657     
 soft         electrons   0.0000000000000000     
 augmentation electrons   1284.9953543078657     
 soft         electrons   0.0000000000000000     
 augmentation electrons   1284.9953543078657     
 soft         electrons   0.0000000000000000     
 augmentation electrons   1284.9953543078657     
 soft         electrons   0.0000000000000000     
 augmentation electrons   1284.9953543078657     
 soft         electrons   0.0000000000000000     
 augmentation electrons   1284.9953543078657     
 soft         electrons   0.0000000000000000     
 augmentation electrons   1284.9953543078657     
 soft         electrons   0.0000000000000000     
 augmentation electrons   1284.9953543078657     
 soft         electrons   0.0000000000000000     
 augmentation electrons   1284.9953543078657     
 soft         electrons   0.0000000000000000     
 augmentation electrons   1284.9953543078657     
 soft         electrons   0.0000000000000000     
 augmentation electrons   1284.9953543078657     
 soft         electrons   0.0000000000000000     
 augmentation electrons   1284.9953543078657     
 soft         electrons   0.0000000000000000     
 augmentation electrons   1284.9953543078657     
 soft         electrons   0.0000000000000000     
 augmentation electrons   1284.9953543078657     
 soft         electrons   0.0000000000000000     
 augmentation electrons   1284.9953543078657     
 soft         electrons   0.0000000000000000     
 augmentation electrons   1284.9953543078657     
 soft         electrons   0.0000000000000000     
 augmentation electrons   1284.9953543078657     
 soft         electrons   0.0000000000000000     
 augmentation electrons   1284.9953543078657     
 soft         electrons   0.0000000000000000     
 augmentation electrons   1284.9953543078657     
 soft         electrons   0.0000000000000000     
 soft         electrons   0.0000000000000000     
 total        electrons   1284.9953543078657     
 total        electrons   1284.9953543078657     
 total        electrons   1284.9953543078657     
 total        electrons   1284.9953543078657     
 total        electrons   1284.9953543078657     
 total        electrons   1284.9953543078657     
 total        electrons   1284.9953543078657     
 total        electrons   1284.9953543078657     
 total        electrons   1284.9953543078657     
 total        electrons   1284.9953543078657     
 total        electrons   1284.9953543078657     
 total        electrons   1284.9953543078657     
 total        electrons   1284.9953543078657     
 total        electrons   1284.9953543078657     
 total        electrons   1284.9953543078657     
 total        electrons   1284.9953543078657     
 total        electrons   1284.9953543078657     
 total        electrons   1284.9953543078657     
 total        electrons   1284.9953543078657     
 total        electrons   1284.9953543078657     
 total        electrons   1284.9953543078657     
 total        electrons   1284.9953543078657     
 total        electrons   1284.9953543078657     
 total        electrons   1284.9953543078657     
 total        electrons   1284.9953543078657     
 total        electrons   1284.9953543078657     
 total        electrons   1284.9953543078657     
 total        electrons   1284.9953543078657     
 total        electrons   1284.9953543078657     
 total        electrons   1284.9953543078657     
 total        electrons   1284.9953543078657     
 total        electrons   1284.9953543078657     
 total        electrons   1284.9953543078657     
 total        electrons   1284.9953543078657     
 total        electrons   1284.9953543078657     
 total        electrons   1284.9953543078657     
 total        electrons   1284.9953543078657     
 total        electrons   1284.9953543078657     
 total        electrons   1284.9953543078657     
 total        electrons   1284.9953543078657     
 total        electrons   1284.9953543078657     
 total        electrons   1284.9953543078657     
 total        electrons   1284.9953543078657     
 total        electrons   1284.9953543078657     
 total        electrons   1284.9953543078657     
 total        electrons   1284.9953543078657     
 total        electrons   1284.9953543078657     
 total        electrons   1284.9953543078657     
 total        electrons   1284.9953543078657     
 total        electrons   1284.9953543078657     
 total        electrons   1284.9953543078657     
 total        electrons   1284.9953543078657     
 total        electrons   1284.9953543078657     
 total        electrons   1284.9953543078657     
 total        electrons   1284.9953543078657     
 total        electrons   1284.9953543078657     
 total        electrons   1284.9953543078657     
 total        electrons   1284.9953543078657     
 total        electrons   1284.9953543078657     
 total        electrons   1284.9953543078657     
 total        electrons   1284.9953543078657     
 total        electrons   1284.9953543078657     
 total        electrons   1284.9953543078657     
 total        electrons   1284.9953543078657     
 total        electrons   1284.9953543078657     
 total        electrons   1284.9953543078657     
 total        electrons   1284.9953543078657     
 total        electrons   1284.9953543078657     
 total        electrons   1284.9953543078657     
 total        electrons   1284.9953543078657     
 total        electrons   1284.9953543078657     
 total        electrons   1284.9953543078657     
 entering main loop
       N       E                     dE             d eps       ncg     rms          rms(c)
DAV:   1     0.245983571644E+04    0.24598E+04   -0.10346E+05  8464   0.127E+03
DAV:   2    -0.213246259458E+03   -0.26731E+04   -0.24824E+04  9632   0.314E+02
DAV:   3    -0.655029342280E+03   -0.44178E+03   -0.41948E+03 11856   0.147E+02
DAV:   4    -0.692904140084E+03   -0.37875E+02   -0.36135E+02 13664   0.470E+01
DAV:   5    -0.695378254577E+03   -0.24741E+01   -0.23821E+01 14400   0.113E+01    0.147E+02
RMM:   6    -0.643305077238E+03    0.52073E+02   -0.11312E+03 11633   0.879E+01    0.725E+01
RMM:   7    -0.745437937181E+03   -0.10213E+03   -0.37667E+02 11791   0.408E+01    0.553E+01
RMM:   8    -0.644949445413E+03    0.10049E+03   -0.16652E+02 11333   0.258E+01    0.411E+01
RMM:   9    -0.605491344050E+03    0.39458E+02   -0.40054E+01 10928   0.161E+01    0.277E+01
RMM:  10    -0.593257927932E+03    0.12233E+02   -0.33869E+01  9415   0.162E+01    0.206E+01
RMM:  11    -0.591371136481E+03    0.18868E+01   -0.73108E+00  9690   0.783E+00    0.167E+01
RMM:  12    -0.591429096521E+03   -0.57960E-01   -0.31358E+00 11526   0.222E+00    0.149E+01
RMM:  13    -0.591258036656E+03    0.17106E+00   -0.66407E-01 11222   0.151E+00    0.133E+01
RMM:  14    -0.591743332407E+03   -0.48530E+00   -0.34904E+00  8779   0.602E+00    0.104E+01
RMM:  15    -0.590497661271E+03    0.12457E+01   -0.17063E+00  8920   0.458E+00    0.460E+00
RMM:  16    -0.590303780874E+03    0.19388E+00   -0.13705E+00 10331   0.248E+00    0.342E+00
RMM:  17    -0.590199449351E+03    0.10433E+00   -0.50365E-01 11380   0.129E+00    0.204E+00
RMM:  18    -0.590202800723E+03   -0.33514E-02   -0.26679E-01 11504   0.908E-01    0.163E+00
RMM:  19    -0.590192947750E+03    0.98530E-02   -0.15532E-01 10012   0.945E-01    0.115E+00
RMM:  20    -0.590184838255E+03    0.81095E-02   -0.60960E-02  9810   0.628E-01    0.700E-01
RMM:  21    -0.590179278663E+03    0.55596E-02   -0.18709E-02  8947   0.386E-01    0.354E-01
RMM:  22    -0.590180435991E+03   -0.11573E-02   -0.12444E-02  9791   0.251E-01    0.349E-01
RMM:  23    -0.590180478190E+03   -0.42199E-04   -0.54739E-03  9941   0.163E-01    0.242E-01
RMM:  24    -0.590180644562E+03   -0.16637E-03   -0.30880E-03  9671   0.141E-01    0.905E-02
RMM:  25    -0.590181804384E+03   -0.11598E-02   -0.19663E-03 11399   0.525E-02    0.969E-02
RMM:  26    -0.590182551872E+03   -0.74749E-03   -0.46083E-04 10029   0.458E-02    0.509E-02
RMM:  27    -0.590183393480E+03   -0.84161E-03   -0.40075E-04 10874   0.320E-02    0.711E-02
RMM:  28    -0.590183897759E+03   -0.50428E-03   -0.23291E-04  9348   0.390E-02    0.328E-02
RMM:  29    -0.590184251927E+03   -0.35417E-03   -0.26833E-04 10786   0.270E-02    0.472E-02
RMM:  30    -0.590184306506E+03   -0.54578E-04   -0.68759E-05  8588   0.256E-02    0.164E-02
RMM:  31    -0.590184395479E+03   -0.88973E-04   -0.55068E-05  8901   0.102E-02    0.163E-02
RMM:  32    -0.590184534160E+03   -0.13868E-03   -0.23120E-05  7733   0.940E-03    0.694E-03
RMM:  33    -0.590184645044E+03   -0.11088E-03   -0.11535E-05  6962   0.608E-03    0.970E-03
RMM:  34    -0.590184822006E+03   -0.17696E-03   -0.28423E-05  7778   0.173E-02    0.241E-02
RMM:  35    -0.590184913550E+03   -0.91544E-04   -0.17308E-05  7034   0.151E-02    0.838E-03
RMM:  36    -0.590184976484E+03   -0.62933E-04   -0.86236E-06  6397   0.590E-03    0.734E-03
RMM:  37    -0.590185038778E+03   -0.62294E-04   -0.11622E-05  6851   0.962E-03    0.104E-02
RMM:  38    -0.590185054007E+03   -0.15229E-04   -0.32584E-06  5933   0.539E-03    0.206E-03
RMM:  39    -0.590185064526E+03   -0.10520E-04   -0.15725E-06  5462   0.173E-03    0.138E-03
RMM:  40    -0.590185069752E+03   -0.52259E-05   -0.50709E-07  4845   0.206E-03    0.113E-03
RMM:  41    -0.590185072593E+03   -0.28405E-05   -0.36420E-07  3766   0.114E-03    0.598E-04
RMM:  42    -0.590185075718E+03   -0.31253E-05   -0.36681E-07  4375   0.127E-03    0.556E-04
RMM:  43    -0.590185076325E+03   -0.60653E-06   -0.19025E-07  3892   0.109E-03
   1 F= -.59018508E+03 E0= -.59018391E+03  d E =-.590185E+03
 curvature:   0.00 expect dE= 0.000E+00 dE for cont linesearch  0.000E+00
 trial: gam= 0.00000 g(F)=  0.149E-02 g(S)=  0.000E+00 ort = 0.000E+00 (trialstep = 0.100E+01)
 search vector abs. value=  0.149E-02
 bond charge predicted
       N       E                     dE             d eps       ncg     rms          rms(c)
DAV:   1    -0.590186327484E+03   -0.12518E-02   -0.24164E-02  9376   0.305E-01    0.423E-02
RMM:   2    -0.590186381867E+03   -0.54382E-04   -0.42771E-04  9671   0.642E-02    0.579E-02
RMM:   3    -0.590186370890E+03    0.10976E-04   -0.10916E-04  9890   0.328E-02    0.423E-02
RMM:   4    -0.590186406370E+03   -0.35479E-04   -0.95562E-05 10368   0.227E-02    0.656E-02
RMM:   5    -0.590186352751E+03    0.53618E-04   -0.51182E-05  8692   0.232E-02    0.151E-02
RMM:   6    -0.590186356701E+03   -0.39500E-05   -0.27504E-05  8769   0.135E-02    0.188E-02
RMM:   7    -0.590186352345E+03    0.43560E-05   -0.86053E-06  6696   0.102E-02    0.776E-03
RMM:   8    -0.590186351901E+03    0.44438E-06   -0.33325E-06  5849   0.521E-03
   2 F= -.59018635E+03 E0= -.59018519E+03  d E =-.127558E-02
 trial-energy change:   -0.001276  1 .order   -0.001272   -0.001494   -0.001051
 step:   3.3743(harm=  3.3743)  dis= 0.00444  next Energy=  -590.187596 (dE=-0.252E-02)
 bond charge predicted
       N       E                     dE             d eps       ncg     rms          rms(c)
DAV:   1    -0.590187468633E+03   -0.11163E-02   -0.13666E-01  9032   0.725E-01    0.102E-01
RMM:   2    -0.590187801432E+03   -0.33280E-03   -0.24667E-03  9236   0.163E-01    0.143E-01
RMM:   3    -0.590187720159E+03    0.81274E-04   -0.61956E-04 10136   0.790E-02    0.100E-01
RMM:   4    -0.590187891677E+03   -0.17152E-03   -0.50279E-04 10548   0.528E-02    0.150E-01
RMM:   5    -0.590187617527E+03    0.27415E-03   -0.29533E-04  9049   0.557E-02    0.411E-02
RMM:   6    -0.590187639424E+03   -0.21898E-04   -0.16316E-04 10331   0.326E-02    0.471E-02
RMM:   7    -0.590187611463E+03    0.27961E-04   -0.57718E-05  8684   0.258E-02    0.208E-02
RMM:   8    -0.590187607122E+03    0.43417E-05   -0.22840E-05  8440   0.107E-02    0.868E-03
RMM:   9    -0.590187607068E+03    0.53436E-07   -0.70765E-06  6444   0.649E-03
   3 F= -.59018761E+03 E0= -.59018645E+03  d E =-.253074E-02
 curvature:  -1.69 expect dE=-0.298E-02 dE for cont linesearch -0.720E-08
 trial: gam= 1.18480 g(F)=  0.177E-02 g(S)=  0.000E+00 ort =-0.252E-05 (trialstep = 0.571E+00)
 search vector abs. value=  0.386E-02
 bond charge predicted
       N       E                     dE             d eps       ncg     rms          rms(c)
DAV:   1    -0.590188538793E+03   -0.93167E-03   -0.20128E-02  8992   0.280E-01    0.404E-02
RMM:   2    -0.590188599785E+03   -0.60993E-04   -0.41814E-04  9079   0.732E-02    0.691E-02
RMM:   3    -0.590188565802E+03    0.33984E-04   -0.10199E-04  9880   0.332E-02    0.338E-02
RMM:   4    -0.590188603068E+03   -0.37267E-04   -0.81185E-05 10529   0.191E-02    0.581E-02
RMM:   5    -0.590188558805E+03    0.44264E-04   -0.52905E-05  8842   0.220E-02    0.228E-02
RMM:   6    -0.590188559766E+03   -0.96147E-06   -0.34065E-05  8853   0.172E-02    0.206E-02
RMM:   7    -0.590188554676E+03    0.50903E-05   -0.10189E-05  6983   0.110E-02    0.891E-03
RMM:   8    -0.590188554068E+03    0.60797E-06   -0.39705E-06  5944   0.603E-03
   4 F= -.59018855E+03 E0= -.59018740E+03  d E =-.947000E-03
 ZBRENT: can't locate minimum, use default step
 trial-energy change:   -0.000947  1 .order   -0.000945   -0.001007   -0.000883
 step:   2.2841(harm=  4.6311)  dis= 0.00839  next Energy=  -590.191692 (dE=-0.409E-02)
 bond charge predicted
       N       E                     dE             d eps       ncg     rms          rms(c)
DAV:   1    -0.590190539286E+03   -0.19846E-02   -0.18141E-01  8768   0.838E-01    0.121E-01
RMM:   2    -0.590191049483E+03   -0.51020E-03   -0.34685E-03  9014   0.207E-01    0.206E-01
RMM:   3    -0.590190747724E+03    0.30176E-03   -0.83501E-04 10055   0.963E-02    0.997E-02
RMM:   4    -0.590191104827E+03   -0.35710E-03   -0.74204E-04 11115   0.554E-02    0.176E-01
RMM:   5    -0.590190687359E+03    0.41747E-03   -0.53227E-04  9307   0.690E-02    0.715E-02
RMM:   6    -0.590190669523E+03    0.17837E-04   -0.29276E-04 10095   0.476E-02    0.490E-02
RMM:   7    -0.590190638493E+03    0.31030E-04   -0.75309E-05  9045   0.274E-02    0.254E-02
RMM:   8    -0.590190632679E+03    0.58137E-05   -0.34853E-05  8456   0.140E-02    0.123E-02
RMM:   9    -0.590190631748E+03    0.93141E-06   -0.10941E-05  7059   0.650E-03    0.602E-03
RMM:  10    -0.590190632350E+03   -0.60163E-06   -0.45833E-06  6248   0.639E-03
   5 F= -.59019063E+03 E0= -.59018949E+03  d E =-.302528E-02
 curvature:  -3.37 expect dE=-0.144E-02 dE for cont linesearch -0.656E-03
 ZBRENT: increasing intervall
 opt :   5.7102  next Energy=  -590.191270 (dE=-0.366E-02)
 bond charge predicted
       N       E                     dE             d eps       ncg     rms          rms(c)
DAV:   1    -0.590190823783E+03   -0.19204E-03   -0.72464E-01  8648   0.168E+00    0.245E-01
RMM:   2    -0.590193131120E+03   -0.23073E-02   -0.14726E-02  9004   0.425E-01    0.443E-01
RMM:   3    -0.590191572696E+03    0.15584E-02   -0.35118E-03 10017   0.200E-01    0.192E-01
RMM:   4    -0.590193130501E+03   -0.15578E-02   -0.30232E-03 11098   0.112E-01    0.356E-01
RMM:   5    -0.590191411222E+03    0.17193E-02   -0.21668E-03  9355   0.138E-01    0.152E-01
RMM:   6    -0.590191285415E+03    0.12581E-03   -0.11562E-03  9996   0.983E-02    0.955E-02
RMM:   7    -0.590191182560E+03    0.10286E-03   -0.31329E-04  9126   0.558E-02    0.558E-02
RMM:   8    -0.590191150463E+03    0.32098E-04   -0.13677E-04  9428   0.299E-02    0.235E-02
RMM:   9    -0.590191148392E+03    0.20700E-05   -0.52467E-05  9882   0.123E-02    0.124E-02
RMM:  10    -0.590191151177E+03   -0.27843E-05   -0.19452E-05  8202   0.118E-02    0.140E-02
RMM:  11    -0.590191150176E+03    0.10009E-05   -0.59892E-06  6375   0.758E-03    0.622E-03
RMM:  12    -0.590191151956E+03   -0.17804E-05   -0.30556E-06  5868   0.423E-03    0.406E-03
RMM:  13    -0.590191153509E+03   -0.15532E-05   -0.91201E-07  5196   0.350E-03    0.356E-03
RMM:  14    -0.590191154828E+03   -0.13185E-05   -0.75958E-07  5200   0.335E-03    0.242E-03
RMM:  15    -0.590191157336E+03   -0.25077E-05   -0.53485E-07  5142   0.208E-03    0.103E-03
RMM:  16    -0.590191158543E+03   -0.12075E-05   -0.30984E-07  4944   0.163E-03    0.694E-04
RMM:  17    -0.590191160436E+03   -0.18929E-05   -0.28796E-07  4527   0.133E-03    0.622E-04
RMM:  18    -0.590191161888E+03   -0.14520E-05   -0.24526E-07  4407   0.131E-03    0.770E-04
RMM:  19    -0.590191163433E+03   -0.15451E-05   -0.26399E-07  4282   0.122E-03    0.651E-04
RMM:  20    -0.590191165063E+03   -0.16303E-05   -0.29256E-07  4126   0.117E-03    0.410E-04
RMM:  21    -0.590191165736E+03   -0.67269E-06   -0.19130E-07  3653   0.105E-03
   6 F= -.59019117E+03 E0= -.59019004E+03  d E =-.355867E-02
 curvature:  -3.28 expect dE=-0.956E-03 dE for cont linesearch -0.297E-03
 ZBRENT: bracketing found
 ZBRENT: interpolating
 opt :   4.3208  next Energy=  -590.191576 (dE=-0.397E-02)
 bond charge predicted
       N       E                     dE             d eps       ncg     rms          rms(c)
DAV:   1    -0.590191512001E+03   -0.34694E-03   -0.11930E-01  8768   0.680E-01    0.998E-02
RMM:   2    -0.590191898167E+03   -0.38617E-03   -0.24265E-03  9073   0.169E-01    0.183E-01
RMM:   3    -0.590191627041E+03    0.27113E-03   -0.56439E-04  9985   0.807E-02    0.778E-02
RMM:   4    -0.590191894780E+03   -0.26774E-03   -0.52368E-04 11083   0.466E-02    0.148E-01
RMM:   5    -0.590191600619E+03    0.29416E-03   -0.36523E-04  9342   0.569E-02    0.610E-02
RMM:   6    -0.590191578915E+03    0.21704E-04   -0.18677E-04  9992   0.394E-02    0.368E-02
RMM:   7    -0.590191564023E+03    0.14893E-04   -0.50923E-05  9077   0.218E-02    0.228E-02
RMM:   8    -0.590191558364E+03    0.56586E-05   -0.21946E-05  7822   0.121E-02    0.977E-03
RMM:   9    -0.590191557749E+03    0.61476E-06   -0.74928E-06  6498   0.557E-03
   7 F= -.59019156E+03 E0= -.59019042E+03  d E =-.395068E-02
 curvature:  -4.54 expect dE=-0.295E-03 dE for cont linesearch -0.128E-05
 ZBRENT: interpolating
 opt :   4.3944  next Energy=  -590.191559 (dE=-0.395E-02)
 bond charge predicted
       N       E                     dE             d eps       ncg     rms          rms(c)
DAV:   1    -0.590191558185E+03    0.17879E-06   -0.33059E-04 10008   0.385E-02    0.717E-03
RMM:   2    -0.590191562787E+03   -0.46013E-05   -0.19969E-05  8222   0.159E-02    0.165E-02
RMM:   3    -0.590191558493E+03    0.42936E-05   -0.38094E-06  6093   0.831E-03    0.579E-03
RMM:   4    -0.590191558547E+03   -0.54144E-07   -0.91495E-07  4779   0.379E-03    0.544E-03
RMM:   5    -0.590191558421E+03    0.12557E-06   -0.60188E-07  4578   0.304E-03
   8 F= -.59019156E+03 E0= -.59019042E+03  d E =-.395135E-02
 curvature:  -4.30 expect dE=-0.288E-03 dE for cont linesearch -0.111E-06
 trial: gam= 0.04318 g(F)=  0.670E-04 g(S)=  0.000E+00 ort =-0.999E-05 (trialstep = 0.134E+01)
 search vector abs. value=  0.733E-04
 bond charge predicted
       N       E                     dE             d eps       ncg     rms          rms(c)
DAV:   1    -0.590191643507E+03   -0.84960E-04   -0.20788E-03  8840   0.900E-02    0.134E-02
RMM:   2    -0.590191650807E+03   -0.72996E-05   -0.48198E-05  9308   0.219E-02    0.232E-02
RMM:   3    -0.590191646730E+03    0.40767E-05   -0.12391E-05  7424   0.119E-02    0.980E-03
RMM:   4    -0.590191653862E+03   -0.71322E-05   -0.11687E-05  7741   0.794E-03    0.220E-02
RMM:   5    -0.590191647095E+03    0.67673E-05   -0.43619E-06  5907   0.763E-03    0.822E-03
RMM:   6    -0.590191646389E+03    0.70547E-06   -0.19945E-06  5542   0.526E-03
   9 F= -.59019165E+03 E0= -.59019051E+03  d E =-.879679E-04
 ZBRENT: can't locate minimum, use default step
 trial-energy change:   -0.000088  1 .order   -0.000088   -0.000089   -0.000086
 step:   5.3428(harm= 48.5325)  dis= 0.00381  next Energy=  -590.193174 (dE=-0.162E-02)
 bond charge predicted
       N       E                     dE             d eps       ncg     rms          rms(c)
DAV:   1    -0.590191866507E+03   -0.21941E-03   -0.18668E-02  8680   0.268E-01    0.394E-02
RMM:   2    -0.590191898795E+03   -0.32288E-04   -0.34221E-04  9017   0.661E-02    0.410E-02
RMM:   3    -0.590191922845E+03   -0.24050E-04   -0.12324E-04  9984   0.333E-02    0.494E-02
RMM:   4    -0.590191928615E+03   -0.57701E-05   -0.54571E-05 10453   0.156E-02    0.449E-02
RMM:   5    -0.590191897967E+03    0.30649E-04   -0.35965E-05  8747   0.179E-02    0.224E-02
RMM:   6    -0.590191897523E+03    0.44334E-06   -0.25790E-05  8401   0.127E-02    0.166E-02
RMM:   7    -0.590191894006E+03    0.35169E-05   -0.73014E-06  6372   0.907E-03    0.765E-03
RMM:   8    -0.590191893411E+03    0.59536E-06   -0.25615E-06  5658   0.520E-03
  10 F= -.59019189E+03 E0= -.59019075E+03  d E =-.334990E-03
 curvature:  -4.35 expect dE=-0.246E-03 dE for cont linesearch -0.202E-03
 ZBRENT: increasing intervall
 opt :  13.3569  next Energy=  -590.192310 (dE=-0.752E-03)
 bond charge predicted
       N       E                     dE             d eps       ncg     rms          rms(c)
DAV:   1    -0.590192219590E+03   -0.32558E-03   -0.74845E-02  8640   0.536E-01    0.771E-02
RMM:   2    -0.590192340761E+03   -0.12117E-03   -0.13090E-03  9364   0.120E-01    0.803E-02
RMM:   3    -0.590192426562E+03   -0.85801E-04   -0.45082E-04 10185   0.642E-02    0.954E-02
RMM:   4    -0.590192477728E+03   -0.51166E-04   -0.27720E-04 11081   0.314E-02    0.944E-02
RMM:   5    -0.590192337066E+03    0.14066E-03   -0.16599E-04  9407   0.383E-02    0.480E-02
RMM:   6    -0.590192317932E+03    0.19134E-04   -0.95723E-05 10123   0.231E-02    0.215E-02
RMM:   7    -0.590192315640E+03    0.22913E-05   -0.31793E-05  8355   0.143E-02    0.130E-02
RMM:   8    -0.590192312911E+03    0.27295E-05   -0.91415E-06  6544   0.724E-03    0.604E-03
RMM:   9    -0.590192312793E+03    0.11810E-06   -0.27543E-06  5741   0.480E-03
  11 F= -.59019231E+03 E0= -.59019117E+03  d E =-.754371E-03
 curvature:  -8.97 expect dE=-0.576E-03 dE for cont linesearch -0.247E-03
 ZBRENT: increasing intervall
 opt :  29.3852  next Energy=  -590.192819 (dE=-0.126E-02)
 bond charge predicted
       N       E                     dE             d eps       ncg     rms          rms(c)
DAV:   1    -0.590192477482E+03   -0.16457E-03   -0.29923E-01  8512   0.107E+00    0.154E-01
RMM:   2    -0.590192977746E+03   -0.50026E-03   -0.52629E-03  9634   0.231E-01    0.166E-01
RMM:   3    -0.590193236250E+03   -0.25850E-03   -0.17520E-03 10153   0.128E-01    0.181E-01
RMM:   4    -0.590193573216E+03   -0.33697E-03   -0.11680E-03 11076   0.653E-02    0.203E-01
RMM:   5    -0.590192920140E+03    0.65308E-03   -0.65364E-04  9383   0.769E-02    0.902E-02
RMM:   6    -0.590192852579E+03    0.67561E-04   -0.37344E-04 10395   0.461E-02    0.420E-02
RMM:   7    -0.590192846330E+03    0.62487E-05   -0.13899E-04  9996   0.284E-02    0.271E-02
RMM:   8    -0.590192835981E+03    0.10349E-04   -0.39533E-05  8508   0.150E-02    0.132E-02
RMM:   9    -0.590192834956E+03    0.10250E-05   -0.13261E-05  7063   0.798E-03    0.772E-03
RMM:  10    -0.590192834756E+03    0.20035E-06   -0.41381E-06  6003   0.526E-03
  12 F= -.59019283E+03 E0= -.59019168E+03  d E =-.127633E-02
 curvature: -18.36 expect dE=-0.348E-02 dE for cont linesearch -0.797E-04
 ZBRENT: increasing intervall
 opt :  61.4417  next Energy=  -590.192537 (dE=-0.979E-03)
 bond charge predicted
       N       E                     dE             d eps       ncg     rms          rms(c)
DAV:   1    -0.590191085349E+03    0.17496E-02   -0.11921E+00  8504   0.214E+00    0.306E-01
RMM:   2    -0.590193355944E+03   -0.22706E-02   -0.21939E-02  9697   0.465E-01    0.366E-01
RMM:   3    -0.590193691322E+03   -0.33538E-03   -0.66778E-03 10093   0.253E-01    0.316E-01
RMM:   4    -0.590195827228E+03   -0.21359E-02   -0.50009E-03 11159   0.129E-01    0.428E-01
RMM:   5    -0.590192839154E+03    0.29881E-02   -0.28001E-03  9434   0.158E-01    0.181E-01
RMM:   6    -0.590192558441E+03    0.28071E-03   -0.15086E-03 10378   0.948E-02    0.801E-02
RMM:   7    -0.590192542689E+03    0.15752E-04   -0.59695E-04 10441   0.534E-02    0.542E-02
RMM:   8    -0.590192501850E+03    0.40839E-04   -0.15154E-04  9444   0.305E-02    0.283E-02
RMM:   9    -0.590192496633E+03    0.52168E-05   -0.58603E-05  9453   0.159E-02    0.149E-02
RMM:  10    -0.590192496427E+03    0.20638E-06   -0.21353E-05  8497   0.908E-03    0.103E-02
RMM:  11    -0.590192496161E+03    0.26562E-06   -0.73400E-06  6607   0.723E-03
  13 F= -.59019250E+03 E0= -.59019132E+03  d E =-.937740E-03
 curvature:  68.54 expect dE= 0.751E-01 dE for cont linesearch  0.178E-02
 ZBRENT: bracketing found
 ZBRENT: interpolating
 opt :  38.6916  next Energy=  -590.192918 (dE=-0.136E-02)
 bond charge predicted
       N       E                     dE             d eps       ncg     rms          rms(c)
DAV:   1    -0.590192235269E+03    0.26116E-03   -0.60156E-01  8504   0.152E+00    0.217E-01
RMM:   2    -0.590193360031E+03   -0.11248E-02   -0.10792E-02  9533   0.336E-01    0.258E-01
RMM:   3    -0.590193582483E+03   -0.22245E-03   -0.33012E-03 10194   0.176E-01    0.229E-01
RMM:   4    -0.590194584647E+03   -0.10022E-02   -0.25423E-03 11075   0.963E-02    0.314E-01
RMM:   5    -0.590193057259E+03    0.15274E-02   -0.14013E-03  9325   0.113E-01    0.114E-01
RMM:   6    -0.590192980226E+03    0.77033E-04   -0.79481E-04 10426   0.669E-02    0.616E-02
RMM:   7    -0.590192952400E+03    0.27826E-04   -0.25779E-04  9984   0.380E-02    0.347E-02
RMM:   8    -0.590192938308E+03    0.14092E-04   -0.74085E-05  9341   0.201E-02    0.197E-02
RMM:   9    -0.590192935375E+03    0.29330E-05   -0.22821E-05  8071   0.105E-02    0.102E-02
RMM:  10    -0.590192935244E+03    0.13125E-06   -0.89617E-06  6877   0.658E-03
  14 F= -.59019294E+03 E0= -.59019178E+03  d E =-.137682E-02
 curvature:  -3.20 expect dE=-0.111E-02 dE for cont linesearch -0.693E-06
 trial: gam= 5.04734 g(F)=  0.348E-03 g(S)=  0.000E+00 ort = 0.399E-05 (trialstep = 0.286E+00)
 search vector abs. value=  0.226E-02
 bond charge predicted
       N       E                     dE             d eps       ncg     rms          rms(c)
DAV:   1    -0.590193026916E+03   -0.91541E-04   -0.29274E-03  8856   0.107E-01    0.158E-02
RMM:   2    -0.590193033357E+03   -0.64408E-05   -0.66972E-05  9002   0.299E-02    0.168E-02
RMM:   3    -0.590193035270E+03   -0.19129E-05   -0.19017E-05  8604   0.131E-02    0.168E-02
RMM:   4    -0.590193036367E+03   -0.10970E-05   -0.10321E-05  7154   0.921E-03    0.212E-02
RMM:   5    -0.590193031323E+03    0.50436E-05   -0.50338E-06  6200   0.916E-03    0.680E-03
RMM:   6    -0.590193032398E+03   -0.10744E-05   -0.43988E-06  6090   0.665E-03    0.112E-02
RMM:   7    -0.590193031257E+03    0.11409E-05   -0.22150E-06  5592   0.640E-03    0.426E-03
RMM:   8    -0.590193031111E+03    0.14605E-06   -0.58413E-07  4905   0.303E-03
  15 F= -.59019303E+03 E0= -.59019187E+03  d E =-.958668E-04
 ZBRENT: can't locate minimum, use default step
 trial-energy change:   -0.000096  1 .order   -0.000097   -0.000105   -0.000089
 step:   1.1449(harm=  1.8418)  dis= 0.00406  next Energy=  -590.193274 (dE=-0.339E-03)
 bond charge predicted
       N       E                     dE             d eps       ncg     rms          rms(c)
DAV:   1    -0.590193206027E+03   -0.17477E-03   -0.26647E-02  8584   0.318E-01    0.462E-02
RMM:   2    -0.590193248847E+03   -0.42820E-04   -0.49406E-04  9144   0.739E-02    0.509E-02
RMM:   3    -0.590193272206E+03   -0.23359E-04   -0.16249E-04 10151   0.380E-02    0.546E-02
RMM:   4    -0.590193293100E+03   -0.20895E-04   -0.10325E-04 10832   0.200E-02    0.600E-02
RMM:   5    -0.590193241972E+03    0.51128E-04   -0.62332E-05  9005   0.238E-02    0.261E-02
RMM:   6    -0.590193238224E+03    0.37482E-05   -0.37612E-05  9155   0.136E-02    0.150E-02
RMM:   7    -0.590193236081E+03    0.21425E-05   -0.10845E-05  6717   0.967E-03    0.901E-03
RMM:   8    -0.590193235004E+03    0.10773E-05   -0.35628E-06  5862   0.609E-03    0.467E-03
RMM:   9    -0.590193234890E+03    0.11412E-06   -0.12138E-06  5236   0.394E-03
  16 F= -.59019323E+03 E0= -.59019208E+03  d E =-.299646E-03
 curvature:  -4.51 expect dE=-0.300E-03 dE for cont linesearch -0.518E-04
 ZBRENT: increasing intervall
 opt :   2.8623  next Energy=  -590.193254 (dE=-0.319E-03)
 bond charge predicted
       N       E                     dE             d eps       ncg     rms          rms(c)
DAV:   1    -0.590193173158E+03    0.61846E-04   -0.10693E-01  8512   0.638E-01    0.924E-02
RMM:   2    -0.590193338956E+03   -0.16580E-03   -0.19431E-03  9649   0.137E-01    0.101E-01
RMM:   3    -0.590193429562E+03   -0.90606E-04   -0.62496E-04 10254   0.756E-02    0.110E-01
RMM:   4    -0.590193546892E+03   -0.11733E-03   -0.48106E-04 10936   0.436E-02    0.131E-01
RMM:   5    -0.590193298246E+03    0.24865E-03   -0.25259E-04  9229   0.492E-02    0.468E-02
RMM:   6    -0.590193283730E+03    0.14516E-04   -0.14273E-04 10477   0.262E-02    0.262E-02
RMM:   7    -0.590193279418E+03    0.43113E-05   -0.49986E-05  9083   0.174E-02    0.164E-02
RMM:   8    -0.590193275906E+03    0.35128E-05   -0.14054E-05  7402   0.955E-03    0.925E-03
RMM:   9    -0.590193275364E+03    0.54117E-06   -0.53596E-06  6185   0.659E-03
  17 F= -.59019328E+03 E0= -.59019211E+03  d E =-.340120E-03
 curvature:  -1.66 expect dE=-0.226E-03 dE for cont linesearch -0.111E-04
 ZBRENT: bracketing found
 ZBRENT: interpolating
 opt :   2.1201  next Energy=  -590.193321 (dE=-0.386E-03)
 bond charge predicted
       N       E                     dE             d eps       ncg     rms          rms(c)
DAV:   1    -0.590193294369E+03   -0.18464E-04   -0.19876E-02  8576   0.276E-01    0.398E-02
RMM:   2    -0.590193328292E+03   -0.33923E-04   -0.38867E-04  9014   0.692E-02    0.455E-02
RMM:   3    -0.590193340278E+03   -0.11985E-04   -0.12752E-04  9997   0.343E-02    0.445E-02
RMM:   4    -0.590193359767E+03   -0.19489E-04   -0.63726E-05 10667   0.146E-02    0.458E-02
RMM:   5    -0.590193324864E+03    0.34904E-04   -0.40347E-05  9129   0.180E-02    0.268E-02
RMM:   6    -0.590193320507E+03    0.43568E-05   -0.26964E-05  8540   0.138E-02    0.146E-02
RMM:   7    -0.590193317931E+03    0.25752E-05   -0.69793E-06  6334   0.822E-03    0.732E-03
RMM:   8    -0.590193317208E+03    0.72382E-06   -0.21495E-06  5474   0.529E-03
  18 F= -.59019332E+03 E0= -.59019216E+03  d E =-.381964E-03
 curvature:  -6.83 expect dE=-0.227E-03 dE for cont linesearch -0.125E-06
 trial: gam= 0.18143 g(F)=  0.333E-04 g(S)=  0.000E+00 ort = 0.642E-05 (trialstep = 0.653E+00)
 search vector abs. value=  0.110E-03
 bond charge predicted
       N       E                     dE             d eps       ncg     rms          rms(c)
DAV:   1    -0.590193337564E+03   -0.19632E-04   -0.74254E-04  8944   0.545E-02    0.782E-03
RMM:   2    -0.590193339457E+03   -0.18936E-05   -0.15798E-05  7777   0.147E-02    0.922E-03
RMM:   3    -0.590193339669E+03   -0.21145E-06   -0.41011E-06  6098   0.701E-03    0.974E-03
RMM:   4    -0.590193339745E+03   -0.75661E-07   -0.25409E-06  5716   0.611E-03    0.979E-03
RMM:   5    -0.590193338671E+03    0.10733E-05   -0.12211E-06  5045   0.507E-03    0.265E-03
RMM:   6    -0.590193338776E+03   -0.10468E-06   -0.61925E-07  4533   0.259E-03
  19 F= -.59019334E+03 E0= -.59019218E+03  d E =-.215683E-04
 ZBRENT: can't locate minimum, use default step
 trial-energy change:   -0.000022  1 .order   -0.000021   -0.000022   -0.000020
 step:   2.6120(harm=  7.2611)  dis= 0.00254  next Energy=  -590.193442 (dE=-0.125E-03)
 reached required accuracy - stopping structural energy minimisation
 augmentation electrons   31.506102204028156     
 soft         electrons   252.62168161671877     
 augmentation electrons   31.506102204028156     
 soft         electrons   252.62168161671877     
 augmentation electrons   31.506102204028156     
 soft         electrons   252.62168161671877     
 augmentation electrons   31.506102204028156     
 soft         electrons   252.62168161671877     
 augmentation electrons   31.506102204028156     
 soft         electrons   252.62168161671877     
 augmentation electrons   31.506102204028156     
 soft         electrons   252.62168161671877     
 augmentation electrons   31.506102204028156     
 soft         electrons   252.62168161671877     
 augmentation electrons   31.506102204028156     
 soft         electrons   252.62168161671877     
 augmentation electrons   31.506102204028156     
 soft         electrons   252.62168161671877     
 augmentation electrons   31.506102204028156     
 soft         electrons   252.62168161671877     
 augmentation electrons   31.506102204028156     
 soft         electrons   252.62168161671877     
 augmentation electrons   31.506102204028156     
 soft         electrons   252.62168161671877     
 augmentation electrons   31.506102204028156     
 soft         electrons   252.62168161671877     
 augmentation electrons   31.506102204028156     
 soft         electrons   252.62168161671877     
 augmentation electrons   31.506102204028156     
 soft         electrons   252.62168161671877     
 augmentation electrons   31.506102204028156     
 soft         electrons   252.62168161671877     
 augmentation electrons   31.506102204028156     
 soft         electrons   252.62168161671877     
 augmentation electrons   31.506102204028156     
 soft         electrons   252.62168161671877     
 augmentation electrons   31.506102204028156     
 soft         electrons   252.62168161671877     
 augmentation electrons   31.506102204028156     
 soft         electrons   252.62168161671877     
 augmentation electrons   31.506102204028156     
 soft         electrons   252.62168161671877     
 augmentation electrons   31.506102204028156     
 soft         electrons   252.62168161671877     
 augmentation electrons   31.506102204028156     
 soft         electrons   252.62168161671877     
 augmentation electrons   31.506102204028156     
 soft         electrons   252.62168161671877     
 augmentation electrons   31.506102204028156     
 soft         electrons   252.62168161671877     
 augmentation electrons   31.506102204028156     
 soft         electrons   252.62168161671877     
 augmentation electrons   31.506102204028156     
 soft         electrons   252.62168161671877     
 augmentation electrons   31.506102204028156     
 soft         electrons   252.62168161671877     
 augmentation electrons   31.506102204028156     
 soft         electrons   252.62168161671877     
 augmentation electrons   31.506102204028156     
 soft         electrons   252.62168161671877     
 augmentation electrons   31.506102204028156     
 soft         electrons   252.62168161671877     
 augmentation electrons   31.506102204028156     
 soft         electrons   252.62168161671877     
 augmentation electrons   31.506102204028156     
 soft         electrons   252.62168161671877     
 augmentation electrons   31.506102204028156     
 soft         electrons   252.62168161671877     
 augmentation electrons   31.506102204028156     
 soft         electrons   252.62168161671877     
 augmentation electrons   31.506102204028156     
 soft         electrons   252.62168161671877     
 augmentation electrons   31.506102204028156     
 soft         electrons   252.62168161671877     
 augmentation electrons   31.506102204028156     
 soft         electrons   252.62168161671877     
 augmentation electrons   31.506102204028156     
 soft         electrons   252.62168161671877     
 augmentation electrons   31.506102204028156     
 soft         electrons   252.62168161671877     
 augmentation electrons   31.506102204028156     
 soft         electrons   252.62168161671877     
 augmentation electrons   31.506102204028156     
 soft         electrons   252.62168161671877     
 augmentation electrons   31.506102204028156     
 soft         electrons   252.62168161671877     
 augmentation electrons   31.506102204028156     
 soft         electrons   252.62168161671877     
 augmentation electrons   31.506102204028156     
 soft         electrons   252.62168161671877     
 augmentation electrons   31.506102204028156     
 augmentation electrons   31.506102204028156     
 soft         electrons   252.62168161671877     
 augmentation electrons   31.506102204028156     
 soft         electrons   252.62168161671877     
 augmentation electrons   31.506102204028156     
 soft         electrons   252.62168161671877     
 augmentation electrons   31.506102204028156     
 soft         electrons   252.62168161671877     
 augmentation electrons   31.506102204028156     
 soft         electrons   252.62168161671877     
 augmentation electrons   31.506102204028156     
 soft         electrons   252.62168161671877     
 augmentation electrons   31.506102204028156     
 soft         electrons   252.62168161671877     
 augmentation electrons   31.506102204028156     
 soft         electrons   252.62168161671877     
 augmentation electrons   31.506102204028156     
 soft         electrons   252.62168161671877     
 augmentation electrons   31.506102204028156     
 soft         electrons   252.62168161671877     
 augmentation electrons   31.506102204028156     
 soft         electrons   252.62168161671877     
 augmentation electrons   31.506102204028156     
 soft         electrons   252.62168161671877     
 augmentation electrons   31.506102204028156     
 soft         electrons   252.62168161671877     
 augmentation electrons   31.506102204028156     
 soft         electrons   252.62168161671877     
 augmentation electrons   31.506102204028156     
 soft         electrons   252.62168161671877     
 augmentation electrons   31.506102204028156     
 soft         electrons   252.62168161671877     
 augmentation electrons   31.506102204028156     
 soft         electrons   252.62168161671877     
 augmentation electrons   31.506102204028156     
 soft         electrons   252.62168161671877     
 augmentation electrons   31.506102204028156     
 soft         electrons   252.62168161671877     
 augmentation electrons   31.506102204028156     
 soft         electrons   252.62168161671877     
 augmentation electrons   31.506102204028156     
 soft         electrons   252.62168161671877     
 augmentation electrons   31.506102204028156     
 soft         electrons   252.62168161671877     
 augmentation electrons   31.506102204028156     
 soft         electrons   252.62168161671877     
 augmentation electrons   31.506102204028156     
 soft         electrons   252.62168161671877     
 augmentation electrons   31.506102204028156     
 soft         electrons   252.62168161671877     
 augmentation electrons   31.506102204028156     
 soft         electrons   252.62168161671877     
 soft         electrons   252.62168161671877     
 total        electrons   284.12778382074691     
 total        electrons   284.12778382074691     
 total        electrons   284.12778382074691     
 total        electrons   284.12778382074691     
 total        electrons   284.12778382074691     
 total        electrons   284.12778382074691     
 total        electrons   284.12778382074691     
 total        electrons   284.12778382074691     
 total        electrons   284.12778382074691     
 total        electrons   284.12778382074691     
 total        electrons   284.12778382074691     
 total        electrons   284.12778382074691     
 total        electrons   284.12778382074691     
 total        electrons   284.12778382074691     
 total        electrons   284.12778382074691     
 total        electrons   284.12778382074691     
 total        electrons   284.12778382074691     
 total        electrons   284.12778382074691     
 total        electrons   284.12778382074691     
 total        electrons   284.12778382074691     
 total        electrons   284.12778382074691     
 total        electrons   284.12778382074691     
 total        electrons   284.12778382074691     
 total        electrons   284.12778382074691     
 total        electrons   284.12778382074691     
 total        electrons   284.12778382074691     
 total        electrons   284.12778382074691     
 total        electrons   284.12778382074691     
 total        electrons   284.12778382074691     
 total        electrons   284.12778382074691     
 total        electrons   284.12778382074691     
 total        electrons   284.12778382074691     
 total        electrons   284.12778382074691     
 total        electrons   284.12778382074691     
 total        electrons   284.12778382074691     
 total        electrons   284.12778382074691     
 total        electrons   284.12778382074691     
 total        electrons   284.12778382074691     
 total        electrons   284.12778382074691     
 total        electrons   284.12778382074691     
 total        electrons   284.12778382074691     
 total        electrons   284.12778382074691     
 total        electrons   284.12778382074691     
 total        electrons   284.12778382074691     
 total        electrons   284.12778382074691     
 total        electrons   284.12778382074691     
 total        electrons   284.12778382074691     
 total        electrons   284.12778382074691     
 total        electrons   284.12778382074691     
 total        electrons   284.12778382074691     
 total        electrons   284.12778382074691     
 total        electrons   284.12778382074691     
 total        electrons   284.12778382074691     
 total        electrons   284.12778382074691     
 total        electrons   284.12778382074691     
 total        electrons   284.12778382074691     
 total        electrons   284.12778382074691     
 total        electrons   284.12778382074691     
 total        electrons   284.12778382074691     
 total        electrons   284.12778382074691     
 total        electrons   284.12778382074691     
 total        electrons   284.12778382074691     
 total        electrons   284.12778382074691     
 total        electrons   284.12778382074691     
 total        electrons   284.12778382074691     
 total        electrons   284.12778382074691     
 total        electrons   284.12778382074691     
 total        electrons   284.12778382074691     
 total        electrons   284.12778382074691     
 total        electrons   284.12778382074691     
 total        electrons   284.12778382074691     
 total        electrons   284.12778382074691     
Note: The following floating-point exceptions are signalling: IEEE_OVERFLOW_FLAG
Note: The following floating-point exceptions are signalling: IEEE_OVERFLOW_FLAG
Note: The following floating-point exceptions are signalling: IEEE_OVERFLOW_FLAG
Note: The following floating-point exceptions are signalling: IEEE_OVERFLOW_FLAG
Note: The following floating-point exceptions are signalling: IEEE_OVERFLOW_FLAG
Note: The following floating-point exceptions are signalling: IEEE_OVERFLOW_FLAG
Note: The following floating-point exceptions are signalling: IEEE_OVERFLOW_FLAG
Note: The following floating-point exceptions are signalling: IEEE_OVERFLOW_FLAG
Note: The following floating-point exceptions are signalling: IEEE_OVERFLOW_FLAG
Note: The following floating-point exceptions are signalling: IEEE_OVERFLOW_FLAG
Note: The following floating-point exceptions are signalling: IEEE_OVERFLOW_FLAG
Note: The following floating-point exceptions are signalling: IEEE_OVERFLOW_FLAG
Note: The following floating-point exceptions are signalling: IEEE_OVERFLOW_FLAG
Note: The following floating-point exceptions are signalling: IEEE_OVERFLOW_FLAG
Note: The following floating-point exceptions are signalling: IEEE_OVERFLOW_FLAG
Note: The following floating-point exceptions are signalling: IEEE_OVERFLOW_FLAG
Note: The following floating-point exceptions are signalling: IEEE_OVERFLOW_FLAG
Note: The following floating-point exceptions are signalling: IEEE_OVERFLOW_FLAG
Note: The following floating-point exceptions are signalling: IEEE_OVERFLOW_FLAG
Note: The following floating-point exceptions are signalling: IEEE_OVERFLOW_FLAG
Note: The following floating-point exceptions are signalling: IEEE_OVERFLOW_FLAG
Note: The following floating-point exceptions are signalling: IEEE_OVERFLOW_FLAG
Note: The following floating-point exceptions are signalling: IEEE_OVERFLOW_FLAG
Note: The following floating-point exceptions are signalling: IEEE_OVERFLOW_FLAG
Note: The following floating-point exceptions are signalling: IEEE_OVERFLOW_FLAG
Note: The following floating-point exceptions are signalling: IEEE_OVERFLOW_FLAG
Note: The following floating-point exceptions are signalling: IEEE_OVERFLOW_FLAG
Note: The following floating-point exceptions are signalling: IEEE_OVERFLOW_FLAG
Note: The following floating-point exceptions are signalling: IEEE_OVERFLOW_FLAG
Note: The following floating-point exceptions are signalling: IEEE_OVERFLOW_FLAG
Note: The following floating-point exceptions are signalling: IEEE_OVERFLOW_FLAG
Note: The following floating-point exceptions are signalling: IEEE_OVERFLOW_FLAG
Note: The following floating-point exceptions are signalling: IEEE_OVERFLOW_FLAG
Note: The following floating-point exceptions are signalling: IEEE_INVALID_FLAG IEEE_OVERFLOW_FLAG
Note: The following floating-point exceptions are signalling: IEEE_OVERFLOW_FLAG
Note: The following floating-point exceptions are signalling: IEEE_OVERFLOW_FLAG
Note: The following floating-point exceptions are signalling: IEEE_OVERFLOW_FLAG
Note: The following floating-point exceptions are signalling: IEEE_OVERFLOW_FLAG
Note: The following floating-point exceptions are signalling: IEEE_OVERFLOW_FLAG
Note: The following floating-point exceptions are signalling: IEEE_OVERFLOW_FLAG
Note: The following floating-point exceptions are signalling: IEEE_OVERFLOW_FLAG
Note: The following floating-point exceptions are signalling: IEEE_OVERFLOW_FLAG
Note: The following floating-point exceptions are signalling: IEEE_OVERFLOW_FLAG
Note: The following floating-point exceptions are signalling: IEEE_OVERFLOW_FLAG
Note: The following floating-point exceptions are signalling: IEEE_OVERFLOW_FLAG
Note: The following floating-point exceptions are signalling: IEEE_OVERFLOW_FLAG
Note: The following floating-point exceptions are signalling: IEEE_OVERFLOW_FLAG
Note: The following floating-point exceptions are signalling: IEEE_OVERFLOW_FLAG
Note: The following floating-point exceptions are signalling: IEEE_OVERFLOW_FLAG
Note: The following floating-point exceptions are signalling: IEEE_OVERFLOW_FLAG
Note: The following floating-point exceptions are signalling: IEEE_OVERFLOW_FLAG
Note: The following floating-point exceptions are signalling: IEEE_OVERFLOW_FLAG
Note: The following floating-point exceptions are signalling: IEEE_OVERFLOW_FLAG
Note: The following floating-point exceptions are signalling: IEEE_OVERFLOW_FLAG
Note: The following floating-point exceptions are signalling: IEEE_OVERFLOW_FLAG
Note: The following floating-point exceptions are signalling: IEEE_OVERFLOW_FLAG
Note: The following floating-point exceptions are signalling: IEEE_OVERFLOW_FLAG
Note: The following floating-point exceptions are signalling: IEEE_OVERFLOW_FLAG
Note: The following floating-point exceptions are signalling: IEEE_OVERFLOW_FLAG
Note: The following floating-point exceptions are signalling: IEEE_OVERFLOW_FLAG
Note: The following floating-point exceptions are signalling: IEEE_OVERFLOW_FLAG
Note: The following floating-point exceptions are signalling: IEEE_OVERFLOW_FLAG
Note: The following floating-point exceptions are signalling: IEEE_OVERFLOW_FLAG
Note: The following floating-point exceptions are signalling: IEEE_OVERFLOW_FLAG
Note: The following floating-point exceptions are signalling: IEEE_OVERFLOW_FLAG
Note: The following floating-point exceptions are signalling: IEEE_OVERFLOW_FLAG
Note: The following floating-point exceptions are signalling: IEEE_OVERFLOW_FLAG
Note: The following floating-point exceptions are signalling: IEEE_OVERFLOW_FLAG
Note: The following floating-point exceptions are signalling: IEEE_OVERFLOW_FLAG
Note: The following floating-point exceptions are signalling: IEEE_OVERFLOW_FLAG
Note: The following floating-point exceptions are signalling: IEEE_OVERFLOW_FLAG
Note: The following floating-point exceptions are signalling: IEEE_OVERFLOW_FLAG
