   70   70   40    1
  0.2230945E+02  0.1053953E-08  0.6141200E-09  0.2412750E-08  0.5000000E-15
   1.0000000000000000E-004
  CAR 
 Name                                    
    265     23    168

  0.3742002E-15  0.3742002E-15  0.1262379E-14  0.2222222E-01
    1      -14.010564   1.000000
    2      -12.925913   1.000000
    3      -12.735256   1.000000
    4      -12.574846   1.000000
    5      -12.008612   1.000000
    6      -11.769956   1.000000
    7      -11.721459   1.000000
    8      -11.450588   1.000000
    9      -11.439412   1.000000
   10      -11.324960   1.000000
   11      -11.138375   1.000000
   12      -11.052859   1.000000
   13      -10.812717   1.000000
   14      -10.468124   1.000000
   15      -10.289065   1.000000
   16      -10.217399   1.000000
   17      -10.163726   1.000000
   18      -10.052764   1.000000
   19       -9.852605   1.000000
   20       -9.835783   1.000000
   21       -9.591422   1.000000
   22       -9.579332   1.000000
   23       -9.368040   1.000000
   24       -9.301192   1.000000
   25       -9.038579   1.000000
   26       -8.924305   1.000000
   27       -8.564340   1.000000
   28       -8.359284   1.000000
   29       -8.276063   1.000000
   30       -8.258567   1.000000
   31       -8.101432   1.000000
   32       -7.986876   1.000000
   33       -7.705119   1.000000
   34       -7.446627   1.000000
   35       -7.254708   1.000000
   36       -7.190312   1.000000
   37       -7.128963   1.000000
   38       -6.937216   1.000000
   39       -6.864480   1.000000
   40       -6.788135   1.000000
   41       -6.726116   1.000000
   42       -6.653017   1.000000
   43       -6.590535   1.000000
   44       -6.408797   1.000000
   45       -6.359661   1.000000
   46       -6.269230   1.000000
   47       -6.252668   1.000000
   48       -6.144222   1.000000
   49       -6.061683   1.000000
   50       -5.965091   1.000000
   51       -5.849769   1.000000
   52       -5.708547   1.000000
   53       -5.681528   1.000000
   54       -5.660898   1.000000
   55       -5.512393   1.000000
   56       -5.433689   1.000000
   57       -5.337811   1.000000
   58       -5.299782   1.000000
   59       -5.246792   1.000000
   60       -5.225119   1.000000
   61       -5.107035   1.000000
   62       -4.976658   1.000000
   63       -4.906131   1.000000
   64       -4.813740   1.000000
   65       -4.737724   1.000000
   66       -4.730440   1.000000
   67       -4.593386   1.000000
   68       -4.568282   1.000000
   69       -4.532013   1.000000
   70       -4.394843   1.000000
   71       -4.332353   1.000000
   72       -4.271356   1.000000
   73       -4.237159   1.000000
   74       -4.138071   1.000000
   75       -4.119056   1.000000
   76       -4.101183   1.000000
   77       -4.039479   1.000000
   78       -3.958088   1.000000
   79       -3.920790   1.000000
   80       -3.796446   1.000000
   81       -3.784965   1.000000
   82       -3.735991   1.000000
   83       -3.677304   1.000000
   84       -3.608794   1.000000
   85       -3.504584   1.000000
   86       -3.499454   1.000000
   87       -3.448296   1.000000
   88       -3.338705   1.000000
   89       -3.260235   1.000000
   90       -3.184580   1.000000
   91       -3.128759   1.000000
   92       -3.042394   1.000000
   93       -2.985964   1.000000
   94       -2.960934   1.000000
   95       -2.796599   1.000000
   96       -2.693879   1.000000
   97       -2.680501   1.000000
   98       -2.610591   1.000000
   99       -2.584103   1.000000
  100       -2.481850   1.000000
  101       -2.449360   1.000000
  102       -2.433588   1.000000
  103       -2.424827   1.000000
  104       -2.380303   1.000000
  105       -2.310377   1.000000
  106       -2.275842   1.000000
  107       -2.253366   1.000000
  108       -2.182216   1.000000
  109       -2.059159   1.000000
  110       -1.988057   1.000000
  111       -1.981084   1.000000
  112       -1.899736   1.000000
  113       -1.835171   1.000000
  114       -1.711925   1.000000
  115       -1.661804   1.000000
  116       -1.598228   1.000000
  117       -1.495812   1.000000
  118       -1.346028   1.000000
  119       -1.278378   1.000000
  120       -1.258040   1.000000
  121       -1.154482   1.000000
  122       -1.034031   1.000000
  123       -0.911147   1.000000
  124       -0.750922   1.000002
  125       -0.677165   1.000024
  126       -0.587752   1.000297
  127       -0.546786   1.000806
  128       -0.446815   1.006132
  129       -0.298165   1.033820
  130       -0.269233   1.035280
  131       -0.135774   0.883134
  132       -0.068503   0.655954
  133       -0.025117   0.475457
  134        0.041481   0.214764
  135        0.067365   0.134647
  136        0.131314   0.007150
  137        0.139973  -0.002700
  138        0.247445  -0.032067
  139        0.260834  -0.029445
  140        0.462858  -0.001329
  141        0.506808  -0.000479
  142        0.536597  -0.000225
  143        0.609221  -0.000029
  144        0.611720  -0.000027
  145        0.739289  -0.000000
  146        0.840612  -0.000000
  147        0.854038  -0.000000
  148        0.885191  -0.000000
  149        0.926538  -0.000000
  150        0.984088  -0.000000
  151        1.028828  -0.000000
  152        1.065031  -0.000000
  153        1.103925  -0.000000
  154        1.117906  -0.000000
  155        1.154507  -0.000000
  156        1.246323  -0.000000
  157        1.267841  -0.000000
  158        1.304355  -0.000000
  159        1.317920  -0.000000
  160        1.347807  -0.000000
  161        1.379357  -0.000000
  162        1.394565  -0.000000
  163        1.419828  -0.000000
  164        1.463380  -0.000000
  165        1.525773  -0.000000
  166        1.527765  -0.000000
  167        1.571610  -0.000000
  168        1.606056  -0.000000

  0.2000000E+00  0.3742002E-15  0.1262379E-14  0.4444444E-01
    1      -13.984197   1.000000
    2      -13.068398   1.000000
    3      -12.817743   1.000000
    4      -12.264403   1.000000
    5      -12.069597   1.000000
    6      -12.007004   1.000000
    7      -11.491395   1.000000
    8      -11.442578   1.000000
    9      -11.317220   1.000000
   10      -11.266296   1.000000
   11      -11.103716   1.000000
   12      -11.051939   1.000000
   13      -10.790514   1.000000
   14      -10.610424   1.000000
   15      -10.514940   1.000000
   16      -10.295445   1.000000
   17      -10.246081   1.000000
   18      -10.074742   1.000000
   19       -9.856892   1.000000
   20       -9.787661   1.000000
   21       -9.608253   1.000000
   22       -9.592108   1.000000
   23       -9.354485   1.000000
   24       -9.276747   1.000000
   25       -9.012256   1.000000
   26       -8.758552   1.000000
   27       -8.478440   1.000000
   28       -8.289592   1.000000
   29       -8.226970   1.000000
   30       -8.158191   1.000000
   31       -8.094345   1.000000
   32       -8.034350   1.000000
   33       -7.622878   1.000000
   34       -7.502433   1.000000
   35       -7.373866   1.000000
   36       -7.242478   1.000000
   37       -7.144976   1.000000
   38       -7.005905   1.000000
   39       -6.932155   1.000000
   40       -6.845630   1.000000
   41       -6.762335   1.000000
   42       -6.716838   1.000000
   43       -6.610700   1.000000
   44       -6.522483   1.000000
   45       -6.382067   1.000000
   46       -6.324535   1.000000
   47       -6.099587   1.000000
   48       -6.045647   1.000000
   49       -6.021719   1.000000
   50       -5.977011   1.000000
   51       -5.895056   1.000000
   52       -5.685609   1.000000
   53       -5.614458   1.000000
   54       -5.587848   1.000000
   55       -5.536467   1.000000
   56       -5.414081   1.000000
   57       -5.371097   1.000000
   58       -5.285617   1.000000
   59       -5.207013   1.000000
   60       -5.098732   1.000000
   61       -5.089945   1.000000
   62       -5.049906   1.000000
   63       -4.891665   1.000000
   64       -4.804131   1.000000
   65       -4.763989   1.000000
   66       -4.660587   1.000000
   67       -4.575479   1.000000
   68       -4.551980   1.000000
   69       -4.517803   1.000000
   70       -4.385382   1.000000
   71       -4.288958   1.000000
   72       -4.262200   1.000000
   73       -4.247364   1.000000
   74       -4.172608   1.000000
   75       -4.123254   1.000000
   76       -4.118777   1.000000
   77       -4.057830   1.000000
   78       -3.968572   1.000000
   79       -3.956470   1.000000
   80       -3.871301   1.000000
   81       -3.831381   1.000000
   82       -3.763633   1.000000
   83       -3.666293   1.000000
   84       -3.611950   1.000000
   85       -3.576287   1.000000
   86       -3.454638   1.000000
   87       -3.430129   1.000000
   88       -3.339897   1.000000
   89       -3.257085   1.000000
   90       -3.226800   1.000000
   91       -3.119780   1.000000
   92       -3.028107   1.000000
   93       -2.973382   1.000000
   94       -2.949594   1.000000
   95       -2.832102   1.000000
   96       -2.765619   1.000000
   97       -2.705621   1.000000
   98       -2.639712   1.000000
   99       -2.571426   1.000000
  100       -2.560668   1.000000
  101       -2.488747   1.000000
  102       -2.447080   1.000000
  103       -2.393140   1.000000
  104       -2.334081   1.000000
  105       -2.251981   1.000000
  106       -2.220254   1.000000
  107       -2.188679   1.000000
  108       -2.100205   1.000000
  109       -2.040641   1.000000
  110       -1.977432   1.000000
  111       -1.903803   1.000000
  112       -1.833283   1.000000
  113       -1.814195   1.000000
  114       -1.687252   1.000000
  115       -1.648469   1.000000
  116       -1.571691   1.000000
  117       -1.473554   1.000000
  118       -1.343497   1.000000
  119       -1.279404   1.000000
  120       -1.247706   1.000000
  121       -1.226210   1.000000
  122       -1.042888   1.000000
  123       -0.983943   1.000000
  124       -0.788247   1.000001
  125       -0.744324   1.000003
  126       -0.648322   1.000057
  127       -0.619717   1.000127
  128       -0.541159   1.000918
  129       -0.356357   1.021814
  130       -0.290384   1.034724
  131       -0.171753   0.961318
  132       -0.141778   0.898445
  133       -0.006532   0.397648
  134       -0.000311   0.372148
  135        0.039243   0.222398
  136        0.125424   0.014778
  137        0.204584  -0.035092
  138        0.283488  -0.024360
  139        0.354811  -0.009998
  140        0.430612  -0.002618
  141        0.502959  -0.000526
  142        0.532107  -0.000253
  143        0.602545  -0.000036
  144        0.682071  -0.000003
  145        0.790469  -0.000000
  146        0.810936  -0.000000
  147        0.864871  -0.000000
  148        0.901899  -0.000000
  149        0.918631  -0.000000
  150        1.008029  -0.000000
  151        1.065339  -0.000000
  152        1.099475  -0.000000
  153        1.117867  -0.000000
  154        1.193534  -0.000000
  155        1.244709  -0.000000
  156        1.267386  -0.000000
  157        1.281463  -0.000000
  158        1.321728  -0.000000
  159        1.344525  -0.000000
  160        1.386390  -0.000000
  161        1.409438  -0.000000
  162        1.422555  -0.000000
  163        1.439921  -0.000000
  164        1.476880  -0.000000
  165        1.526927  -0.000000
  166        1.555842  -0.000000
  167        1.576546  -0.000000
  168        1.597372  -0.000000

  0.4000000E+00  0.3742002E-15  0.1262379E-14  0.4444444E-01
    1      -13.931655   1.000000
    2      -13.270788   1.000000
    3      -12.727135   1.000000
    4      -12.405415   1.000000
    5      -12.004942   1.000000
    6      -11.701511   1.000000
    7      -11.532685   1.000000
    8      -11.442414   1.000000
    9      -11.204086   1.000000
   10      -11.175371   1.000000
   11      -11.050867   1.000000
   12      -11.013734   1.000000
   13      -10.794179   1.000000
   14      -10.740023   1.000000
   15      -10.603783   1.000000
   16      -10.573099   1.000000
   17      -10.276573   1.000000
   18      -10.192941   1.000000
   19      -10.073323   1.000000
   20       -9.859983   1.000000
   21       -9.623944   1.000000
   22       -9.360365   1.000000
   23       -9.291880   1.000000
   24       -9.228446   1.000000
   25       -8.959436   1.000000
   26       -8.781921   1.000000
   27       -8.323861   1.000000
   28       -8.159570   1.000000
   29       -8.088950   1.000000
   30       -7.993264   1.000000
   31       -7.955223   1.000000
   32       -7.772613   1.000000
   33       -7.671640   1.000000
   34       -7.642332   1.000000
   35       -7.522191   1.000000
   36       -7.435099   1.000000
   37       -7.323226   1.000000
   38       -7.231168   1.000000
   39       -7.171459   1.000000
   40       -6.919112   1.000000
   41       -6.822659   1.000000
   42       -6.639727   1.000000
   43       -6.601872   1.000000
   44       -6.418713   1.000000
   45       -6.361665   1.000000
   46       -6.299893   1.000000
   47       -6.130900   1.000000
   48       -6.083805   1.000000
   49       -6.007369   1.000000
   50       -5.858226   1.000000
   51       -5.807117   1.000000
   52       -5.754032   1.000000
   53       -5.640448   1.000000
   54       -5.598795   1.000000
   55       -5.546613   1.000000
   56       -5.448266   1.000000
   57       -5.363203   1.000000
   58       -5.255958   1.000000
   59       -5.094074   1.000000
   60       -5.057062   1.000000
   61       -4.978772   1.000000
   62       -4.911945   1.000000
   63       -4.823879   1.000000
   64       -4.812260   1.000000
   65       -4.731260   1.000000
   66       -4.635417   1.000000
   67       -4.590261   1.000000
   68       -4.503325   1.000000
   69       -4.469062   1.000000
   70       -4.408229   1.000000
   71       -4.318254   1.000000
   72       -4.279488   1.000000
   73       -4.255912   1.000000
   74       -4.205294   1.000000
   75       -4.184896   1.000000
   76       -4.107171   1.000000
   77       -4.052580   1.000000
   78       -4.015753   1.000000
   79       -3.993837   1.000000
   80       -3.936582   1.000000
   81       -3.896924   1.000000
   82       -3.740123   1.000000
   83       -3.724019   1.000000
   84       -3.622472   1.000000
   85       -3.569330   1.000000
   86       -3.430644   1.000000
   87       -3.420378   1.000000
   88       -3.394015   1.000000
   89       -3.231991   1.000000
   90       -3.203531   1.000000
   91       -3.159184   1.000000
   92       -3.147377   1.000000
   93       -3.029512   1.000000
   94       -2.924036   1.000000
   95       -2.894699   1.000000
   96       -2.855473   1.000000
   97       -2.695714   1.000000
   98       -2.672983   1.000000
   99       -2.615493   1.000000
  100       -2.596639   1.000000
  101       -2.452007   1.000000
  102       -2.371857   1.000000
  103       -2.332541   1.000000
  104       -2.282948   1.000000
  105       -2.232237   1.000000
  106       -2.168927   1.000000
  107       -2.102309   1.000000
  108       -2.028836   1.000000
  109       -1.984172   1.000000
  110       -1.915430   1.000000
  111       -1.784798   1.000000
  112       -1.761513   1.000000
  113       -1.748538   1.000000
  114       -1.613644   1.000000
  115       -1.598105   1.000000
  116       -1.520023   1.000000
  117       -1.463249   1.000000
  118       -1.373560   1.000000
  119       -1.330581   1.000000
  120       -1.292696   1.000000
  121       -1.198029   1.000000
  122       -1.099199   1.000000
  123       -1.069605   1.000000
  124       -0.876093   1.000000
  125       -0.858522   1.000000
  126       -0.775869   1.000001
  127       -0.725014   1.000005
  128       -0.622205   1.000119
  129       -0.537418   1.001000
  130       -0.384535   1.015688
  131       -0.173487   0.964275
  132       -0.142985   0.901414
  133       -0.054799   0.600245
  134       -0.004696   0.390088
  135        0.035470   0.235503
  136        0.116491   0.027851
  137        0.217036  -0.035424
  138        0.280457  -0.025061
  139        0.359508  -0.009303
  140        0.465444  -0.001255
  141        0.476174  -0.000987
  142        0.575081  -0.000079
  143        0.666321  -0.000005
  144        0.717114  -0.000001
  145        0.811519  -0.000000
  146        0.828870  -0.000000
  147        0.899642  -0.000000
  148        0.927862  -0.000000
  149        1.038030  -0.000000
  150        1.094809  -0.000000
  151        1.109768  -0.000000
  152        1.179464  -0.000000
  153        1.193495  -0.000000
  154        1.209873  -0.000000
  155        1.271337  -0.000000
  156        1.290336  -0.000000
  157        1.306529  -0.000000
  158        1.364858  -0.000000
  159        1.389790  -0.000000
  160        1.419721  -0.000000
  161        1.434967  -0.000000
  162        1.460180  -0.000000
  163        1.478448  -0.000000
  164        1.524329  -0.000000
  165        1.559791  -0.000000
  166        1.571955  -0.000000
  167        1.616820  -0.000000
  168        1.655843  -0.000000

  0.3742002E-15  0.1111111E+00  0.1262379E-14  0.4444444E-01
    1      -13.964952   1.000000
    2      -12.885093   1.000000
    3      -12.699515   1.000000
    4      -12.543340   1.000000
    5      -12.089492   1.000000
    6      -11.735772   1.000000
    7      -11.697021   1.000000
    8      -11.492707   1.000000
    9      -11.465831   1.000000
   10      -11.365755   1.000000
   11      -11.118375   1.000000
   12      -11.063755   1.000000
   13      -10.844608   1.000000
   14      -10.477218   1.000000
   15      -10.282138   1.000000
   16      -10.221052   1.000000
   17      -10.153495   1.000000
   18      -10.060205   1.000000
   19       -9.850561   1.000000
   20       -9.805929   1.000000
   21       -9.618248   1.000000
   22       -9.578191   1.000000
   23       -9.370454   1.000000
   24       -9.299485   1.000000
   25       -9.058276   1.000000
   26       -8.898978   1.000000
   27       -8.560556   1.000000
   28       -8.359495   1.000000
   29       -8.289411   1.000000
   30       -8.266313   1.000000
   31       -8.002882   1.000000
   32       -7.953462   1.000000
   33       -7.800789   1.000000
   34       -7.486844   1.000000
   35       -7.355914   1.000000
   36       -7.244506   1.000000
   37       -7.108373   1.000000
   38       -6.914400   1.000000
   39       -6.808459   1.000000
   40       -6.757551   1.000000
   41       -6.700670   1.000000
   42       -6.646301   1.000000
   43       -6.551068   1.000000
   44       -6.439449   1.000000
   45       -6.302233   1.000000
   46       -6.271847   1.000000
   47       -6.229020   1.000000
   48       -6.150501   1.000000
   49       -6.096929   1.000000
   50       -5.921289   1.000000
   51       -5.882801   1.000000
   52       -5.759618   1.000000
   53       -5.626236   1.000000
   54       -5.599633   1.000000
   55       -5.514807   1.000000
   56       -5.424469   1.000000
   57       -5.306763   1.000000
   58       -5.265683   1.000000
   59       -5.227168   1.000000
   60       -5.188605   1.000000
   61       -5.077239   1.000000
   62       -4.949371   1.000000
   63       -4.912726   1.000000
   64       -4.826738   1.000000
   65       -4.750688   1.000000
   66       -4.671028   1.000000
   67       -4.598512   1.000000
   68       -4.559129   1.000000
   69       -4.546142   1.000000
   70       -4.435862   1.000000
   71       -4.385135   1.000000
   72       -4.349981   1.000000
   73       -4.181314   1.000000
   74       -4.148008   1.000000
   75       -4.120668   1.000000
   76       -4.080453   1.000000
   77       -4.025665   1.000000
   78       -3.979565   1.000000
   79       -3.920190   1.000000
   80       -3.849763   1.000000
   81       -3.789647   1.000000
   82       -3.749176   1.000000
   83       -3.682493   1.000000
   84       -3.615680   1.000000
   85       -3.515543   1.000000
   86       -3.467149   1.000000
   87       -3.449500   1.000000
   88       -3.370864   1.000000
   89       -3.269623   1.000000
   90       -3.213729   1.000000
   91       -3.193506   1.000000
   92       -3.108187   1.000000
   93       -3.044913   1.000000
   94       -2.963395   1.000000
   95       -2.867359   1.000000
   96       -2.811756   1.000000
   97       -2.670820   1.000000
   98       -2.630111   1.000000
   99       -2.579707   1.000000
  100       -2.529593   1.000000
  101       -2.503991   1.000000
  102       -2.478279   1.000000
  103       -2.417836   1.000000
  104       -2.347187   1.000000
  105       -2.321613   1.000000
  106       -2.281156   1.000000
  107       -2.251368   1.000000
  108       -2.172788   1.000000
  109       -2.032383   1.000000
  110       -1.985180   1.000000
  111       -1.925960   1.000000
  112       -1.882518   1.000000
  113       -1.765126   1.000000
  114       -1.677471   1.000000
  115       -1.618069   1.000000
  116       -1.591222   1.000000
  117       -1.491029   1.000000
  118       -1.399037   1.000000
  119       -1.247265   1.000000
  120       -1.212142   1.000000
  121       -1.046058   1.000000
  122       -0.968802   1.000000
  123       -0.891913   1.000000
  124       -0.824133   1.000000
  125       -0.722334   1.000006
  126       -0.635747   1.000082
  127       -0.528017   1.001235
  128       -0.427205   1.008485
  129       -0.384093   1.015778
  130       -0.208930   1.009636
  131       -0.181951   0.977668
  132       -0.108862   0.803673
  133       -0.039858   0.537777
  134        0.000416   0.369192
  135        0.085125   0.089056
  136        0.177811  -0.029085
  137        0.196876  -0.034188
  138        0.243806  -0.032692
  139        0.332909  -0.013706
  140        0.400197  -0.004684
  141        0.494248  -0.000648
  142        0.552318  -0.000148
  143        0.581136  -0.000066
  144        0.678298  -0.000003
  145        0.717638  -0.000001
  146        0.762216  -0.000000
  147        0.865035  -0.000000
  148        0.890066  -0.000000
  149        0.958810  -0.000000
  150        0.979613  -0.000000
  151        1.032919  -0.000000
  152        1.065646  -0.000000
  153        1.086802  -0.000000
  154        1.156819  -0.000000
  155        1.210698  -0.000000
  156        1.236578  -0.000000
  157        1.257919  -0.000000
  158        1.282214  -0.000000
  159        1.320455  -0.000000
  160        1.337865  -0.000000
  161        1.358005  -0.000000
  162        1.388642  -0.000000
  163        1.427117  -0.000000
  164        1.442841  -0.000000
  165        1.489596  -0.000000
  166        1.514768  -0.000000
  167        1.545266  -0.000000
  168        1.617752  -0.000000

  0.2000000E+00  0.1111111E+00  0.1262379E-14  0.4444444E-01
    1      -13.938850   1.000000
    2      -13.028902   1.000000
    3      -12.779855   1.000000
    4      -12.231644   1.000000
    5      -12.091656   1.000000
    6      -12.034077   1.000000
    7      -11.542363   1.000000
    8      -11.476745   1.000000
    9      -11.293874   1.000000
   10      -11.286852   1.000000
   11      -11.098421   1.000000
   12      -11.055062   1.000000
   13      -10.815294   1.000000
   14      -10.596006   1.000000
   15      -10.523241   1.000000
   16      -10.290639   1.000000
   17      -10.241744   1.000000
   18      -10.089534   1.000000
   19       -9.863952   1.000000
   20       -9.773313   1.000000
   21       -9.619776   1.000000
   22       -9.585782   1.000000
   23       -9.362223   1.000000
   24       -9.273292   1.000000
   25       -9.009763   1.000000
   26       -8.755052   1.000000
   27       -8.471889   1.000000
   28       -8.294865   1.000000
   29       -8.233032   1.000000
   30       -8.179079   1.000000
   31       -8.071104   1.000000
   32       -7.924278   1.000000
   33       -7.697539   1.000000
   34       -7.564604   1.000000
   35       -7.425014   1.000000
   36       -7.285817   1.000000
   37       -7.139160   1.000000
   38       -6.979794   1.000000
   39       -6.859976   1.000000
   40       -6.837547   1.000000
   41       -6.742901   1.000000
   42       -6.675826   1.000000
   43       -6.588768   1.000000
   44       -6.585603   1.000000
   45       -6.411396   1.000000
   46       -6.325260   1.000000
   47       -6.151206   1.000000
   48       -6.078573   1.000000
   49       -5.971803   1.000000
   50       -5.871555   1.000000
   51       -5.864093   1.000000
   52       -5.677842   1.000000
   53       -5.620258   1.000000
   54       -5.609847   1.000000
   55       -5.516638   1.000000
   56       -5.405284   1.000000
   57       -5.296992   1.000000
   58       -5.264985   1.000000
   59       -5.187733   1.000000
   60       -5.106716   1.000000
   61       -5.064651   1.000000
   62       -5.014562   1.000000
   63       -4.858202   1.000000
   64       -4.822917   1.000000
   65       -4.724681   1.000000
   66       -4.632162   1.000000
   67       -4.593194   1.000000
   68       -4.548297   1.000000
   69       -4.498578   1.000000
   70       -4.408349   1.000000
   71       -4.369358   1.000000
   72       -4.331175   1.000000
   73       -4.221947   1.000000
   74       -4.189425   1.000000
   75       -4.131329   1.000000
   76       -4.098705   1.000000
   77       -4.058148   1.000000
   78       -3.986458   1.000000
   79       -3.908237   1.000000
   80       -3.890424   1.000000
   81       -3.857479   1.000000
   82       -3.762025   1.000000
   83       -3.687955   1.000000
   84       -3.607243   1.000000
   85       -3.568740   1.000000
   86       -3.495206   1.000000
   87       -3.424655   1.000000
   88       -3.380437   1.000000
   89       -3.284501   1.000000
   90       -3.198804   1.000000
   91       -3.194582   1.000000
   92       -3.100595   1.000000
   93       -3.025243   1.000000
   94       -2.971362   1.000000
   95       -2.897738   1.000000
   96       -2.786253   1.000000
   97       -2.749512   1.000000
   98       -2.673347   1.000000
   99       -2.606887   1.000000
  100       -2.571441   1.000000
  101       -2.550961   1.000000
  102       -2.423296   1.000000
  103       -2.365522   1.000000
  104       -2.317648   1.000000
  105       -2.257258   1.000000
  106       -2.246435   1.000000
  107       -2.188730   1.000000
  108       -2.133114   1.000000
  109       -2.063590   1.000000
  110       -1.938386   1.000000
  111       -1.882883   1.000000
  112       -1.814776   1.000000
  113       -1.744185   1.000000
  114       -1.674678   1.000000
  115       -1.625492   1.000000
  116       -1.571030   1.000000
  117       -1.486833   1.000000
  118       -1.402461   1.000000
  119       -1.278693   1.000000
  120       -1.220160   1.000000
  121       -1.141247   1.000000
  122       -0.996083   1.000000
  123       -0.901904   1.000000
  124       -0.853907   1.000000
  125       -0.764919   1.000001
  126       -0.721075   1.000006
  127       -0.536705   1.001017
  128       -0.447110   1.006101
  129       -0.416677   1.009994
  130       -0.290092   1.034752
  131       -0.197673   0.998189
  132       -0.094326   0.753928
  133       -0.023001   0.466519
  134        0.010896   0.327275
  135        0.056159   0.167417
  136        0.102578   0.051992
  137        0.201962  -0.034850
  138        0.243595  -0.032726
  139        0.397462  -0.004922
  140        0.444837  -0.001956
  141        0.486822  -0.000772
  142        0.556458  -0.000132
  143        0.608758  -0.000030
  144        0.716209  -0.000001
  145        0.761982  -0.000000
  146        0.784737  -0.000000
  147        0.864100  -0.000000
  148        0.914157  -0.000000
  149        0.976441  -0.000000
  150        1.007932  -0.000000
  151        1.050506  -0.000000
  152        1.080603  -0.000000
  153        1.135547  -0.000000
  154        1.198181  -0.000000
  155        1.222744  -0.000000
  156        1.250264  -0.000000
  157        1.281927  -0.000000
  158        1.302534  -0.000000
  159        1.322175  -0.000000
  160        1.337222  -0.000000
  161        1.372825  -0.000000
  162        1.415190  -0.000000
  163        1.441078  -0.000000
  164        1.464823  -0.000000
  165        1.483843  -0.000000
  166        1.538298  -0.000000
  167        1.569787  -0.000000
  168        1.610898  -0.000000

  0.4000000E+00  0.1111111E+00  0.1262379E-14  0.4444444E-01
    1      -13.886836   1.000000
    2      -13.230124   1.000000
    3      -12.690239   1.000000
    4      -12.367769   1.000000
    5      -12.079733   1.000000
    6      -11.692573   1.000000
    7      -11.581948   1.000000
    8      -11.475646   1.000000
    9      -11.213572   1.000000
   10      -11.157875   1.000000
   11      -11.074557   1.000000
   12      -10.990447   1.000000
   13      -10.779355   1.000000
   14      -10.746396   1.000000
   15      -10.618312   1.000000
   16      -10.556310   1.000000
   17      -10.292224   1.000000
   18      -10.181698   1.000000
   19      -10.080828   1.000000
   20       -9.879821   1.000000
   21       -9.628296   1.000000
   22       -9.348894   1.000000
   23       -9.300696   1.000000
   24       -9.232635   1.000000
   25       -8.953177   1.000000
   26       -8.767664   1.000000
   27       -8.326720   1.000000
   28       -8.182598   1.000000
   29       -8.102331   1.000000
   30       -7.962170   1.000000
   31       -7.859797   1.000000
   32       -7.771791   1.000000
   33       -7.706000   1.000000
   34       -7.656664   1.000000
   35       -7.550238   1.000000
   36       -7.475896   1.000000
   37       -7.360128   1.000000
   38       -7.194601   1.000000
   39       -7.085334   1.000000
   40       -6.976403   1.000000
   41       -6.871585   1.000000
   42       -6.636163   1.000000
   43       -6.577106   1.000000
   44       -6.485094   1.000000
   45       -6.343675   1.000000
   46       -6.267688   1.000000
   47       -6.143438   1.000000
   48       -6.089708   1.000000
   49       -5.983040   1.000000
   50       -5.876949   1.000000
   51       -5.822371   1.000000