 running on   72 total cores
 distrk:  each k-point on   72 cores,    1 groups
 distr:  one band on    9 cores,    8 groups
 using from now: INCAR     
 vasp.5.4.4.18Apr17-6-g9f103f2a35 (build Dec  7 2020 12:43:57) complex           
 POSCAR found type information on POSCAR  Mo V  B  H 
 POSCAR found :  4 types and      70 ions
 scaLAPACK will be used
 LDA part: xc-table for Pade appr. of Perdew
 POSCAR, INCAR and KPOINTS ok, starting setup
 resort distribution
 resort distribution
 resort distribution
 resort distribution
 resort distribution
 resort distribution
 resort distribution
 resort distribution
 resort distribution
 resort distribution
 resort distribution
 resort distribution
 resort distribution
 resort distribution
 resort distribution
 resort distribution
 resort distribution
 resort distribution
 resort distribution
 resort distribution
 resort distribution
 resort distribution
 resort distribution
 resort distribution
 resort distribution
 resort distribution
 resort distribution
 resort distribution
 resort distribution
 resort distribution
 resort distribution
 resort distribution
 resort distribution
 resort distribution
 resort distribution
 resort distribution
 resort distribution
 resort distribution
 resort distribution
 resort distribution
 resort distribution
 resort distribution
 resort distribution
 resort distribution
 resort distribution
 resort distribution
 resort distribution
 resort distribution
 resort distribution
 resort distribution
 resort distribution
 resort distribution
 resort distribution
 resort distribution
 resort distribution
 resort distribution
 resort distribution
 resort distribution
 resort distribution
 resort distribution
 resort distribution
 resort distribution
 resort distribution
 resort distribution
 resort distribution
 resort distribution
 resort distribution
 resort distribution
 resort distribution
 resort distribution
 resort distribution
 resort distribution
 FFT: planning ...
 WAVECAR not read
 augmentation electrons   265.01688297050543     
 soft         electrons   0.0000000000000000     
 augmentation electrons   265.01688297050543     
 soft         electrons   0.0000000000000000     
 augmentation electrons   265.01688297050543     
 augmentation electrons   265.01688297050543     
 soft         electrons   0.0000000000000000     
 augmentation electrons   265.01688297050543     
 soft         electrons   0.0000000000000000     
 augmentation electrons   265.01688297050543     
 soft         electrons   0.0000000000000000     
 augmentation electrons   265.01688297050543     
 soft         electrons   0.0000000000000000     
 augmentation electrons   265.01688297050543     
 soft         electrons   0.0000000000000000     
 augmentation electrons   265.01688297050543     
 soft         electrons   0.0000000000000000     
 augmentation electrons   265.01688297050543     
 soft         electrons   0.0000000000000000     
 augmentation electrons   265.01688297050543     
 soft         electrons   0.0000000000000000     
 augmentation electrons   265.01688297050543     
 soft         electrons   0.0000000000000000     
 augmentation electrons   265.01688297050543     
 soft         electrons   0.0000000000000000     
 augmentation electrons   265.01688297050543     
 soft         electrons   0.0000000000000000     
 augmentation electrons   265.01688297050543     
 soft         electrons   0.0000000000000000     
 augmentation electrons   265.01688297050543     
 soft         electrons   0.0000000000000000     
 augmentation electrons   265.01688297050543     
 soft         electrons   0.0000000000000000     
 augmentation electrons   265.01688297050543     
 soft         electrons   0.0000000000000000     
 augmentation electrons   265.01688297050543     
 soft         electrons   0.0000000000000000     
 augmentation electrons   265.01688297050543     
 soft         electrons   0.0000000000000000     
 augmentation electrons   265.01688297050543     
 soft         electrons   0.0000000000000000     
 augmentation electrons   265.01688297050543     
 soft         electrons   0.0000000000000000     
 augmentation electrons   265.01688297050543     
 soft         electrons   0.0000000000000000     
 augmentation electrons   265.01688297050543     
 soft         electrons   0.0000000000000000     
 augmentation electrons   265.01688297050543     
 soft         electrons   0.0000000000000000     
 augmentation electrons   265.01688297050543     
 soft         electrons   0.0000000000000000     
 augmentation electrons   265.01688297050543     
 soft         electrons   0.0000000000000000     
 augmentation electrons   265.01688297050543     
 soft         electrons   0.0000000000000000     
 augmentation electrons   265.01688297050543     
 soft         electrons   0.0000000000000000     
 augmentation electrons   265.01688297050543     
 soft         electrons   0.0000000000000000     
 augmentation electrons   265.01688297050543     
 soft         electrons   0.0000000000000000     
 augmentation electrons   265.01688297050543     
 soft         electrons   0.0000000000000000     
 augmentation electrons   265.01688297050543     
 soft         electrons   0.0000000000000000     
 augmentation electrons   265.01688297050543     
 soft         electrons   0.0000000000000000     
 augmentation electrons   265.01688297050543     
 soft         electrons   0.0000000000000000     
 augmentation electrons   265.01688297050543     
 soft         electrons   0.0000000000000000     
 augmentation electrons   265.01688297050543     
 soft         electrons   0.0000000000000000     
 augmentation electrons   265.01688297050543     
 soft         electrons   0.0000000000000000     
 augmentation electrons   265.01688297050543     
 soft         electrons   0.0000000000000000     
 augmentation electrons   265.01688297050543     
 soft         electrons   0.0000000000000000     
 augmentation electrons   265.01688297050543     
 soft         electrons   0.0000000000000000     
 augmentation electrons   265.01688297050543     
 soft         electrons   0.0000000000000000     
 augmentation electrons   265.01688297050543     
 soft         electrons   0.0000000000000000     
 augmentation electrons   265.01688297050543     
 soft         electrons   0.0000000000000000     
 augmentation electrons   265.01688297050543     
 soft         electrons   0.0000000000000000     
 augmentation electrons   265.01688297050543     
 soft         electrons   0.0000000000000000     
 augmentation electrons   265.01688297050543     
 soft         electrons   0.0000000000000000     
 augmentation electrons   265.01688297050543     
 soft         electrons   0.0000000000000000     
 augmentation electrons   265.01688297050543     
 soft         electrons   0.0000000000000000     
 augmentation electrons   265.01688297050543     
 soft         electrons   0.0000000000000000     
 augmentation electrons   265.01688297050543     
 soft         electrons   0.0000000000000000     
 augmentation electrons   265.01688297050543     
 soft         electrons   0.0000000000000000     
 augmentation electrons   265.01688297050543     
 soft         electrons   0.0000000000000000     
 augmentation electrons   265.01688297050543     
 soft         electrons   0.0000000000000000     
 augmentation electrons   265.01688297050543     
 soft         electrons   0.0000000000000000     
 augmentation electrons   265.01688297050543     
 soft         electrons   0.0000000000000000     
 augmentation electrons   265.01688297050543     
 soft         electrons   0.0000000000000000     
 augmentation electrons   265.01688297050543     
 soft         electrons   0.0000000000000000     
 augmentation electrons   265.01688297050543     
 soft         electrons   0.0000000000000000     
 augmentation electrons   265.01688297050543     
 soft         electrons   0.0000000000000000     
 augmentation electrons   265.01688297050543     
 soft         electrons   0.0000000000000000     
 augmentation electrons   265.01688297050543     
 soft         electrons   0.0000000000000000     
 augmentation electrons   265.01688297050543     
 soft         electrons   0.0000000000000000     
 augmentation electrons   265.01688297050543     
 soft         electrons   0.0000000000000000     
 augmentation electrons   265.01688297050543     
 soft         electrons   0.0000000000000000     
 augmentation electrons   265.01688297050543     
 soft         electrons   0.0000000000000000     
 augmentation electrons   265.01688297050543     
 soft         electrons   0.0000000000000000     
 augmentation electrons   265.01688297050543     
 soft         electrons   0.0000000000000000     
 augmentation electrons   265.01688297050543     
 soft         electrons   0.0000000000000000     
 augmentation electrons   265.01688297050543     
 soft         electrons   0.0000000000000000     
 augmentation electrons   265.01688297050543     
 soft         electrons   0.0000000000000000     
 augmentation electrons   265.01688297050543     
 soft         electrons   0.0000000000000000     
 soft         electrons   0.0000000000000000     
 total        electrons   265.01688297050543     
 total        electrons   265.01688297050543     
 total        electrons   265.01688297050543     
 total        electrons   265.01688297050543     
 total        electrons   265.01688297050543     
 total        electrons   265.01688297050543     
 total        electrons   265.01688297050543     
 total        electrons   265.01688297050543     
 total        electrons   265.01688297050543     
 total        electrons   265.01688297050543     
 total        electrons   265.01688297050543     
 total        electrons   265.01688297050543     
 total        electrons   265.01688297050543     
 total        electrons   265.01688297050543     
 total        electrons   265.01688297050543     
 total        electrons   265.01688297050543     
 total        electrons   265.01688297050543     
 total        electrons   265.01688297050543     
 total        electrons   265.01688297050543     
 total        electrons   265.01688297050543     
 total        electrons   265.01688297050543     
 total        electrons   265.01688297050543     
 total        electrons   265.01688297050543     
 total        electrons   265.01688297050543     
 total        electrons   265.01688297050543     
 total        electrons   265.01688297050543     
 total        electrons   265.01688297050543     
 total        electrons   265.01688297050543     
 total        electrons   265.01688297050543     
 total        electrons   265.01688297050543     
 total        electrons   265.01688297050543     
 total        electrons   265.01688297050543     
 total        electrons   265.01688297050543     
 total        electrons   265.01688297050543     
 total        electrons   265.01688297050543     
 total        electrons   265.01688297050543     
 total        electrons   265.01688297050543     
 total        electrons   265.01688297050543     
 total        electrons   265.01688297050543     
 total        electrons   265.01688297050543     
 total        electrons   265.01688297050543     
 total        electrons   265.01688297050543     
 total        electrons   265.01688297050543     
 total        electrons   265.01688297050543     
 total        electrons   265.01688297050543     
 total        electrons   265.01688297050543     
 total        electrons   265.01688297050543     
 total        electrons   265.01688297050543     
 total        electrons   265.01688297050543     
 total        electrons   265.01688297050543     
 total        electrons   265.01688297050543     
 total        electrons   265.01688297050543     
 total        electrons   265.01688297050543     
 total        electrons   265.01688297050543     
 total        electrons   265.01688297050543     
 total        electrons   265.01688297050543     
 total        electrons   265.01688297050543     
 total        electrons   265.01688297050543     
 total        electrons   265.01688297050543     
 total        electrons   265.01688297050543     
 total        electrons   265.01688297050543     
 total        electrons   265.01688297050543     
 total        electrons   265.01688297050543     
 total        electrons   265.01688297050543     
 total        electrons   265.01688297050543     
 total        electrons   265.01688297050543     
 total        electrons   265.01688297050543     
 total        electrons   265.01688297050543     
 total        electrons   265.01688297050543     
 total        electrons   265.01688297050543     
 total        electrons   265.01688297050543     
 total        electrons   265.01688297050543     
 augmentation electrons   853.25631657386850     
 soft         electrons   0.0000000000000000     
 augmentation electrons   853.25631657386850     
 soft         electrons   0.0000000000000000     
 augmentation electrons   853.25631657386850     
 soft         electrons   0.0000000000000000     
 augmentation electrons   853.25631657386850     
 soft         electrons   0.0000000000000000     
 augmentation electrons   853.25631657386850     
 soft         electrons   0.0000000000000000     
 augmentation electrons   853.25631657386850     
 soft         electrons   0.0000000000000000     
 augmentation electrons   853.25631657386850     
 soft         electrons   0.0000000000000000     
 augmentation electrons   853.25631657386850     
 soft         electrons   0.0000000000000000     
 augmentation electrons   853.25631657386850     
 augmentation electrons   853.25631657386850     
 soft         electrons   0.0000000000000000     
 augmentation electrons   853.25631657386850     
 soft         electrons   0.0000000000000000     
 augmentation electrons   853.25631657386850     
 soft         electrons   0.0000000000000000     
 augmentation electrons   853.25631657386850     
 soft         electrons   0.0000000000000000     
 augmentation electrons   853.25631657386850     
 soft         electrons   0.0000000000000000     
 augmentation electrons   853.25631657386850     
 soft         electrons   0.0000000000000000     
 augmentation electrons   853.25631657386850     
 soft         electrons   0.0000000000000000     
 augmentation electrons   853.25631657386850     
 soft         electrons   0.0000000000000000     
 augmentation electrons   853.25631657386850     
 soft         electrons   0.0000000000000000     
 augmentation electrons   853.25631657386850     
 soft         electrons   0.0000000000000000     
 augmentation electrons   853.25631657386850     
 soft         electrons   0.0000000000000000     
 augmentation electrons   853.25631657386850     
 soft         electrons   0.0000000000000000     
 augmentation electrons   853.25631657386850     
 soft         electrons   0.0000000000000000     
 augmentation electrons   853.25631657386850     
 soft         electrons   0.0000000000000000     
 augmentation electrons   853.25631657386850     
 soft         electrons   0.0000000000000000     
 augmentation electrons   853.25631657386850     
 soft         electrons   0.0000000000000000     
 augmentation electrons   853.25631657386850     
 soft         electrons   0.0000000000000000     
 augmentation electrons   853.25631657386850     
 soft         electrons   0.0000000000000000     
 augmentation electrons   853.25631657386850     
 soft         electrons   0.0000000000000000     
 augmentation electrons   853.25631657386850     
 soft         electrons   0.0000000000000000     
 augmentation electrons   853.25631657386850     
 soft         electrons   0.0000000000000000     
 augmentation electrons   853.25631657386850     
 soft         electrons   0.0000000000000000     
 augmentation electrons   853.25631657386850     
 soft         electrons   0.0000000000000000     
 augmentation electrons   853.25631657386850     
 soft         electrons   0.0000000000000000     
 augmentation electrons   853.25631657386850     
 soft         electrons   0.0000000000000000     
 augmentation electrons   853.25631657386850     
 soft         electrons   0.0000000000000000     
 augmentation electrons   853.25631657386850     
 soft         electrons   0.0000000000000000     
 augmentation electrons   853.25631657386850     
 soft         electrons   0.0000000000000000     
 augmentation electrons   853.25631657386850     
 soft         electrons   0.0000000000000000     
 augmentation electrons   853.25631657386850     
 soft         electrons   0.0000000000000000     
 augmentation electrons   853.25631657386850     
 soft         electrons   0.0000000000000000     
 augmentation electrons   853.25631657386850     
 soft         electrons   0.0000000000000000     
 augmentation electrons   853.25631657386850     
 soft         electrons   0.0000000000000000     
 augmentation electrons   853.25631657386850     
 soft         electrons   0.0000000000000000     
 augmentation electrons   853.25631657386850     
 soft         electrons   0.0000000000000000     
 augmentation electrons   853.25631657386850     
 soft         electrons   0.0000000000000000     
 augmentation electrons   853.25631657386850     
 soft         electrons   0.0000000000000000     
 augmentation electrons   853.25631657386850     
 soft         electrons   0.0000000000000000     
 augmentation electrons   853.25631657386850     
 soft         electrons   0.0000000000000000     
 augmentation electrons   853.25631657386850     
 soft         electrons   0.0000000000000000     
 augmentation electrons   853.25631657386850     
 soft         electrons   0.0000000000000000     
 augmentation electrons   853.25631657386850     
 soft         electrons   0.0000000000000000     
 augmentation electrons   853.25631657386850     
 soft         electrons   0.0000000000000000     
 augmentation electrons   853.25631657386850     
 soft         electrons   0.0000000000000000     
 augmentation electrons   853.25631657386850     
 soft         electrons   0.0000000000000000     
 augmentation electrons   853.25631657386850     
 soft         electrons   0.0000000000000000     
 augmentation electrons   853.25631657386850     
 soft         electrons   0.0000000000000000     
 augmentation electrons   853.25631657386850     
 soft         electrons   0.0000000000000000     
 augmentation electrons   853.25631657386850     
 soft         electrons   0.0000000000000000     
 augmentation electrons   853.25631657386850     
 soft         electrons   0.0000000000000000     
 augmentation electrons   853.25631657386850     
 soft         electrons   0.0000000000000000     
 augmentation electrons   853.25631657386850     
 soft         electrons   0.0000000000000000     
 augmentation electrons   853.25631657386850     
 soft         electrons   0.0000000000000000     
 augmentation electrons   853.25631657386850     
 soft         electrons   0.0000000000000000     
 augmentation electrons   853.25631657386850     
 soft         electrons   0.0000000000000000     
 augmentation electrons   853.25631657386850     
 soft         electrons   0.0000000000000000     
 augmentation electrons   853.25631657386850     
 soft         electrons   0.0000000000000000     
 augmentation electrons   853.25631657386850     
 soft         electrons   0.0000000000000000     
 augmentation electrons   853.25631657386850     
 soft         electrons   0.0000000000000000     
 augmentation electrons   853.25631657386850     
 soft         electrons   0.0000000000000000     
 augmentation electrons   853.25631657386850     
 soft         electrons   0.0000000000000000     
 augmentation electrons   853.25631657386850     
 soft         electrons   0.0000000000000000     
 soft         electrons   0.0000000000000000     
 total        electrons   853.25631657386850     
 total        electrons   853.25631657386850     
 total        electrons   853.25631657386850     
 total        electrons   853.25631657386850     
 total        electrons   853.25631657386850     
 total        electrons   853.25631657386850     
 total        electrons   853.25631657386850     
 total        electrons   853.25631657386850     
 total        electrons   853.25631657386850     
 total        electrons   853.25631657386850     
 total        electrons   853.25631657386850     
 total        electrons   853.25631657386850     
 total        electrons   853.25631657386850     
 total        electrons   853.25631657386850     
 total        electrons   853.25631657386850     
 total        electrons   853.25631657386850     
 total        electrons   853.25631657386850     
 total        electrons   853.25631657386850     
 total        electrons   853.25631657386850     
 total        electrons   853.25631657386850     
 total        electrons   853.25631657386850     
 total        electrons   853.25631657386850     
 total        electrons   853.25631657386850     
 total        electrons   853.25631657386850     
 total        electrons   853.25631657386850     
 total        electrons   853.25631657386850     
 total        electrons   853.25631657386850     
 total        electrons   853.25631657386850     
 total        electrons   853.25631657386850     
 total        electrons   853.25631657386850     
 total        electrons   853.25631657386850     
 total        electrons   853.25631657386850     
 total        electrons   853.25631657386850     
 total        electrons   853.25631657386850     
 total        electrons   853.25631657386850     
 total        electrons   853.25631657386850     
 total        electrons   853.25631657386850     
 total        electrons   853.25631657386850     
 total        electrons   853.25631657386850     
 total        electrons   853.25631657386850     
 total        electrons   853.25631657386850     
 total        electrons   853.25631657386850     
 total        electrons   853.25631657386850     
 total        electrons   853.25631657386850     
 total        electrons   853.25631657386850     
 total        electrons   853.25631657386850     
 total        electrons   853.25631657386850     
 total        electrons   853.25631657386850     
 total        electrons   853.25631657386850     
 augmentation electrons   853.25631657386850     
 soft         electrons   0.0000000000000000     
 total        electrons   853.25631657386850     
 total        electrons   853.25631657386850     
 total        electrons   853.25631657386850     
 total        electrons   853.25631657386850     
 total        electrons   853.25631657386850     
 total        electrons   853.25631657386850     
 total        electrons   853.25631657386850     
 total        electrons   853.25631657386850     
 total        electrons   853.25631657386850     
 total        electrons   853.25631657386850     
 total        electrons   853.25631657386850     
 total        electrons   853.25631657386850     
 total        electrons   853.25631657386850     
 total        electrons   853.25631657386850     
 total        electrons   853.25631657386850     
 total        electrons   853.25631657386850     
 total        electrons   853.25631657386850     
 total        electrons   853.25631657386850     
 total        electrons   853.25631657386850     
 total        electrons   853.25631657386850     
 total        electrons   853.25631657386850     
 total        electrons   853.25631657386850     
 total        electrons   853.25631657386850     
 entering main loop
       N       E                     dE             d eps       ncg     rms          rms(c)
DAV:   1     0.231844397372E+04    0.23184E+04   -0.95058E+04  7728   0.128E+03
DAV:   2    -0.183277111148E+03   -0.25017E+04   -0.23319E+04  8896   0.311E+02
DAV:   3    -0.616522129141E+03   -0.43325E+03   -0.41512E+03 10976   0.151E+02
DAV:   4    -0.652956007265E+03   -0.36434E+02   -0.35131E+02 12432   0.489E+01
DAV:   5    -0.655100107208E+03   -0.21441E+01   -0.20770E+01 13136   0.117E+01    0.135E+02
RMM:   6    -0.605576667117E+03    0.49523E+02   -0.12298E+03 11060   0.948E+01    0.660E+01
RMM:   7    -0.679272353517E+03   -0.73696E+02   -0.42072E+02 10131   0.624E+01    0.507E+01
RMM:   8    -0.577434284665E+03    0.10184E+03   -0.11692E+02 10226   0.258E+01    0.322E+01
RMM:   9    -0.561854224415E+03    0.15580E+02   -0.36318E+01  8988   0.189E+01    0.245E+01
RMM:  10    -0.550834374807E+03    0.11020E+02   -0.30170E+01  9082   0.143E+01    0.175E+01
RMM:  11    -0.549857440093E+03    0.97693E+00   -0.51909E+00  8290   0.799E+00    0.152E+01
RMM:  12    -0.549918881205E+03   -0.61441E-01   -0.33110E+00 10570   0.289E+00    0.136E+01
RMM:  13    -0.549570880807E+03    0.34800E+00   -0.66461E-01  8283   0.236E+00    0.121E+01
RMM:  14    -0.549275229476E+03    0.29565E+00   -0.26547E+00  8614   0.508E+00    0.857E+00
RMM:  15    -0.548963090404E+03    0.31214E+00   -0.22126E+00  8372   0.468E+00    0.482E+00
RMM:  16    -0.548747522337E+03    0.21557E+00   -0.89351E-01  8630   0.273E+00    0.308E+00
RMM:  17    -0.548690355771E+03    0.57167E-01   -0.64953E-01  9932   0.180E+00    0.182E+00
RMM:  18    -0.548686187570E+03    0.41682E-02   -0.32289E-01 10337   0.127E+00    0.151E+00
RMM:  19    -0.548674339227E+03    0.11848E-01   -0.11696E-01  8698   0.973E-01    0.110E+00
RMM:  20    -0.548664207522E+03    0.10132E-01   -0.73243E-02  8583   0.749E-01    0.801E-01
RMM:  21    -0.548658135001E+03    0.60725E-02   -0.28232E-02  8789   0.492E-01    0.448E-01
RMM:  22    -0.548657873633E+03    0.26137E-03   -0.16546E-02  8661   0.321E-01    0.337E-01
RMM:  23    -0.548658143255E+03   -0.26962E-03   -0.60716E-03 10191   0.154E-01    0.155E-01
RMM:  24    -0.548659158351E+03   -0.10151E-02   -0.26392E-03 10531   0.818E-02    0.110E-01
RMM:  25    -0.548660459360E+03   -0.13010E-02   -0.14918E-03 10365   0.688E-02    0.130E-01
RMM:  26    -0.548661113431E+03   -0.65407E-03   -0.86335E-04 10239   0.654E-02    0.494E-02
RMM:  27    -0.548661775537E+03   -0.66211E-03   -0.37315E-04 10716   0.252E-02    0.395E-02
RMM:  28    -0.548662710541E+03   -0.93500E-03   -0.19816E-04  8999   0.281E-02    0.261E-02
RMM:  29    -0.548663203520E+03   -0.49298E-03   -0.16256E-04  9891   0.245E-02    0.245E-02
RMM:  30    -0.548663306062E+03   -0.10254E-03   -0.63160E-05  8711   0.119E-02    0.143E-02
RMM:  31    -0.548663389082E+03   -0.83020E-04   -0.22810E-05  7498   0.804E-03    0.125E-02
RMM:  32    -0.548663472125E+03   -0.83043E-04   -0.14558E-05  7020   0.699E-03    0.791E-03
RMM:  33    -0.548663578359E+03   -0.10623E-03   -0.17478E-05  7270   0.805E-03    0.824E-03
RMM:  34    -0.548663714022E+03   -0.13566E-03   -0.78300E-06  5814   0.698E-03    0.621E-03
RMM:  35    -0.548663822332E+03   -0.10831E-03   -0.96079E-06  6328   0.835E-03    0.120E-02
RMM:  36    -0.548663863903E+03   -0.41570E-04   -0.42360E-06  5588   0.730E-03    0.284E-03
RMM:  37    -0.548663901450E+03   -0.37548E-04   -0.38762E-06  5608   0.556E-03    0.780E-03
RMM:  38    -0.548663927638E+03   -0.26188E-04   -0.32763E-06  5541   0.508E-03    0.194E-03
RMM:  39    -0.548663939456E+03   -0.11818E-04   -0.13720E-06  4948   0.248E-03    0.159E-03
RMM:  40    -0.548663941819E+03   -0.23628E-05   -0.38254E-07  4397   0.249E-03    0.109E-03
RMM:  41    -0.548663944791E+03   -0.29724E-05   -0.23762E-07  3576   0.134E-03    0.713E-04
RMM:  42    -0.548663947047E+03   -0.22557E-05   -0.17142E-07  3446   0.125E-03    0.245E-04
RMM:  43    -0.548663948223E+03   -0.11758E-05   -0.12931E-07  2924   0.100E-03    0.230E-04
RMM:  44    -0.548663948590E+03   -0.36696E-06   -0.65809E-08  2638   0.904E-04
   1 F= -.54866395E+03 E0= -.54865259E+03  d E =-.548664E+03
 curvature:   0.00 expect dE= 0.000E+00 dE for cont linesearch  0.000E+00
 trial: gam= 0.00000 g(F)=  0.655E-01 g(S)=  0.000E+00 ort = 0.000E+00 (trialstep = 0.100E+01)
 search vector abs. value=  0.655E-01
 bond charge predicted
       N       E                     dE             d eps       ncg     rms          rms(c)
DAV:   1    -0.548723963827E+03   -0.60016E-01   -0.10590E+00  8608   0.213E+00    0.340E-01
RMM:   2    -0.548726116018E+03   -0.21522E-02   -0.18639E-02  8777   0.446E-01    0.444E-01
RMM:   3    -0.548725814986E+03    0.30103E-03   -0.63223E-03  9205   0.262E-01    0.347E-01
RMM:   4    -0.548728642310E+03   -0.28273E-02   -0.65817E-03 10551   0.159E-01    0.489E-01
RMM:   5    -0.548724638664E+03    0.40036E-02   -0.40229E-03  8562   0.204E-01    0.177E-01
RMM:   6    -0.548724422670E+03    0.21599E-03   -0.19232E-03  9588   0.117E-01    0.964E-02
RMM:   7    -0.548724344830E+03    0.77840E-04   -0.61700E-04  9326   0.650E-02    0.624E-02
RMM:   8    -0.548724306626E+03    0.38205E-04   -0.23523E-04  8940   0.401E-02    0.349E-02
RMM:   9    -0.548724297388E+03    0.92378E-05   -0.89950E-05  9849   0.218E-02    0.176E-02
RMM:  10    -0.548724295400E+03    0.19882E-05   -0.31001E-05  8472   0.140E-02    0.124E-02
RMM:  11    -0.548724294250E+03    0.11497E-05   -0.10917E-05  6444   0.984E-03    0.800E-03
RMM:  12    -0.548724294094E+03    0.15588E-06   -0.37809E-06  5530   0.612E-03
   2 F= -.54872429E+03 E0= -.54871299E+03  d E =-.603455E-01
 ZBRENT: can't locate minimum, use default step
 trial-energy change:   -0.060346  1 .order   -0.060318   -0.065526   -0.055110
 step:   4.0000(harm=  6.2910)  dis= 0.20313  next Energy=  -548.870062 (dE=-0.206E+00)
 bond charge predicted
       N       E                     dE             d eps       ncg     rms          rms(c)
DAV:   1    -0.548842235894E+03   -0.11794E+00   -0.92999E+00  8144   0.627E+00    0.998E-01
RMM:   2    -0.548857633261E+03   -0.15397E-01   -0.15263E-01  8509   0.133E+00    0.127E+00
RMM:   3    -0.548857124554E+03    0.50871E-03   -0.51328E-02  9132   0.772E-01    0.106E+00
RMM:   4    -0.548880244383E+03   -0.23120E-01   -0.55332E-02 10501   0.469E-01    0.145E+00
RMM:   5    -0.548845381547E+03    0.34863E-01   -0.32549E-02  8573   0.578E-01    0.497E-01
RMM:   6    -0.548843773295E+03    0.16083E-02   -0.16186E-02  9598   0.338E-01    0.283E-01
RMM:   7    -0.548843143046E+03    0.63025E-03   -0.53529E-03  9240   0.193E-01    0.189E-01
RMM:   8    -0.548842791430E+03    0.35162E-03   -0.20544E-03  8852   0.121E-01    0.104E-01
RMM:   9    -0.548842715092E+03    0.76338E-04   -0.81774E-04 10017   0.661E-02    0.542E-02
RMM:  10    -0.548842694930E+03    0.20162E-04   -0.27089E-04  9790   0.410E-02    0.365E-02
RMM:  11    -0.548842686454E+03    0.84759E-05   -0.97235E-05  8323   0.282E-02    0.227E-02
RMM:  12    -0.548842686785E+03   -0.33037E-06   -0.41684E-05  8741   0.145E-02    0.133E-02
RMM:  13    -0.548842690201E+03   -0.34162E-05   -0.17632E-05  8190   0.781E-03    0.666E-03
RMM:  14    -0.548842694747E+03   -0.45461E-05   -0.69628E-06  6033   0.808E-03    0.920E-03
RMM:  15    -0.548842696074E+03   -0.13268E-05   -0.21899E-06  5036   0.690E-03    0.271E-03
RMM:  16    -0.548842699054E+03   -0.29801E-05   -0.11314E-06  4865   0.306E-03    0.288E-03
RMM:  17    -0.548842701987E+03   -0.29337E-05   -0.94572E-07  4607   0.403E-03    0.214E-03
RMM:  18    -0.548842706670E+03   -0.46824E-05   -0.83228E-07  4561   0.245E-03    0.172E-03
RMM:  19    -0.548842711585E+03   -0.49149E-05   -0.63556E-07  4532   0.255E-03    0.120E-03
RMM:  20    -0.548842714767E+03   -0.31819E-05   -0.43718E-07  4080   0.155E-03    0.694E-04
RMM:  21    -0.548842718038E+03   -0.32713E-05   -0.37830E-07  4104   0.173E-03    0.857E-04
RMM:  22    -0.548842721790E+03   -0.37516E-05   -0.47053E-07  4319   0.150E-03    0.565E-04
RMM:  23    -0.548842724427E+03   -0.26376E-05   -0.39690E-07  4050   0.143E-03    0.468E-04
RMM:  24    -0.548842725598E+03   -0.11706E-05   -0.23038E-07  3014   0.117E-03    0.279E-04
RMM:  25    -0.548842726349E+03   -0.75151E-06   -0.15723E-07  2914   0.101E-03
   3 F= -.54884273E+03 E0= -.54883154E+03  d E =-.178778E+00
 curvature:  -2.56 expect dE=-0.343E-01 dE for cont linesearch -0.233E-01
 ZBRENT: increasing intervall
 opt :  10.0000  next Energy=  -548.805671 (dE=-0.142E+00)
 bond charge predicted
       N       E                     dE             d eps       ncg     rms          rms(c)
DAV:   1    -0.548852137374E+03   -0.94118E-02   -0.33003E+01  7800   0.116E+01    0.177E+00
RMM:   2    -0.548896750023E+03   -0.44613E-01   -0.52569E-01  8441   0.251E+00    0.204E+00
RMM:   3    -0.548919039039E+03   -0.22289E-01   -0.17279E-01  9178   0.139E+00    0.211E+00
RMM:   4    -0.548972628130E+03   -0.53589E-01   -0.16702E-01 10399   0.853E-01    0.261E+00
RMM:   5    -0.548866961000E+03    0.10567E+00   -0.89356E-02  8478   0.962E-01    0.721E-01
RMM:   6    -0.548865806003E+03    0.11550E-02   -0.48484E-02  9757   0.551E-01    0.507E-01
RMM:   7    -0.548863458590E+03    0.23474E-02   -0.14586E-02  8833   0.332E-01    0.311E-01
RMM:   8    -0.548862609178E+03    0.84941E-03   -0.59891E-03  8814   0.200E-01    0.174E-01
RMM:   9    -0.548862439551E+03    0.16963E-03   -0.23703E-03  9995   0.111E-01    0.959E-02
RMM:  10    -0.548862372749E+03    0.66802E-04   -0.76150E-04  9800   0.671E-02    0.600E-02
RMM:  11    -0.548862359177E+03    0.13572E-04   -0.29070E-04  8458   0.467E-02    0.420E-02
RMM:  12    -0.548862357617E+03    0.15604E-05   -0.12395E-04  9615   0.262E-02    0.240E-02
RMM:  13    -0.548862366091E+03   -0.84737E-05   -0.66954E-05 10343   0.141E-02    0.117E-02
RMM:  14    -0.548862376302E+03   -0.10211E-04   -0.20850E-05  7887   0.114E-02    0.128E-02
RMM:  15    -0.548862378570E+03   -0.22686E-05   -0.60239E-06  5837   0.889E-03    0.498E-03
RMM:  16    -0.548862386665E+03   -0.80944E-05   -0.46245E-06  6013   0.460E-03    0.502E-03
RMM:  17    -0.548862394089E+03   -0.74243E-05   -0.22084E-06  5095   0.570E-03    0.447E-03
RMM:  18    -0.548862403227E+03   -0.91378E-05   -0.14457E-06  4707   0.430E-03    0.260E-03
RMM:  19    -0.548862413859E+03   -0.10632E-04   -0.11275E-06  4762   0.299E-03    0.188E-03
RMM:  20    -0.548862420602E+03   -0.67426E-05   -0.65473E-07  4542   0.225E-03    0.117E-03
RMM:  21    -0.548862430066E+03   -0.94646E-05   -0.87805E-07  4598   0.191E-03    0.110E-03
RMM:  22    -0.548862439950E+03   -0.98838E-05   -0.11384E-06  4794   0.216E-03    0.100E-03
RMM:  23    -0.548862444550E+03   -0.45994E-05   -0.64356E-07  4432   0.184E-03    0.609E-04
RMM:  24    -0.548862446698E+03   -0.21483E-05   -0.34188E-07  3508   0.146E-03    0.496E-04
RMM:  25    -0.548862449177E+03   -0.24790E-05   -0.26464E-07  3569   0.125E-03    0.379E-04
RMM:  26    -0.548862451830E+03   -0.26532E-05   -0.25436E-07  3544   0.126E-03    0.379E-04
RMM:  27    -0.548862453094E+03   -0.12644E-05   -0.16428E-07  2970   0.105E-03    0.178E-04
RMM:  28    -0.548862453824E+03   -0.72939E-06   -0.10874E-07  2332   0.836E-04
   4 F= -.54886245E+03 E0= -.54885126E+03  d E =-.198505E+00
 curvature:   4.06 expect dE= 0.138E+00 dE for cont linesearch  0.744E-02
 ZBRENT: bracketing found
 ZBRENT: interpolating
 opt :   8.1435  next Energy=  -548.872630 (dE=-0.209E+00)
 bond charge predicted
       N       E                     dE             d eps       ncg     rms          rms(c)
DAV:   1    -0.548875350203E+03   -0.12897E-01   -0.36487E+00  7896   0.393E+00    0.527E-01
RMM:   2    -0.548879234771E+03   -0.38846E-02   -0.43905E-02  8650   0.718E-01    0.549E-01
RMM:   3    -0.548883234870E+03   -0.40001E-02   -0.17061E-02  9159   0.435E-01    0.699E-01
RMM:   4    -0.548885149090E+03   -0.19142E-02   -0.11976E-02 10078   0.254E-01    0.686E-01
RMM:   5    -0.548877404473E+03    0.77446E-02   -0.66105E-03  8340   0.272E-01    0.185E-01
RMM:   6    -0.548877420811E+03   -0.16339E-04   -0.33770E-03  9767   0.144E-01    0.144E-01
RMM:   7    -0.548877196742E+03    0.22407E-03   -0.95507E-04  8415   0.948E-02    0.751E-02
RMM:   8    -0.548877155621E+03    0.41120E-04   -0.43745E-04  9182   0.490E-02    0.431E-02
RMM:   9    -0.548877144340E+03    0.11281E-04   -0.13570E-04  9369   0.288E-02    0.221E-02
RMM:  10    -0.548877147080E+03   -0.27397E-05   -0.59608E-05  9645   0.164E-02    0.156E-02
RMM:  11    -0.548877148598E+03   -0.15188E-05   -0.19739E-05  7129   0.121E-02    0.128E-02
RMM:  12    -0.548877149576E+03   -0.97713E-06   -0.72175E-06  6012   0.847E-03
   5 F= -.54887715E+03 E0= -.54886599E+03  d E =-.213201E+00
 curvature:  -5.55 expect dE=-0.152E+00 dE for cont linesearch -0.159E-02
 trial: gam= 0.48404 g(F)=  0.274E-01 g(S)=  0.000E+00 ort =-0.433E-02 (trialstep = 0.243E+01)
 search vector abs. value=  0.386E-01
 bond charge predicted
       N       E                     dE             d eps       ncg     rms          rms(c)
DAV:   1    -0.548873121000E+03    0.40276E-02   -0.37546E+00  7736   0.394E+00    0.598E-01
RMM:   2    -0.548874606739E+03   -0.14857E-02   -0.63135E-02  9190   0.712E-01    0.495E-01
RMM:   3    -0.548889023871E+03   -0.14417E-01   -0.24449E-02  9234   0.502E-01    0.106E+00
RMM:   4    -0.548875326452E+03    0.13697E-01   -0.13656E-02  9401   0.312E-01    0.493E-01
RMM:   5    -0.548872662148E+03    0.26643E-02   -0.43037E-03  8125   0.238E-01    0.161E-01
RMM:   6    -0.548872632296E+03    0.29852E-04   -0.27381E-03 10276   0.104E-01    0.141E-01
RMM:   7    -0.548872313447E+03    0.31885E-03   -0.86480E-04  9398   0.833E-02    0.700E-02
RMM:   8    -0.548872296800E+03    0.16647E-04   -0.42466E-04  9671   0.534E-02    0.565E-02
RMM:   9    -0.548872273949E+03    0.22852E-04   -0.14152E-04  8245   0.379E-02    0.328E-02
RMM:  10    -0.548872264977E+03    0.89719E-05   -0.59626E-05  8366   0.232E-02    0.164E-02
RMM:  11    -0.548872267248E+03   -0.22714E-05   -0.33441E-05  8327   0.136E-02    0.154E-02
RMM:  12    -0.548872266208E+03    0.10399E-05   -0.14037E-05  6567   0.127E-02    0.103E-02
RMM:  13    -0.548872265936E+03    0.27231E-06   -0.57648E-06  5855   0.661E-03
   6 F= -.54887227E+03 E0= -.54886091E+03  d E =0.488364E-02
 trial-energy change:    0.004884  1 .order    0.001797   -0.061430    0.065023
 step:   1.0918(harm=  1.1798)  dis= 0.04667  next Energy=  -548.890677 (dE=-0.135E-01)
 bond charge predicted
       N       E                     dE             d eps       ncg     rms          rms(c)
DAV:   1    -0.548891027166E+03   -0.18761E-01   -0.11619E+00  7800   0.217E+00    0.330E-01
RMM:   2    -0.548891244593E+03   -0.21743E-03   -0.17817E-02  9096   0.373E-01    0.258E-01
RMM:   3    -0.548896492588E+03   -0.52480E-02   -0.82381E-03  9064   0.293E-01    0.629E-01
RMM:   4    -0.548891311271E+03    0.51813E-02   -0.36854E-03  9225   0.178E-01    0.228E-01
RMM:   5    -0.548890778284E+03    0.53299E-03   -0.11506E-03  8192   0.121E-01    0.917E-02
RMM:   6    -0.548890753952E+03    0.24333E-04   -0.70669E-04 10348   0.532E-02    0.716E-02
RMM:   7    -0.548890679961E+03    0.73991E-04   -0.22388E-04  9233   0.436E-02    0.368E-02
RMM:   8    -0.548890673557E+03    0.64035E-05   -0.11628E-04  9791   0.273E-02    0.276E-02
RMM:   9    -0.548890669290E+03    0.42677E-05   -0.35709E-05  7961   0.183E-02    0.172E-02
RMM:  10    -0.548890667486E+03    0.18038E-05   -0.14822E-05  6761   0.129E-02    0.102E-02
RMM:  11    -0.548890667970E+03   -0.48429E-06   -0.90766E-06  6308   0.875E-03
   7 F= -.54889067E+03 E0= -.54887942E+03  d E =-.135184E-01
 curvature:  -0.89 expect dE=-0.437E-03 dE for cont linesearch -0.141E-07
 trial: gam=-0.06658 g(F)=  0.488E-03 g(S)=  0.000E+00 ort = 0.247E-04 (trialstep = 0.216E+01)
 search vector abs. value=  0.656E-03
 bond charge predicted
       N       E                     dE             d eps       ncg     rms          rms(c)
DAV:   1    -0.548891559650E+03   -0.89216E-03   -0.48953E-02  8096   0.455E-01    0.599E-02
RMM:   2    -0.548891625746E+03   -0.66096E-04   -0.69275E-04  8076   0.103E-01    0.687E-02
RMM:   3    -0.548891660118E+03   -0.34372E-04   -0.23609E-04  9341   0.506E-02    0.738E-02
RMM:   4    -0.548891676292E+03   -0.16174E-04   -0.15061E-04  9812   0.295E-02    0.727E-02
RMM:   5    -0.548891600451E+03    0.75842E-04   -0.92546E-05  8251   0.323E-02    0.291E-02
RMM:   6    -0.548891602746E+03   -0.22949E-05   -0.63169E-05  8606   0.236E-02    0.265E-02
RMM:   7    -0.548891593689E+03    0.90567E-05   -0.17981E-05  6855   0.156E-02    0.811E-03
RMM:   8    -0.548891593611E+03    0.77815E-07   -0.76177E-06  6049   0.711E-03
   8 F= -.54889159E+03 E0= -.54888034E+03  d E =-.925641E-03
 trial-energy change:   -0.000926  1 .order   -0.000920   -0.001052   -0.000789
 step:   6.8433(harm=  8.6510)  dis= 0.00000  next Energy=  -548.892502 (dE=-0.183E-02)
 bond charge predicted
       N       E                     dE             d eps       ncg     rms          rms(c)
DAV:   1    -0.548892585172E+03   -0.99148E-03   -0.23029E-01  7760   0.983E-01    0.130E-01
RMM:   2    -0.548892840840E+03   -0.25567E-03   -0.28450E-03  8368   0.193E-01    0.144E-01
RMM:   3    -0.548893010187E+03   -0.16935E-03   -0.10176E-03  9288   0.106E-01    0.161E-01
RMM:   4    -0.548893172630E+03   -0.16244E-03   -0.80821E-04 10260   0.622E-02    0.170E-01
RMM:   5    -0.548892712024E+03    0.46061E-03   -0.47646E-04  8365   0.713E-02    0.569E-02
RMM:   6    -0.548892704468E+03    0.75565E-05   -0.25713E-04  9645   0.412E-02    0.404E-02
RMM:   7    -0.548892687846E+03    0.16622E-04   -0.74120E-05  8405   0.266E-02    0.222E-02
RMM:   8    -0.548892683686E+03    0.41604E-05   -0.33818E-05  8041   0.143E-02    0.123E-02
RMM:   9    -0.548892682609E+03    0.10769E-05   -0.10391E-05  6561   0.859E-03    0.638E-03
RMM:  10    -0.548892682791E+03   -0.18226E-06   -0.36531E-06  5461   0.580E-03
   9 F= -.54889268E+03 E0= -.54888144E+03  d E =-.201482E-02
 curvature:  -5.38 expect dE=-0.713E-04 dE for cont linesearch -0.695E-04
 trial: gam=-0.12623 g(F)=  0.133E-04 g(S)=  0.000E+00 ort = 0.920E-04 (trialstep = 0.310E+01)
 search vector abs. value=  0.473E-06
 reached required accuracy - stopping structural energy minimisation
 augmentation electrons   27.587647571058319     
 soft         electrons   237.48779788786700     
 augmentation electrons   27.587647571058319     
 soft         electrons   237.48779788786700     
 augmentation electrons   27.587647571058319     
 soft         electrons   237.48779788786700     
 augmentation electrons   27.587647571058319     
 soft         electrons   237.48779788786700     
 augmentation electrons   27.587647571058319     
 soft         electrons   237.48779788786700     
 augmentation electrons   27.587647571058319     
 soft         electrons   237.48779788786700     
 augmentation electrons   27.587647571058319     
 soft         electrons   237.48779788786700     
 augmentation electrons   27.587647571058319     
 soft         electrons   237.48779788786700     
 augmentation electrons   27.587647571058319     
 soft         electrons   237.48779788786700     
 augmentation electrons   27.587647571058319     
 soft         electrons   237.48779788786700     
 augmentation electrons   27.587647571058319     
 soft         electrons   237.48779788786700     
 augmentation electrons   27.587647571058319     
 soft         electrons   237.48779788786700     
 augmentation electrons   27.587647571058319     
 soft         electrons   237.48779788786700     
 augmentation electrons   27.587647571058319     
 soft         electrons   237.48779788786700     
 augmentation electrons   27.587647571058319     
 soft         electrons   237.48779788786700     
 augmentation electrons   27.587647571058319     
 soft         electrons   237.48779788786700     
 augmentation electrons   27.587647571058319     
 soft         electrons   237.48779788786700     
 augmentation electrons   27.587647571058319     
 soft         electrons   237.48779788786700     
 augmentation electrons   27.587647571058319     
 soft         electrons   237.48779788786700     
 augmentation electrons   27.587647571058319     
 soft         electrons   237.48779788786700     
 augmentation electrons   27.587647571058319     
 soft         electrons   237.48779788786700     
 augmentation electrons   27.587647571058319     
 soft         electrons   237.48779788786700     
 augmentation electrons   27.587647571058319     
 soft         electrons   237.48779788786700     
 augmentation electrons   27.587647571058319     
 soft         electrons   237.48779788786700     
 augmentation electrons   27.587647571058319     
 soft         electrons   237.48779788786700     
 augmentation electrons   27.587647571058319     
 soft         electrons   237.48779788786700     
 augmentation electrons   27.587647571058319     
 soft         electrons   237.48779788786700     
 augmentation electrons   27.587647571058319     
 soft         electrons   237.48779788786700     
 augmentation electrons   27.587647571058319     
 soft         electrons   237.48779788786700     
 augmentation electrons   27.587647571058319     
 soft         electrons   237.48779788786700     
 augmentation electrons   27.587647571058319     
 soft         electrons   237.48779788786700     
 augmentation electrons   27.587647571058319     
 soft         electrons   237.48779788786700     
 augmentation electrons   27.587647571058319     
 soft         electrons   237.48779788786700     
 augmentation electrons   27.587647571058319     
 soft         electrons   237.48779788786700     
 augmentation electrons   27.587647571058319     
 soft         electrons   237.48779788786700     
 augmentation electrons   27.587647571058319     
 soft         electrons   237.48779788786700     
 augmentation electrons   27.587647571058319     
 soft         electrons   237.48779788786700     
 augmentation electrons   27.587647571058319     
 soft         electrons   237.48779788786700     
 augmentation electrons   27.587647571058319     
 soft         electrons   237.48779788786700     
 augmentation electrons   27.587647571058319     
 soft         electrons   237.48779788786700     
 augmentation electrons   27.587647571058319     
 soft         electrons   237.48779788786700     
 augmentation electrons   27.587647571058319     
 soft         electrons   237.48779788786700     
 augmentation electrons   27.587647571058319     
 soft         electrons   237.48779788786700     
 augmentation electrons   27.587647571058319     
 soft         electrons   237.48779788786700     
 augmentation electrons   27.587647571058319     
 soft         electrons   237.48779788786700     
 augmentation electrons   27.587647571058319     
 soft         electrons   237.48779788786700     
 augmentation electrons   27.587647571058319     
 soft         electrons   237.48779788786700     
 augmentation electrons   27.587647571058319     
 soft         electrons   237.48779788786700     
 augmentation electrons   27.587647571058319     
 soft         electrons   237.48779788786700     
 augmentation electrons   27.587647571058319     
 soft         electrons   237.48779788786700     
 augmentation electrons   27.587647571058319     
 soft         electrons   237.48779788786700     
 augmentation electrons   27.587647571058319     
 soft         electrons   237.48779788786700     
 augmentation electrons   27.587647571058319     
 soft         electrons   237.48779788786700     
 augmentation electrons   27.587647571058319     
 soft         electrons   237.48779788786700     
 augmentation electrons   27.587647571058319     
 soft         electrons   237.48779788786700     
 augmentation electrons   27.587647571058319     
 soft         electrons   237.48779788786700     
 augmentation electrons   27.587647571058319     
 soft         electrons   237.48779788786700     
 augmentation electrons   27.587647571058319     
 soft         electrons   237.48779788786700     
 augmentation electrons   27.587647571058319     
 soft         electrons   237.48779788786700     
 augmentation electrons   27.587647571058319     
 augmentation electrons   27.587647571058319     
 soft         electrons   237.48779788786700     
 augmentation electrons   27.587647571058319     
 soft         electrons   237.48779788786700     
 augmentation electrons   27.587647571058319     
 soft         electrons   237.48779788786700     
 augmentation electrons   27.587647571058319     
 soft         electrons   237.48779788786700     
 augmentation electrons   27.587647571058319     
 soft         electrons   237.48779788786700     
 augmentation electrons   27.587647571058319     
 soft         electrons   237.48779788786700     
 augmentation electrons   27.587647571058319     
 soft         electrons   237.48779788786700     
 augmentation electrons   27.587647571058319     
 soft         electrons   237.48779788786700     
 augmentation electrons   27.587647571058319     
 soft         electrons   237.48779788786700     
 augmentation electrons   27.587647571058319     
 soft         electrons   237.48779788786700     
 augmentation electrons   27.587647571058319     
 soft         electrons   237.48779788786700     
 augmentation electrons   27.587647571058319     
 soft         electrons   237.48779788786700     
 soft         electrons   237.48779788786700     
 total        electrons   265.07544545892534     
 total        electrons   265.07544545892534     
 total        electrons   265.07544545892534     
 total        electrons   265.07544545892534     
 total        electrons   265.07544545892534     
 total        electrons   265.07544545892534     
 total        electrons   265.07544545892534     
 total        electrons   265.07544545892534     
 total        electrons   265.07544545892534     
 total        electrons   265.07544545892534     
 total        electrons   265.07544545892534     
 total        electrons   265.07544545892534     
 total        electrons   265.07544545892534     
 total        electrons   265.07544545892534     
 total        electrons   265.07544545892534     
 total        electrons   265.07544545892534     
 total        electrons   265.07544545892534     
 total        electrons   265.07544545892534     
 total        electrons   265.07544545892534     
 total        electrons   265.07544545892534     
 total        electrons   265.07544545892534     
 total        electrons   265.07544545892534     
 total        electrons   265.07544545892534     
 total        electrons   265.07544545892534     
 total        electrons   265.07544545892534     
 total        electrons   265.07544545892534     
 total        electrons   265.07544545892534     
 total        electrons   265.07544545892534     
 total        electrons   265.07544545892534     
 total        electrons   265.07544545892534     
 total        electrons   265.07544545892534     
 total        electrons   265.07544545892534     
 total        electrons   265.07544545892534     
 total        electrons   265.07544545892534     
 total        electrons   265.07544545892534     
 total        electrons   265.07544545892534     
 total        electrons   265.07544545892534     
 total        electrons   265.07544545892534     
 total        electrons   265.07544545892534     
 total        electrons   265.07544545892534     
 total        electrons   265.07544545892534     
 total        electrons   265.07544545892534     
 total        electrons   265.07544545892534     
 total        electrons   265.07544545892534     
 total        electrons   265.07544545892534     
 total        electrons   265.07544545892534     
 total        electrons   265.07544545892534     
 total        electrons   265.07544545892534     
 total        electrons   265.07544545892534     
 total        electrons   265.07544545892534     
 total        electrons   265.07544545892534     
 total        electrons   265.07544545892534     
 total        electrons   265.07544545892534     
 total        electrons   265.07544545892534     
 total        electrons   265.07544545892534     
 total        electrons   265.07544545892534     
 total        electrons   265.07544545892534     
 total        electrons   265.07544545892534     
 total        electrons   265.07544545892534     
 total        electrons   265.07544545892534     
 total        electrons   265.07544545892534     
 total        electrons   265.07544545892534     
 total        electrons   265.07544545892534     
 total        electrons   265.07544545892534     
 total        electrons   265.07544545892534     
 total        electrons   265.07544545892534     
 total        electrons   265.07544545892534     
 total        electrons   265.07544545892534     
 total        electrons   265.07544545892534     
 total        electrons   265.07544545892534     
 total        electrons   265.07544545892534     
 total        electrons   265.07544545892534     
Note: The following floating-point exceptions are signalling: IEEE_OVERFLOW_FLAG
Note: The following floating-point exceptions are signalling: IEEE_OVERFLOW_FLAG
Note: The following floating-point exceptions are signalling: IEEE_OVERFLOW_FLAG
Note: The following floating-point exceptions are signalling: IEEE_OVERFLOW_FLAG
Note: The following floating-point exceptions are signalling: IEEE_OVERFLOW_FLAG
Note: The following floating-point exceptions are signalling: IEEE_OVERFLOW_FLAG
Note: The following floating-point exceptions are signalling: IEEE_OVERFLOW_FLAG
Note: The following floating-point exceptions are signalling: IEEE_OVERFLOW_FLAG
Note: The following floating-point exceptions are signalling: IEEE_OVERFLOW_FLAG
Note: The following floating-point exceptions are signalling: IEEE_OVERFLOW_FLAG
Note: The following floating-point exceptions are signalling: IEEE_OVERFLOW_FLAG
Note: The following floating-point exceptions are signalling: IEEE_OVERFLOW_FLAG
Note: The following floating-point exceptions are signalling: IEEE_OVERFLOW_FLAG
Note: The following floating-point exceptions are signalling: IEEE_OVERFLOW_FLAG
Note: The following floating-point exceptions are signalling: IEEE_OVERFLOW_FLAG
Note: The following floating-point exceptions are signalling: IEEE_OVERFLOW_FLAG
Note: The following floating-point exceptions are signalling: IEEE_OVERFLOW_FLAG
Note: The following floating-point exceptions are signalling: IEEE_OVERFLOW_FLAG
Note: The following floating-point exceptions are signalling: IEEE_OVERFLOW_FLAG
Note: The following floating-point exceptions are signalling: IEEE_OVERFLOW_FLAG
Note: The following floating-point exceptions are signalling: IEEE_OVERFLOW_FLAG
Note: The following floating-point exceptions are signalling: IEEE_OVERFLOW_FLAG
Note: The following floating-point exceptions are signalling: IEEE_OVERFLOW_FLAG
Note: The following floating-point exceptions are signalling: IEEE_OVERFLOW_FLAG
Note: The following floating-point exceptions are signalling: IEEE_OVERFLOW_FLAG
Note: The following floating-point exceptions are signalling: IEEE_OVERFLOW_FLAG
Note: The following floating-point exceptions are signalling: IEEE_OVERFLOW_FLAG
Note: The following floating-point exceptions are signalling: IEEE_OVERFLOW_FLAG
Note: The following floating-point exceptions are signalling: IEEE_OVERFLOW_FLAG
Note: The following floating-point exceptions are signalling: IEEE_OVERFLOW_FLAG
Note: The following floating-point exceptions are signalling: IEEE_OVERFLOW_FLAG
Note: The following floating-point exceptions are signalling: IEEE_OVERFLOW_FLAG
Note: The following floating-point exceptions are signalling: IEEE_OVERFLOW_FLAG
Note: The following floating-point exceptions are signalling: IEEE_OVERFLOW_FLAG
Note: The following floating-point exceptions are signalling: IEEE_OVERFLOW_FLAG
Note: The following floating-point exceptions are signalling: IEEE_OVERFLOW_FLAG
Note: The following floating-point exceptions are signalling: IEEE_OVERFLOW_FLAG
Note: The following floating-point exceptions are signalling: IEEE_OVERFLOW_FLAG
Note: The following floating-point exceptions are signalling: IEEE_OVERFLOW_FLAG
Note: The following floating-point exceptions are signalling: IEEE_OVERFLOW_FLAG
Note: The following floating-point exceptions are signalling: IEEE_OVERFLOW_FLAG
Note: The following floating-point exceptions are signalling: IEEE_OVERFLOW_FLAG
Note: The following floating-point exceptions are signalling: IEEE_OVERFLOW_FLAG
Note: The following floating-point exceptions are signalling: IEEE_OVERFLOW_FLAG
Note: The following floating-point exceptions are signalling: IEEE_OVERFLOW_FLAG
Note: The following floating-point exceptions are signalling: IEEE_OVERFLOW_FLAG
Note: The following floating-point exceptions are signalling: IEEE_OVERFLOW_FLAG
Note: The following floating-point exceptions are signalling: IEEE_OVERFLOW_FLAG
Note: The following floating-point exceptions are signalling: IEEE_OVERFLOW_FLAG
Note: The following floating-point exceptions are signalling: IEEE_OVERFLOW_FLAG
Note: The following floating-point exceptions are signalling: IEEE_OVERFLOW_FLAG
Note: The following floating-point exceptions are signalling: IEEE_OVERFLOW_FLAG
Note: The following floating-point exceptions are signalling: IEEE_OVERFLOW_FLAG
Note: The following floating-point exceptions are signalling: IEEE_OVERFLOW_FLAG
Note: The following floating-point exceptions are signalling: IEEE_OVERFLOW_FLAG
Note: The following floating-point exceptions are signalling: IEEE_OVERFLOW_FLAG
Note: The following floating-point exceptions are signalling: IEEE_OVERFLOW_FLAG
Note: The following floating-point exceptions are signalling: IEEE_OVERFLOW_FLAG
Note: The following floating-point exceptions are signalling: IEEE_OVERFLOW_FLAG
Note: The following floating-point exceptions are signalling: IEEE_OVERFLOW_FLAG
Note: The following floating-point exceptions are signalling: IEEE_OVERFLOW_FLAG
Note: The following floating-point exceptions are signalling: IEEE_OVERFLOW_FLAG
Note: The following floating-point exceptions are signalling: IEEE_OVERFLOW_FLAG
Note: The following floating-point exceptions are signalling: IEEE_INVALID_FLAG IEEE_OVERFLOW_FLAG
Note: The following floating-point exceptions are signalling: IEEE_OVERFLOW_FLAG
Note: The following floating-point exceptions are signalling: IEEE_OVERFLOW_FLAG
Note: The following floating-point exceptions are signalling: IEEE_OVERFLOW_FLAG
Note: The following floating-point exceptions are signalling: IEEE_OVERFLOW_FLAG
Note: The following floating-point exceptions are signalling: IEEE_OVERFLOW_FLAG
Note: The following floating-point exceptions are signalling: IEEE_OVERFLOW_FLAG
Note: The following floating-point exceptions are signalling: IEEE_OVERFLOW_FLAG
Note: The following floating-point exceptions are signalling: IEEE_OVERFLOW_FLAG
