   51   51    1    1
  0.1966621E+02  0.8733603E-09  0.6079487E-09  0.2183401E-08  0.5000000E-15
   1.0000000000000000E-004
  CAR 
 Name                                    
    187     50    120

  0.3742002E-15  0.3742002E-15  0.1262379E-14  0.1010101E-01
    1      -13.053945   1.000000
    2      -11.778194   1.000000
    3      -11.595806   1.000000
    4      -11.192153   1.000000
    5      -10.633556   1.000000
    6      -10.365842   1.000000
    7      -10.140619   1.000000
    8      -10.039295   1.000000
    9       -9.939369   1.000000
   10       -9.740580   1.000000
   11       -9.739065   1.000000
   12       -9.580398   1.000000
   13       -9.300665   1.000000
   14       -9.270200   1.000000
   15       -8.894473   1.000000
   16       -8.838209   1.000000
   17       -8.322988   1.000000
   18       -8.233337   1.000000
   19       -7.930937   1.000000
   20       -7.565169   1.000000
   21       -7.551841   1.000000
   22       -7.363686   1.000000
   23       -7.345047   1.000000
   24       -7.117761   1.000000
   25       -7.101442   1.000000
   26       -7.056291   1.000000
   27       -6.603892   1.000000
   28       -6.409287   1.000000
   29       -6.049568   1.000000
   30       -5.632161   1.000000
   31       -5.512959   1.000000
   32       -5.308576   1.000000
   33       -5.175881   1.000000
   34       -4.907040   1.000000
   35       -4.841211   1.000000
   36       -4.683326   1.000000
   37       -4.602653   1.000000
   38       -4.418832   1.000000
   39       -4.321719   1.000000
   40       -4.279408   1.000000
   41       -4.219019   1.000000
   42       -4.087865   1.000000
   43       -3.992396   1.000000
   44       -3.849382   1.000000
   45       -3.824571   1.000000
   46       -3.769462   1.000000
   47       -3.742673   1.000000
   48       -3.667310   1.000000
   49       -3.562790   1.000000
   50       -3.477959   1.000000
   51       -3.450934   1.000000
   52       -3.395152   1.000000
   53       -3.362363   1.000000
   54       -3.148755   1.000000
   55       -3.067565   1.000000
   56       -3.050167   1.000000
   57       -2.957195   1.000000
   58       -2.938093   1.000000
   59       -2.840462   1.000000
   60       -2.814529   1.000000
   61       -2.716156   1.000000
   62       -2.619773   1.000000
   63       -2.543103   1.000000
   64       -2.532329   1.000000
   65       -2.410373   1.000000
   66       -2.355551   1.000000
   67       -2.280169   1.000000
   68       -2.247005   1.000000
   69       -2.101659   1.000000
   70       -2.078730   1.000000
   71       -2.062483   1.000000
   72       -1.961213   1.000000
   73       -1.951702   1.000000
   74       -1.518830   1.000000
   75       -1.357021   1.000000
   76       -1.265889   1.000000
   77       -1.140445   1.000000
   78       -1.090971   1.000000
   79       -1.012026   1.000000
   80       -0.996786   1.000000
   81       -0.665674   1.000000
   82       -0.566994   1.000000
   83       -0.360586   1.000000
   84       -0.328468   1.000000
   85       -0.146663   1.000000
   86        0.077596   1.000000
   87        0.120180   1.000000
   88        0.197421   1.000000
   89        0.224599   1.000000
   90        0.651001   1.000206
   91        0.719061   1.004384
   92        0.943724   0.438472
   93        0.953315   0.359361
   94        1.055729  -0.035295
   95        1.120550  -0.012899
   96        1.144087  -0.006194
   97        1.189025  -0.001031
   98        1.360710  -0.000000
   99        1.446337  -0.000000
  100        1.469362  -0.000000
  101        1.488186  -0.000000
  102        1.536108  -0.000000
  103        1.603568  -0.000000
  104        1.644636  -0.000000
  105        1.669561  -0.000000
  106        1.814978  -0.000000
  107        1.960081  -0.000000
  108        2.023902  -0.000000
  109        2.095693  -0.000000
  110        2.145138  -0.000000
  111        2.195153  -0.000000
  112        2.237269  -0.000000
  113        2.278005  -0.000000
  114        2.293017  -0.000000
  115        2.321646  -0.000000
  116        2.506233  -0.000000
  117        2.617676  -0.000000
  118        2.747025  -0.000000
  119        2.817885  -0.000000
  120        5.073347   0.000000

  0.1111111E+00  0.3694577E-15  0.1266495E-14  0.2020202E-01
    1      -13.028795   1.000000
    2      -11.758356   1.000000
    3      -11.724769   1.000000
    4      -11.111975   1.000000
    5      -10.622838   1.000000
    6      -10.401351   1.000000
    7      -10.128481   1.000000
    8      -10.041502   1.000000
    9       -9.943595   1.000000
   10       -9.735910   1.000000
   11       -9.731062   1.000000
   12       -9.574642   1.000000
   13       -9.292064   1.000000
   14       -9.264194   1.000000
   15       -8.882942   1.000000
   16       -8.821162   1.000000
   17       -8.309949   1.000000
   18       -8.240044   1.000000
   19       -7.936061   1.000000
   20       -7.558137   1.000000
   21       -7.542173   1.000000
   22       -7.417108   1.000000
   23       -7.404688   1.000000
   24       -7.126423   1.000000
   25       -7.108359   1.000000
   26       -6.996513   1.000000
   27       -6.690003   1.000000
   28       -6.439553   1.000000
   29       -6.002372   1.000000
   30       -5.622001   1.000000
   31       -5.443461   1.000000
   32       -5.287440   1.000000
   33       -5.157476   1.000000
   34       -4.968732   1.000000
   35       -4.811748   1.000000
   36       -4.680325   1.000000
   37       -4.611904   1.000000
   38       -4.467325   1.000000
   39       -4.373383   1.000000
   40       -4.267530   1.000000
   41       -4.217215   1.000000
   42       -4.043809   1.000000
   43       -3.959565   1.000000
   44       -3.821665   1.000000
   45       -3.767093   1.000000
   46       -3.756602   1.000000
   47       -3.725813   1.000000
   48       -3.645680   1.000000
   49       -3.593516   1.000000
   50       -3.462689   1.000000
   51       -3.435247   1.000000
   52       -3.380979   1.000000
   53       -3.356336   1.000000
   54       -3.152406   1.000000
   55       -3.058588   1.000000
   56       -3.040688   1.000000
   57       -2.969180   1.000000
   58       -2.930078   1.000000
   59       -2.867341   1.000000
   60       -2.833863   1.000000
   61       -2.739580   1.000000
   62       -2.621946   1.000000
   63       -2.545768   1.000000
   64       -2.535457   1.000000
   65       -2.412873   1.000000
   66       -2.378297   1.000000
   67       -2.300834   1.000000
   68       -2.261129   1.000000
   69       -2.094571   1.000000
   70       -2.071645   1.000000
   71       -2.037924   1.000000
   72       -1.951753   1.000000
   73       -1.920855   1.000000
   74       -1.596795   1.000000
   75       -1.366122   1.000000
   76       -1.283077   1.000000
   77       -1.143896   1.000000
   78       -1.138118   1.000000
   79       -1.027915   1.000000
   80       -0.958281   1.000000
   81       -0.690598   1.000000
   82       -0.475931   1.000000
   83       -0.372228   1.000000
   84       -0.348282   1.000000
   85       -0.160823   1.000000
   86        0.070347   1.000000
   87        0.127581   1.000000
   88        0.212939   1.000000
   89        0.303708   1.000000
   90        0.608909   1.000018
   91        0.671841   1.000589
   92        0.904929   0.752499
   93        0.962166   0.290015
   94        1.101858  -0.020580
   95        1.142974  -0.006435
   96        1.154368  -0.004293
   97        1.189268  -0.001019
   98        1.388671  -0.000000
   99        1.423973  -0.000000
  100        1.470165  -0.000000
  101        1.493710  -0.000000
  102        1.530212  -0.000000
  103        1.615915  -0.000000
  104        1.660716  -0.000000
  105        1.677599  -0.000000
  106        1.843334  -0.000000
  107        1.975453  -0.000000
  108        2.059901  -0.000000
  109        2.122119  -0.000000
  110        2.139265  -0.000000
  111        2.198976  -0.000000
  112        2.233731  -0.000000
  113        2.283459  -0.000000
  114        2.302018  -0.000000
  115        2.336956  -0.000000
  116        2.448321  -0.000000
  117        2.471680  -0.000000
  118        2.671897  -0.000000
  119        2.785943  -0.000000
  120        3.471131  -0.000000

  0.2222222E+00  0.3681327E-15  0.1265439E-14  0.2020202E-01
    1      -12.953983   1.000000
    2      -11.970212   1.000000
    3      -11.688581   1.000000
    4      -11.051758   1.000000
    5      -10.593174   1.000000
    6      -10.446900   1.000000
    7      -10.098455   1.000000
    8      -10.047317   1.000000
    9       -9.945727   1.000000
   10       -9.724502   1.000000
   11       -9.711624   1.000000
   12       -9.587166   1.000000
   13       -9.275004   1.000000
   14       -9.252651   1.000000
   15       -8.849639   1.000000
   16       -8.769450   1.000000
   17       -8.266697   1.000000
   18       -8.244792   1.000000
   19       -7.936847   1.000000
   20       -7.571553   1.000000
   21       -7.567378   1.000000
   22       -7.516036   1.000000
   23       -7.501260   1.000000
   24       -7.157182   1.000000
   25       -7.140482   1.000000
   26       -6.926731   1.000000
   27       -6.788662   1.000000
   28       -6.465209   1.000000
   29       -5.963796   1.000000
   30       -5.607090   1.000000
   31       -5.330029   1.000000
   32       -5.201181   1.000000
   33       -5.153387   1.000000
   34       -5.092580   1.000000
   35       -4.769763   1.000000
   36       -4.691461   1.000000
   37       -4.613398   1.000000
   38       -4.530642   1.000000
   39       -4.395143   1.000000
   40       -4.174456   1.000000
   41       -4.102797   1.000000
   42       -4.047868   1.000000
   43       -3.971501   1.000000
   44       -3.815260   1.000000
   45       -3.764696   1.000000
   46       -3.731370   1.000000
   47       -3.671667   1.000000
   48       -3.611803   1.000000
   49       -3.545241   1.000000
   50       -3.410836   1.000000
   51       -3.384848   1.000000
   52       -3.356703   1.000000
   53       -3.330600   1.000000
   54       -3.160425   1.000000
   55       -3.050231   1.000000
   56       -3.030647   1.000000
   57       -2.999194   1.000000
   58       -2.940545   1.000000
   59       -2.893610   1.000000
   60       -2.873542   1.000000
   61       -2.770506   1.000000
   62       -2.599212   1.000000
   63       -2.560766   1.000000
   64       -2.543092   1.000000
   65       -2.428293   1.000000
   66       -2.415963   1.000000
   67       -2.321024   1.000000
   68       -2.304028   1.000000
   69       -2.158516   1.000000
   70       -2.126793   1.000000
   71       -1.943943   1.000000
   72       -1.859630   1.000000
   73       -1.828500   1.000000
   74       -1.761864   1.000000
   75       -1.398004   1.000000
   76       -1.334542   1.000000
   77       -1.255101   1.000000
   78       -1.171144   1.000000
   79       -1.077426   1.000000
   80       -0.849729   1.000000
   81       -0.740819   1.000000
   82       -0.437585   1.000000
   83       -0.398441   1.000000
   84       -0.266108   1.000000
   85       -0.187873   1.000000
   86        0.092989   1.000000
   87        0.162879   1.000000
   88        0.251421   1.000000
   89        0.486690   1.000000
   90        0.519187   1.000000
   91        0.567777   1.000001
   92        0.800195   1.033055
   93        1.043976  -0.031288
   94        1.086874  -0.027454
   95        1.107186  -0.018220
   96        1.208663  -0.000405
   97        1.316588  -0.000001
   98        1.372827  -0.000000
   99        1.419193  -0.000000
  100        1.455278  -0.000000
  101        1.471174  -0.000000
  102        1.536981  -0.000000
  103        1.653372  -0.000000
  104        1.687353  -0.000000
  105        1.712865  -0.000000
  106        1.973150  -0.000000
  107        2.043261  -0.000000
  108        2.052499  -0.000000
  109        2.130110  -0.000000
  110        2.196107  -0.000000
  111        2.214548  -0.000000
  112        2.230502  -0.000000
  113        2.299405  -0.000000
  114        2.342154  -0.000000
  115        2.363894  -0.000000
  116        2.468838  -0.000000
  117        2.506164  -0.000000
  118        2.613372  -0.000000
  119        2.659874  -0.000000
  120        2.878426  -0.000000

  0.3333333E+00  0.3672355E-15  0.1308213E-14  0.2020202E-01
    1      -12.831491   1.000000
    2      -12.223081   1.000000
    3      -11.582221   1.000000
    4      -11.126105   1.000000
    5      -10.548553   1.000000
    6      -10.439370   1.000000
    7      -10.072078   1.000000
    8      -10.054357   1.000000
    9       -9.919534   1.000000
   10       -9.715829   1.000000
   11       -9.691945   1.000000
   12       -9.638079   1.000000
   13       -9.262080   1.000000
   14       -9.246470   1.000000
   15       -8.803514   1.000000
   16       -8.690718   1.000000
   17       -8.257860   1.000000
   18       -8.183288   1.000000
   19       -7.900002   1.000000
   20       -7.725747   1.000000
   21       -7.711015   1.000000
   22       -7.496899   1.000000
   23       -7.478570   1.000000
   24       -7.233441   1.000000
   25       -7.191099   1.000000
   26       -7.117190   1.000000
   27       -6.582215   1.000000
   28       -6.403651   1.000000
   29       -6.023348   1.000000
   30       -5.601529   1.000000
   31       -5.481681   1.000000
   32       -5.287654   1.000000
   33       -5.086326   1.000000
   34       -4.927165   1.000000
   35       -4.700816   1.000000
   36       -4.666600   1.000000
   37       -4.571110   1.000000
   38       -4.457588   1.000000
   39       -4.403896   1.000000
   40       -4.164570   1.000000
   41       -4.098445   1.000000
   42       -3.973515   1.000000
   43       -3.921440   1.000000
   44       -3.904445   1.000000
   45       -3.878740   1.000000
   46       -3.651132   1.000000
   47       -3.627830   1.000000
   48       -3.555576   1.000000
   49       -3.464439   1.000000
   50       -3.381254   1.000000
   51       -3.345070   1.000000
   52       -3.317157   1.000000
   53       -3.276576   1.000000
   54       -3.180248   1.000000
   55       -3.115435   1.000000
   56       -3.050167   1.000000
   57       -2.996543   1.000000
   58       -2.941268   1.000000
   59       -2.901451   1.000000
   60       -2.806300   1.000000
   61       -2.779288   1.000000
   62       -2.606659   1.000000
   63       -2.564814   1.000000
   64       -2.547578   1.000000
   65       -2.482178   1.000000
   66       -2.461217   1.000000
   67       -2.380925   1.000000
   68       -2.287680   1.000000
   69       -2.208042   1.000000
   70       -2.171264   1.000000
   71       -1.949517   1.000000
   72       -1.829843   1.000000
   73       -1.796724   1.000000
   74       -1.708893   1.000000
   75       -1.439749   1.000000
   76       -1.407096   1.000000
   77       -1.371507   1.000000
   78       -1.176444   1.000000
   79       -1.143686   1.000000
   80       -0.924708   1.000000
   81       -0.616754   1.000000
   82       -0.524869   1.000000
   83       -0.474319   1.000000
   84       -0.235415   1.000000
   85       -0.035676   1.000000
   86        0.156465   1.000000
   87        0.227297   1.000000
   88        0.346163   1.000000
   89        0.407646   1.000000
   90        0.465583   1.000000
   91        0.653200   1.000231
   92        0.738057   1.008423
   93        1.007610   0.036084
   94        1.088966  -0.026509
   95        1.114324  -0.015255
   96        1.258428  -0.000026
   97        1.289478  -0.000004
   98        1.332554  -0.000000
   99        1.364046  -0.000000
  100        1.460090  -0.000000
  101        1.533710  -0.000000
  102        1.608972  -0.000000
  103        1.726630  -0.000000
  104        1.774514  -0.000000
  105        1.798845  -0.000000
  106        1.923791  -0.000000
  107        2.099869  -0.000000
  108        2.132976  -0.000000
  109        2.170577  -0.000000
  110        2.215834  -0.000000
  111        2.250550  -0.000000
  112        2.285978  -0.000000
  113        2.338742  -0.000000
  114        2.377980  -0.000000
  115        2.422152  -0.000000
  116        2.486816  -0.000000
  117        2.555608  -0.000000
  118        2.632330  -0.000000
  119        2.775028  -0.000000
  120        2.972662  -0.000000

  0.4444444E+00  0.3795814E-15  0.1235432E-14  0.2020202E-01
    1      -12.664932   1.000000
    2      -12.458902   1.000000
    3      -11.444072   1.000000
    4      -11.274857   1.000000
    5      -10.511319   1.000000
    6      -10.419975   1.000000
    7      -10.063464   1.000000
    8      -10.059523   1.000000
    9       -9.856192   1.000000
   10       -9.754557   1.000000
   11       -9.680272   1.000000
   12       -9.670737   1.000000
   13       -9.254912   1.000000
   14       -9.248115   1.000000
   15       -8.767951   1.000000
   16       -8.620705   1.000000
   17       -8.244175   1.000000
   18       -8.148274   1.000000
   19       -7.871676   1.000000
   20       -7.831936   1.000000
   21       -7.758264   1.000000
   22       -7.468985   1.000000
   23       -7.456698   1.000000
   24       -7.395100   1.000000
   25       -7.229438   1.000000
   26       -7.201434   1.000000
   27       -6.421266   1.000000
   28       -6.220583   1.000000
   29       -6.103666   1.000000
   30       -5.822340   1.000000
   31       -5.596911   1.000000
   32       -5.292448   1.000000
   33       -5.051430   1.000000
   34       -4.735633   1.000000
   35       -4.634903   1.000000
   36       -4.575078   1.000000
   37       -4.520162   1.000000
   38       -4.412479   1.000000
   39       -4.369345   1.000000
   40       -4.242814   1.000000
   41       -4.222857   1.000000
   42       -3.993416   1.000000
   43       -3.974945   1.000000
   44       -3.867839   1.000000
   45       -3.814602   1.000000
   46       -3.614938   1.000000
   47       -3.544724   1.000000
   48       -3.528305   1.000000
   49       -3.477684   1.000000
   50       -3.415710   1.000000
   51       -3.312541   1.000000
   52       -3.289312   1.000000
   53       -3.249291   1.000000
   54       -3.184150   1.000000
   55       -3.145883   1.000000
   56       -3.082990   1.000000
   57       -2.973398   1.000000
   58       -2.917421   1.000000
   59       -2.856581   1.000000
   60       -2.783238   1.000000
   61       -2.707887   1.000000
   62       -2.661062   1.000000
   63       -2.596569   1.000000
   64       -2.577776   1.000000
   65       -2.527981   1.000000
   66       -2.474263   1.000000
   67       -2.448773   1.000000
   68       -2.252144   1.000000
   69       -2.210026   1.000000
   70       -2.152284   1.000000
   71       -2.064486   1.000000
   72       -1.831206   1.000000
   73       -1.752473   1.000000
   74       -1.628012   1.000000
   75       -1.474599   1.000000
   76       -1.443525   1.000000
   77       -1.418486   1.000000
   78       -1.232866   1.000000
   79       -1.113782   1.000000
   80       -1.037012   1.000000
   81       -0.606455   1.000000
   82       -0.541744   1.000000
   83       -0.473928   1.000000
   84       -0.256812   1.000000
   85        0.107438   1.000000
   86        0.186308   1.000000
   87        0.275700   1.000000
   88        0.333028   1.000000
   89        0.411676   1.000000
   90        0.520829   1.000000
   91        0.569481   1.000001
   92        0.838310   1.023068
   93        0.972632   0.214773
   94        1.014861   0.014082
   95        1.126284  -0.010942
   96        1.191566  -0.000918
   97        1.256076  -0.000030
   98        1.296414  -0.000002
   99        1.452151  -0.000000
  100        1.525203  -0.000000
  101        1.557034  -0.000000
  102        1.594915  -0.000000
  103        1.737451  -0.000000
  104        1.772173  -0.000000
  105        1.920882  -0.000000
  106        2.027214  -0.000000
  107        2.067522  -0.000000
  108        2.197611  -0.000000
  109        2.211353  -0.000000
  110        2.255228  -0.000000
  111        2.296273  -0.000000
  112        2.322476  -0.000000
  113        2.391092  -0.000000
  114        2.423652  -0.000000
  115        2.471874  -0.000000
  116        2.493753  -0.000000
  117        2.546003  -0.000000
  118        2.627592  -0.000000
  119        2.650652  -0.000000
  120        2.786751  -0.000000

  0.3742002E-15  0.9090909E-01  0.1339361E-14  0.2020202E-01
    1      -13.021095   1.000000
    2      -11.748897   1.000000
    3      -11.605110   1.000000
    4      -11.152287   1.000000
    5      -10.612877   1.000000
    6      -10.354850   1.000000
    7      -10.310972   1.000000
    8      -10.270860   1.000000
    9      -10.033680   1.000000
   10       -9.696648   1.000000
   11       -9.623376   1.000000
   12       -9.561010   1.000000
   13       -9.260394   1.000000
   14       -9.234501   1.000000
   15       -8.889477   1.000000
   16       -8.811660   1.000000
   17       -8.289283   1.000000
   18       -8.206982   1.000000
   19       -7.963244   1.000000
   20       -7.704904   1.000000
   21       -7.669006   1.000000
   22       -7.256763   1.000000
   23       -7.202264   1.000000
   24       -7.033117   1.000000
   25       -6.915410   1.000000
   26       -6.882545   1.000000
   27       -6.626451   1.000000
   28       -6.399184   1.000000
   29       -6.022130   1.000000
   30       -5.663832   1.000000
   31       -5.474291   1.000000
   32       -5.340147   1.000000
   33       -5.169160   1.000000
   34       -4.963251   1.000000
   35       -4.818576   1.000000
   36       -4.676452   1.000000
   37       -4.565162   1.000000
   38       -4.452974   1.000000
   39       -4.326848   1.000000
   40       -4.271880   1.000000
   41       -4.239973   1.000000
   42       -4.094523   1.000000
   43       -4.026076   1.000000
   44       -3.920442   1.000000
   45       -3.867564   1.000000
   46       -3.795488   1.000000
   47       -3.770731   1.000000
   48       -3.723835   1.000000
   49       -3.636233   1.000000
   50       -3.501584   1.000000
   51       -3.467257   1.000000
   52       -3.395568   1.000000
   53       -3.375734   1.000000
   54       -3.192795   1.000000
   55       -3.142179   1.000000
   56       -3.068069   1.000000
   57       -2.992083   1.000000
   58       -2.952222   1.000000
   59       -2.820349   1.000000
   60       -2.786165   1.000000
   61       -2.739079   1.000000
   62       -2.643275   1.000000
   63       -2.526059   1.000000
   64       -2.510282   1.000000
   65       -2.406893   1.000000
   66       -2.332918   1.000000
   67       -2.277477   1.000000
   68       -2.239801   1.000000
   69       -2.160669   1.000000
   70       -2.038674   1.000000
   71       -2.008176   1.000000
   72       -1.943014   1.000000
   73       -1.910573   1.000000
   74       -1.705341   1.000000
   75       -1.332036   1.000000
   76       -1.224851   1.000000
   77       -1.133223   1.000000
   78       -1.111279   1.000000
   79       -0.973130   1.000000
   80       -0.946857   1.000000
   81       -0.689762   1.000000
   82       -0.495323   1.000000
   83       -0.373081   1.000000
   84       -0.311020   1.000000
   85       -0.154660   1.000000
   86        0.023567   1.000000
   87        0.118909   1.000000
   88        0.150876   1.000000
   89        0.216017   1.000000
   90        0.531191   1.000000
   91        0.706870   1.002747
   92        0.890513   0.846867
   93        0.905447   0.748784
   94        0.950296   0.383914
   95        1.038358  -0.027012
   96        1.129609  -0.009904
   97        1.193293  -0.000848
   98        1.344398  -0.000000
   99        1.366903  -0.000000
  100        1.485948  -0.000000
  101        1.501806  -0.000000
  102        1.649936  -0.000000
  103        1.682362  -0.000000
  104        1.703341  -0.000000
  105        1.763411  -0.000000
  106        1.838591  -0.000000
  107        1.967582  -0.000000
  108        2.055340  -0.000000
  109        2.122577  -0.000000
  110        2.162167  -0.000000
  111        2.190568  -0.000000
  112        2.232833  -0.000000
  113        2.274816  -0.000000
  114        2.304396  -0.000000
  115        2.358950  -0.000000
  116        2.466555  -0.000000
  117        2.500599  -0.000000
  118        2.613536  -0.000000
  119        2.710118  -0.000000
  120        2.795909  -0.000000

  0.1111111E+00  0.9090909E-01  0.1250028E-14  0.2020202E-01
    1      -12.975601   1.000000
    2      -11.802954   1.000000
    3      -11.707111   1.000000
    4      -11.052338   1.000000
    5      -10.593820   1.000000
    6      -10.405520   1.000000
    7      -10.376821   1.000000
    8      -10.210205   1.000000
    9       -9.989499   1.000000
   10       -9.691004   1.000000
   11       -9.595802   1.000000
   12       -9.555023   1.000000
   13       -9.291216   1.000000
   14       -9.257094   1.000000
   15       -8.855298   1.000000
   16       -8.766974   1.000000
   17       -8.266601   1.000000
   18       -8.209590   1.000000
   19       -7.971005   1.000000
   20       -7.752959   1.000000
   21       -7.665924   1.000000
   22       -7.333482   1.000000
   23       -7.258527   1.000000
   24       -6.973858   1.000000
   25       -6.910479   1.000000
   26       -6.870230   1.000000
   27       -6.750079   1.000000
   28       -6.431823   1.000000
   29       -5.963008   1.000000
   30       -5.675084   1.000000
   31       -5.358334   1.000000
   32       -5.286953   1.000000
   33       -5.144417   1.000000
   34       -5.033193   1.000000
   35       -4.834526   1.000000
   36       -4.678745   1.000000
   37       -4.578645   1.000000
   38       -4.488678   1.000000
   39       -4.407720   1.000000
   40       -4.221118   1.000000
   41       -4.195355   1.000000
   42       -4.102906   1.000000
   43       -3.988142   1.000000
   44       -3.875425   1.000000
   45       -3.833315   1.000000
   46       -3.778012   1.000000
   47       -3.693809   1.000000
   48       -3.679990   1.000000
   49       -3.619168   1.000000
   50       -3.486902   1.000000
   51       -3.426898   1.000000
   52       -3.391043   1.000000
   53       -3.367111   1.000000
   54       -3.207303   1.000000
   55       -3.121618   1.000000
   56       -3.070192   1.000000
   57       -3.005499   1.000000
   58       -2.911361   1.000000
   59       -2.849575   1.000000
   60       -2.833054   1.000000
   61       -2.708475   1.000000
   62       -2.640964   1.000000
   63       -2.562690   1.000000
   64       -2.540075   1.000000
   65       -2.456695   1.000000
   66       -2.367761   1.000000
   67       -2.293377   1.000000
   68       -2.287545   1.000000
   69       -2.119451   1.000000
   70       -2.046825   1.000000
   71       -1.985296   1.000000
   72       -1.916459   1.000000
   73       -1.890633   1.000000
   74       -1.763593   1.000000
   75       -1.363826   1.000000
   76       -1.299515   1.000000
   77       -1.186350   1.000000
   78       -1.164030   1.000000
   79       -0.951490   1.000000
   80       -0.867569   1.000000
   81       -0.766900   1.000000
   82       -0.466437   1.000000
   83       -0.388591   1.000000
   84       -0.302908   1.000000
   85       -0.148301   1.000000
   86       -0.018165   1.000000
   87        0.182715   1.000000
   88        0.240162   1.000000
   89        0.307359   1.000000
   90        0.482484   1.000000
   91        0.683355   1.001008
   92        0.824012   1.033679
   93        0.927796   0.572782
   94        1.050126  -0.034123
   95        1.086498  -0.027622
   96        1.147933  -0.005418
   97        1.183223  -0.001335
   98        1.295786  -0.000002
   99        1.317694  -0.000000
  100        1.529594  -0.000000
  101        1.586606  -0.000000
  102        1.617317  -0.000000
  103        1.692547  -0.000000
  104        1.719531  -0.000000
  105        1.735549  -0.000000
  106        1.844140  -0.000000
  107        2.041694  -0.000000
  108        2.099312  -0.000000
  109        2.116477  -0.000000
  110        2.140918  -0.000000
  111        2.208851  -0.000000
  112        2.228295  -0.000000
  113        2.294041  -0.000000
  114        2.349172  -0.000000
  115        2.377756  -0.000000
  116        2.445253  -0.000000
  117        2.553102  -0.000000
  118        2.710100  -0.000000
  119        2.787984  -0.000000
  120        3.098432  -0.000000

  0.2222222E+00  0.9090909E-01  0.1327369E-14  0.2020202E-01
    1      -12.881322   1.000000
    2      -12.051401   1.000000
    3      -11.625494   1.000000
    4      -11.045982   1.000000
    5      -10.557834   1.000000
    6      -10.438902   1.000000
    7      -10.421112   1.000000
    8      -10.153356   1.000000
    9       -9.929121   1.000000
   10       -9.660141   1.000000
   11       -9.597318   1.000000
   12       -9.532816   1.000000
   13       -9.348705   1.000000
   14       -9.291739   1.000000
   15       -8.792041   1.000000
   16       -8.683467   1.000000
   17       -8.243759   1.000000
   18       -8.191874   1.000000
   19       -7.981738   1.000000
   20       -7.787698   1.000000
   21       -7.681808   1.000000
   22       -7.478733   1.000000
   23       -7.336117   1.000000
   24       -7.038488   1.000000
   25       -6.940128   1.000000
   26       -6.876097   1.000000
   27       -6.685065   1.000000
   28       -6.433850   1.000000
   29       -5.967430   1.000000
   30       -5.694009   1.000000
   31       -5.303253   1.000000
   32       -5.251231   1.000000
   33       -5.134154   1.000000
   34       -5.035884   1.000000
   35       -4.813923   1.000000
   36       -4.721560   1.000000
   37       -4.575449   1.000000
   38       -4.466668   1.000000
   39       -4.399758   1.000000
   40       -4.200389   1.000000
   41       -4.136178   1.000000
   42       -4.030962   1.000000
   43       -3.999828   1.000000
   44       -3.875251   1.000000
   45       -3.823437   1.000000
   46       -3.722980   1.000000
   47       -3.667125   1.000000
   48       -3.632638   1.000000