 running on   48 total cores
 distrk:  each k-point on   48 cores,    1 groups
 distr:  one band on    8 cores,    6 groups
 using from now: INCAR     
 vasp.5.4.4.18Apr17-6-g9f103f2a35 (build Dec  7 2020 12:43:57) complex           
 POSCAR found type information on POSCAR  Mo V  B  H 
 POSCAR found :  4 types and      51 ions
 scaLAPACK will be used

 ----------------------------------------------------------------------------- 
|                                                                             |
|  ADVICE TO THIS USER RUNNING 'VASP/VAMP'   (HEAR YOUR MASTER'S VOICE ...):  |
|                                                                             |
|      You enforced a specific xc-type in the INCAR file,                     |
|      a different type was found on the POTCAR file                          |
|          I HOPE YOU KNOW, WHAT YOU ARE  DOING                               |
|                                                                             |
 ----------------------------------------------------------------------------- 

 LDA part: xc-table for Pade appr. of Perdew
 POSCAR, INCAR and KPOINTS ok, starting setup
 resort distribution
 resort distribution
 resort distribution
 resort distribution
 resort distribution
 resort distribution
 resort distribution
 resort distribution
 resort distribution
 resort distribution
 resort distribution
 resort distribution
 resort distribution
 resort distribution
 resort distribution
 resort distribution
 resort distribution
 resort distribution
 resort distribution
 resort distribution
 resort distribution
 resort distribution
 resort distribution
 resort distribution
 resort distribution
 resort distribution
 resort distribution
 resort distribution
 resort distribution
 resort distribution
 resort distribution
 resort distribution
 resort distribution
 resort distribution
 resort distribution
 resort distribution
 resort distribution
 resort distribution
 resort distribution
 resort distribution
 resort distribution
 resort distribution
 resort distribution
 resort distribution
 resort distribution
 resort distribution
 resort distribution
 resort distribution
 FFT: planning ...
 WAVECAR not read
 augmentation electrons   187.00420130439230     
 soft         electrons   0.0000000000000000     
 augmentation electrons   187.00420130439230     
 soft         electrons   0.0000000000000000     
 augmentation electrons   187.00420130439230     
 soft         electrons   0.0000000000000000     
 augmentation electrons   187.00420130439230     
 soft         electrons   0.0000000000000000     
 augmentation electrons   187.00420130439230     
 soft         electrons   0.0000000000000000     
 augmentation electrons   187.00420130439230     
 soft         electrons   0.0000000000000000     
 augmentation electrons   187.00420130439230     
 soft         electrons   0.0000000000000000     
 augmentation electrons   187.00420130439230     
 soft         electrons   0.0000000000000000     
 augmentation electrons   187.00420130439230     
 soft         electrons   0.0000000000000000     
 augmentation electrons   187.00420130439230     
 soft         electrons   0.0000000000000000     
 augmentation electrons   187.00420130439230     
 soft         electrons   0.0000000000000000     
 augmentation electrons   187.00420130439230     
 soft         electrons   0.0000000000000000     
 augmentation electrons   187.00420130439230     
 soft         electrons   0.0000000000000000     
 augmentation electrons   187.00420130439230     
 soft         electrons   0.0000000000000000     
 augmentation electrons   187.00420130439230     
 soft         electrons   0.0000000000000000     
 augmentation electrons   187.00420130439230     
 soft         electrons   0.0000000000000000     
 augmentation electrons   187.00420130439230     
 soft         electrons   0.0000000000000000     
 augmentation electrons   187.00420130439230     
 soft         electrons   0.0000000000000000     
 augmentation electrons   187.00420130439230     
 soft         electrons   0.0000000000000000     
 augmentation electrons   187.00420130439230     
 soft         electrons   0.0000000000000000     
 augmentation electrons   187.00420130439230     
 soft         electrons   0.0000000000000000     
 augmentation electrons   187.00420130439230     
 soft         electrons   0.0000000000000000     
 augmentation electrons   187.00420130439230     
 soft         electrons   0.0000000000000000     
 augmentation electrons   187.00420130439230     
 soft         electrons   0.0000000000000000     
 augmentation electrons   187.00420130439230     
 soft         electrons   0.0000000000000000     
 augmentation electrons   187.00420130439230     
 soft         electrons   0.0000000000000000     
 augmentation electrons   187.00420130439230     
 soft         electrons   0.0000000000000000     
 augmentation electrons   187.00420130439230     
 soft         electrons   0.0000000000000000     
 augmentation electrons   187.00420130439230     
 soft         electrons   0.0000000000000000     
 augmentation electrons   187.00420130439230     
 soft         electrons   0.0000000000000000     
 augmentation electrons   187.00420130439230     
 soft         electrons   0.0000000000000000     
 augmentation electrons   187.00420130439230     
 soft         electrons   0.0000000000000000     
 augmentation electrons   187.00420130439230     
 soft         electrons   0.0000000000000000     
 augmentation electrons   187.00420130439230     
 soft         electrons   0.0000000000000000     
 augmentation electrons   187.00420130439230     
 soft         electrons   0.0000000000000000     
 augmentation electrons   187.00420130439230     
 soft         electrons   0.0000000000000000     
 augmentation electrons   187.00420130439230     
 soft         electrons   0.0000000000000000     
 augmentation electrons   187.00420130439230     
 soft         electrons   0.0000000000000000     
 augmentation electrons   187.00420130439230     
 soft         electrons   0.0000000000000000     
 augmentation electrons   187.00420130439230     
 soft         electrons   0.0000000000000000     
 augmentation electrons   187.00420130439230     
 soft         electrons   0.0000000000000000     
 augmentation electrons   187.00420130439230     
 soft         electrons   0.0000000000000000     
 augmentation electrons   187.00420130439230     
 soft         electrons   0.0000000000000000     
 augmentation electrons   187.00420130439230     
 soft         electrons   0.0000000000000000     
 augmentation electrons   187.00420130439230     
 soft         electrons   0.0000000000000000     
 augmentation electrons   187.00420130439230     
 soft         electrons   0.0000000000000000     
 augmentation electrons   187.00420130439230     
 soft         electrons   0.0000000000000000     
 augmentation electrons   187.00420130439230     
 soft         electrons   0.0000000000000000     
 total        electrons   187.00420130439230     
 total        electrons   187.00420130439230     
 total        electrons   187.00420130439230     
 total        electrons   187.00420130439230     
 total        electrons   187.00420130439230     
 total        electrons   187.00420130439230     
 total        electrons   187.00420130439230     
 total        electrons   187.00420130439230     
 total        electrons   187.00420130439230     
 total        electrons   187.00420130439230     
 total        electrons   187.00420130439230     
 total        electrons   187.00420130439230     
 total        electrons   187.00420130439230     
 total        electrons   187.00420130439230     
 total        electrons   187.00420130439230     
 total        electrons   187.00420130439230     
 total        electrons   187.00420130439230     
 total        electrons   187.00420130439230     
 total        electrons   187.00420130439230     
 total        electrons   187.00420130439230     
 total        electrons   187.00420130439230     
 total        electrons   187.00420130439230     
 total        electrons   187.00420130439230     
 total        electrons   187.00420130439230     
 total        electrons   187.00420130439230     
 total        electrons   187.00420130439230     
 total        electrons   187.00420130439230     
 total        electrons   187.00420130439230     
 total        electrons   187.00420130439230     
 total        electrons   187.00420130439230     
 total        electrons   187.00420130439230     
 total        electrons   187.00420130439230     
 total        electrons   187.00420130439230     
 total        electrons   187.00420130439230     
 total        electrons   187.00420130439230     
 total        electrons   187.00420130439230     
 total        electrons   187.00420130439230     
 total        electrons   187.00420130439230     
 total        electrons   187.00420130439230     
 total        electrons   187.00420130439230     
 total        electrons   187.00420130439230     
 total        electrons   187.00420130439230     
 total        electrons   187.00420130439230     
 total        electrons   187.00420130439230     
 total        electrons   187.00420130439230     
 total        electrons   187.00420130439230     
 total        electrons   187.00420130439230     
 total        electrons   187.00420130439230     
 augmentation electrons   484.16221061253600     
 augmentation electrons   484.16221061253600     
 soft         electrons   0.0000000000000000     
 augmentation electrons   484.16221061253600     
 soft         electrons   0.0000000000000000     
 augmentation electrons   484.16221061253600     
 soft         electrons   0.0000000000000000     
 augmentation electrons   484.16221061253600     
 soft         electrons   0.0000000000000000     
 augmentation electrons   484.16221061253600     
 soft         electrons   0.0000000000000000     
 augmentation electrons   484.16221061253600     
 soft         electrons   0.0000000000000000     
 augmentation electrons   484.16221061253600     
 soft         electrons   0.0000000000000000     
 augmentation electrons   484.16221061253600     
 soft         electrons   0.0000000000000000     
 augmentation electrons   484.16221061253600     
 soft         electrons   0.0000000000000000     
 augmentation electrons   484.16221061253600     
 soft         electrons   0.0000000000000000     
 augmentation electrons   484.16221061253600     
 soft         electrons   0.0000000000000000     
 augmentation electrons   484.16221061253600     
 soft         electrons   0.0000000000000000     
 augmentation electrons   484.16221061253600     
 soft         electrons   0.0000000000000000     
 augmentation electrons   484.16221061253600     
 soft         electrons   0.0000000000000000     
 augmentation electrons   484.16221061253600     
 soft         electrons   0.0000000000000000     
 augmentation electrons   484.16221061253600     
 soft         electrons   0.0000000000000000     
 augmentation electrons   484.16221061253600     
 soft         electrons   0.0000000000000000     
 augmentation electrons   484.16221061253600     
 soft         electrons   0.0000000000000000     
 augmentation electrons   484.16221061253600     
 soft         electrons   0.0000000000000000     
 augmentation electrons   484.16221061253600     
 soft         electrons   0.0000000000000000     
 augmentation electrons   484.16221061253600     
 soft         electrons   0.0000000000000000     
 augmentation electrons   484.16221061253600     
 soft         electrons   0.0000000000000000     
 augmentation electrons   484.16221061253600     
 soft         electrons   0.0000000000000000     
 augmentation electrons   484.16221061253600     
 soft         electrons   0.0000000000000000     
 augmentation electrons   484.16221061253600     
 soft         electrons   0.0000000000000000     
 augmentation electrons   484.16221061253600     
 soft         electrons   0.0000000000000000     
 augmentation electrons   484.16221061253600     
 soft         electrons   0.0000000000000000     
 augmentation electrons   484.16221061253600     
 soft         electrons   0.0000000000000000     
 augmentation electrons   484.16221061253600     
 soft         electrons   0.0000000000000000     
 augmentation electrons   484.16221061253600     
 soft         electrons   0.0000000000000000     
 augmentation electrons   484.16221061253600     
 soft         electrons   0.0000000000000000     
 augmentation electrons   484.16221061253600     
 soft         electrons   0.0000000000000000     
 augmentation electrons   484.16221061253600     
 soft         electrons   0.0000000000000000     
 augmentation electrons   484.16221061253600     
 soft         electrons   0.0000000000000000     
 augmentation electrons   484.16221061253600     
 soft         electrons   0.0000000000000000     
 augmentation electrons   484.16221061253600     
 soft         electrons   0.0000000000000000     
 augmentation electrons   484.16221061253600     
 soft         electrons   0.0000000000000000     
 augmentation electrons   484.16221061253600     
 soft         electrons   0.0000000000000000     
 augmentation electrons   484.16221061253600     
 soft         electrons   0.0000000000000000     
 augmentation electrons   484.16221061253600     
 soft         electrons   0.0000000000000000     
 augmentation electrons   484.16221061253600     
 soft         electrons   0.0000000000000000     
 augmentation electrons   484.16221061253600     
 soft         electrons   0.0000000000000000     
 augmentation electrons   484.16221061253600     
 soft         electrons   0.0000000000000000     
 augmentation electrons   484.16221061253600     
 soft         electrons   0.0000000000000000     
 augmentation electrons   484.16221061253600     
 soft         electrons   0.0000000000000000     
 augmentation electrons   484.16221061253600     
 soft         electrons   0.0000000000000000     
 augmentation electrons   484.16221061253600     
 soft         electrons   0.0000000000000000     
 soft         electrons   0.0000000000000000     
 total        electrons   484.16221061253600     
 total        electrons   484.16221061253600     
 total        electrons   484.16221061253600     
 total        electrons   484.16221061253600     
 total        electrons   484.16221061253600     
 total        electrons   484.16221061253600     
 total        electrons   484.16221061253600     
 total        electrons   484.16221061253600     
 total        electrons   484.16221061253600     
 total        electrons   484.16221061253600     
 total        electrons   484.16221061253600     
 total        electrons   484.16221061253600     
 total        electrons   484.16221061253600     
 total        electrons   484.16221061253600     
 total        electrons   484.16221061253600     
 total        electrons   484.16221061253600     
 total        electrons   484.16221061253600     
 total        electrons   484.16221061253600     
 total        electrons   484.16221061253600     
 total        electrons   484.16221061253600     
 total        electrons   484.16221061253600     
 total        electrons   484.16221061253600     
 total        electrons   484.16221061253600     
 total        electrons   484.16221061253600     
 total        electrons   484.16221061253600     
 total        electrons   484.16221061253600     
 total        electrons   484.16221061253600     
 total        electrons   484.16221061253600     
 total        electrons   484.16221061253600     
 total        electrons   484.16221061253600     
 total        electrons   484.16221061253600     
 total        electrons   484.16221061253600     
 total        electrons   484.16221061253600     
 total        electrons   484.16221061253600     
 total        electrons   484.16221061253600     
 total        electrons   484.16221061253600     
 total        electrons   484.16221061253600     
 total        electrons   484.16221061253600     
 total        electrons   484.16221061253600     
 total        electrons   484.16221061253600     
 total        electrons   484.16221061253600     
 total        electrons   484.16221061253600     
 total        electrons   484.16221061253600     
 total        electrons   484.16221061253600     
 total        electrons   484.16221061253600     
 total        electrons   484.16221061253600     
 total        electrons   484.16221061253600     
 total        electrons   484.16221061253600     
 entering main loop
       N       E                     dE             d eps       ncg     rms          rms(c)
DAV:   1     0.198920527200E+04    0.19892E+04   -0.64673E+04 12000   0.131E+03
DAV:   2     0.276382380217E+02   -0.19616E+04   -0.18253E+04 12888   0.338E+02
DAV:   3    -0.422849499541E+03   -0.45049E+03   -0.43537E+03 18312   0.188E+02
DAV:   4    -0.460886542182E+03   -0.38037E+02   -0.36904E+02 19800   0.614E+01
DAV:   5    -0.462460701705E+03   -0.15742E+01   -0.15197E+01 20328   0.131E+01    0.108E+02
RMM:   6    -0.426983755743E+03    0.35477E+02   -0.10176E+03 16775   0.112E+02    0.570E+01
RMM:   7    -0.433665932409E+03   -0.66822E+01   -0.52287E+02 14095   0.105E+02    0.448E+01
RMM:   8    -0.384537620536E+03    0.49128E+02   -0.59155E+01 12784   0.333E+01    0.172E+01
RMM:   9    -0.383744559473E+03    0.79306E+00   -0.28240E+01 15523   0.181E+01    0.155E+01
RMM:  10    -0.382216591132E+03    0.15280E+01   -0.74046E+00 17425   0.728E+00    0.129E+01
RMM:  11    -0.382270714122E+03   -0.54123E-01   -0.15882E+00 17665   0.303E+00    0.116E+01
RMM:  12    -0.381956289371E+03    0.31442E+00   -0.12443E+00 13675   0.471E+00    0.958E+00
RMM:  13    -0.382049153507E+03   -0.92864E-01   -0.67651E+00 14215   0.102E+01    0.600E+00
RMM:  14    -0.381382484894E+03    0.66667E+00   -0.85274E-01 13936   0.404E+00    0.224E+00
RMM:  15    -0.381342150706E+03    0.40334E-01   -0.35992E-01 16458   0.171E+00    0.144E+00
RMM:  16    -0.381310391005E+03    0.31760E-01   -0.15266E-01 18119   0.106E+00    0.101E+00
RMM:  17    -0.381310580747E+03   -0.18974E-03   -0.11938E-01 15314   0.120E+00    0.137E+00
RMM:  18    -0.381291807678E+03    0.18773E-01   -0.60637E-02 15317   0.852E-01    0.911E-01
RMM:  19    -0.381281899518E+03    0.99082E-02   -0.30991E-02 17339   0.433E-01    0.738E-01
RMM:  20    -0.381276628123E+03    0.52714E-02   -0.90828E-03 16065   0.314E-01    0.510E-01
RMM:  21    -0.381273513115E+03    0.31150E-02   -0.13912E-02 18144   0.289E-01    0.270E-01
RMM:  22    -0.381271200229E+03    0.23129E-02   -0.61852E-03 18300   0.187E-01    0.197E-01
RMM:  23    -0.381269870400E+03    0.13298E-02   -0.24203E-03 16104   0.147E-01    0.219E-01
RMM:  24    -0.381268472708E+03    0.13977E-02   -0.20229E-03 17090   0.133E-01    0.188E-01
RMM:  25    -0.381268060046E+03    0.41266E-03   -0.12711E-03 17541   0.972E-02    0.117E-01
RMM:  26    -0.381268244604E+03   -0.18456E-03   -0.60117E-04 17700   0.712E-02    0.900E-02
RMM:  27    -0.381268304391E+03   -0.59787E-04   -0.33477E-04 15599   0.634E-02    0.601E-02
RMM:  28    -0.381268588866E+03   -0.28447E-03   -0.22158E-04 16005   0.399E-02    0.394E-02
RMM:  29    -0.381269104843E+03   -0.51598E-03   -0.19812E-04 14265   0.534E-02    0.386E-02
RMM:  30    -0.381269649108E+03   -0.54426E-03   -0.17484E-04 16991   0.225E-02    0.377E-02
RMM:  31    -0.381269915089E+03   -0.26598E-03   -0.66109E-05 14080   0.340E-02    0.830E-03
RMM:  32    -0.381270359308E+03   -0.44422E-03   -0.71758E-05 15890   0.157E-02    0.119E-02
RMM:  33    -0.381270517777E+03   -0.15847E-03   -0.23260E-05 12802   0.135E-02    0.653E-03
RMM:  34    -0.381270578977E+03   -0.61200E-04   -0.96110E-06 11645   0.632E-03    0.395E-03
RMM:  35    -0.381270637950E+03   -0.58973E-04   -0.84726E-06 11602   0.609E-03    0.302E-03
RMM:  36    -0.381270651568E+03   -0.13618E-04   -0.22009E-06 10101   0.432E-03    0.249E-03
RMM:  37    -0.381270656481E+03   -0.49127E-05   -0.11269E-06  9121   0.366E-03    0.169E-03
RMM:  38    -0.381270658307E+03   -0.18260E-05   -0.58138E-07  8462   0.339E-03    0.555E-04
RMM:  39    -0.381270659074E+03   -0.76718E-06   -0.34500E-07  7275   0.178E-03
   1 F= -.38127066E+03 E0= -.38126992E+03  d E =-.221067E-02
 augmentation electrons   23.811870716082854     
 soft         electrons   163.23860081253119     
 augmentation electrons   23.811870716082854     
 soft         electrons   163.23860081253119     
 augmentation electrons   23.811870716082854     
 soft         electrons   163.23860081253119     
 augmentation electrons   23.811870716082854     
 soft         electrons   163.23860081253119     
 augmentation electrons   23.811870716082854     
 soft         electrons   163.23860081253119     
 augmentation electrons   23.811870716082854     
 soft         electrons   163.23860081253119     
 augmentation electrons   23.811870716082854     
 soft         electrons   163.23860081253119     
 augmentation electrons   23.811870716082854     
 soft         electrons   163.23860081253119     
 augmentation electrons   23.811870716082854     
 soft         electrons   163.23860081253119     
 augmentation electrons   23.811870716082854     
 soft         electrons   163.23860081253119     
 augmentation electrons   23.811870716082854     
 soft         electrons   163.23860081253119     
 augmentation electrons   23.811870716082854     
 soft         electrons   163.23860081253119     
 augmentation electrons   23.811870716082854     
 soft         electrons   163.23860081253119     
 augmentation electrons   23.811870716082854     
 soft         electrons   163.23860081253119     
 augmentation electrons   23.811870716082854     
 soft         electrons   163.23860081253119     
 augmentation electrons   23.811870716082854     
 soft         electrons   163.23860081253119     
 augmentation electrons   23.811870716082854     
 soft         electrons   163.23860081253119     
 augmentation electrons   23.811870716082854     
 soft         electrons   163.23860081253119     
 augmentation electrons   23.811870716082854     
 soft         electrons   163.23860081253119     
 augmentation electrons   23.811870716082854     
 soft         electrons   163.23860081253119     
 augmentation electrons   23.811870716082854     
 soft         electrons   163.23860081253119     
 augmentation electrons   23.811870716082854     
 soft         electrons   163.23860081253119     
 augmentation electrons   23.811870716082854     
 soft         electrons   163.23860081253119     
 augmentation electrons   23.811870716082854     
 soft         electrons   163.23860081253119     
 augmentation electrons   23.811870716082854     
 soft         electrons   163.23860081253119     
 augmentation electrons   23.811870716082854     
 soft         electrons   163.23860081253119     
 augmentation electrons   23.811870716082854     
 soft         electrons   163.23860081253119     
 augmentation electrons   23.811870716082854     
 soft         electrons   163.23860081253119     
 augmentation electrons   23.811870716082854     
 soft         electrons   163.23860081253119     
 augmentation electrons   23.811870716082854     
 soft         electrons   163.23860081253119     
 augmentation electrons   23.811870716082854     
 soft         electrons   163.23860081253119     
 augmentation electrons   23.811870716082854     
 soft         electrons   163.23860081253119     
 augmentation electrons   23.811870716082854     
 soft         electrons   163.23860081253119     
 augmentation electrons   23.811870716082854     
 soft         electrons   163.23860081253119     
 augmentation electrons   23.811870716082854     
 soft         electrons   163.23860081253119     
 augmentation electrons   23.811870716082854     
 soft         electrons   163.23860081253119     
 augmentation electrons   23.811870716082854     
 soft         electrons   163.23860081253119     
 augmentation electrons   23.811870716082854     
 soft         electrons   163.23860081253119     
 augmentation electrons   23.811870716082854     
 soft         electrons   163.23860081253119     
 augmentation electrons   23.811870716082854     
 soft         electrons   163.23860081253119     
 augmentation electrons   23.811870716082854     
 soft         electrons   163.23860081253119     
 augmentation electrons   23.811870716082854     
 soft         electrons   163.23860081253119     
 augmentation electrons   23.811870716082854     
 soft         electrons   163.23860081253119     
 augmentation electrons   23.811870716082854     
 soft         electrons   163.23860081253119     
 augmentation electrons   23.811870716082854     
 soft         electrons   163.23860081253119     
 augmentation electrons   23.811870716082854     
 soft         electrons   163.23860081253119     
 augmentation electrons   23.811870716082854     
 soft         electrons   163.23860081253119     
 augmentation electrons   23.811870716082854     
 soft         electrons   163.23860081253119     
 total        electrons   187.05047152861405     
 total        electrons   187.05047152861405     
 total        electrons   187.05047152861405     
 total        electrons   187.05047152861405     
 total        electrons   187.05047152861405     
 total        electrons   187.05047152861405     
 total        electrons   187.05047152861405     
 total        electrons   187.05047152861405     
 total        electrons   187.05047152861405     
 total        electrons   187.05047152861405     
 total        electrons   187.05047152861405     
 total        electrons   187.05047152861405     
 total        electrons   187.05047152861405     
 total        electrons   187.05047152861405     
 total        electrons   187.05047152861405     
 total        electrons   187.05047152861405     
 total        electrons   187.05047152861405     
 total        electrons   187.05047152861405     
 total        electrons   187.05047152861405     
 total        electrons   187.05047152861405     
 total        electrons   187.05047152861405     
 total        electrons   187.05047152861405     
 total        electrons   187.05047152861405     
 total        electrons   187.05047152861405     
 total        electrons   187.05047152861405     
 total        electrons   187.05047152861405     
 total        electrons   187.05047152861405     
 total        electrons   187.05047152861405     
 total        electrons   187.05047152861405     
 total        electrons   187.05047152861405     
 total        electrons   187.05047152861405     
 total        electrons   187.05047152861405     
 total        electrons   187.05047152861405     
 total        electrons   187.05047152861405     
 total        electrons   187.05047152861405     
 total        electrons   187.05047152861405     
 total        electrons   187.05047152861405     
 total        electrons   187.05047152861405     
 total        electrons   187.05047152861405     
 total        electrons   187.05047152861405     
 total        electrons   187.05047152861405     
 total        electrons   187.05047152861405     
 total        electrons   187.05047152861405     
 total        electrons   187.05047152861405     
 total        electrons   187.05047152861405     
 total        electrons   187.05047152861405     
 total        electrons   187.05047152861405     
 total        electrons   187.05047152861405     
Note: The following floating-point exceptions are signalling: IEEE_OVERFLOW_FLAG
Note: The following floating-point exceptions are signalling: IEEE_OVERFLOW_FLAG
Note: The following floating-point exceptions are signalling: IEEE_OVERFLOW_FLAG
Note: The following floating-point exceptions are signalling: IEEE_OVERFLOW_FLAG
Note: The following floating-point exceptions are signalling: IEEE_OVERFLOW_FLAG
Note: The following floating-point exceptions are signalling: IEEE_OVERFLOW_FLAG
Note: The following floating-point exceptions are signalling: IEEE_OVERFLOW_FLAG
Note: The following floating-point exceptions are signalling: IEEE_OVERFLOW_FLAG
Note: The following floating-point exceptions are signalling: IEEE_OVERFLOW_FLAG
Note: The following floating-point exceptions are signalling: IEEE_OVERFLOW_FLAG
Note: The following floating-point exceptions are signalling: IEEE_OVERFLOW_FLAG
Note: The following floating-point exceptions are signalling: IEEE_OVERFLOW_FLAG
Note: The following floating-point exceptions are signalling: IEEE_OVERFLOW_FLAG
Note: The following floating-point exceptions are signalling: IEEE_OVERFLOW_FLAG
Note: The following floating-point exceptions are signalling: IEEE_OVERFLOW_FLAG
Note: The following floating-point exceptions are signalling: IEEE_OVERFLOW_FLAG
Note: The following floating-point exceptions are signalling: IEEE_OVERFLOW_FLAG
Note: The following floating-point exceptions are signalling: IEEE_OVERFLOW_FLAG
Note: The following floating-point exceptions are signalling: IEEE_OVERFLOW_FLAG
Note: The following floating-point exceptions are signalling: IEEE_OVERFLOW_FLAG
Note: The following floating-point exceptions are signalling: IEEE_OVERFLOW_FLAG
Note: The following floating-point exceptions are signalling: IEEE_OVERFLOW_FLAG
Note: The following floating-point exceptions are signalling: IEEE_OVERFLOW_FLAG
Note: The following floating-point exceptions are signalling: IEEE_OVERFLOW_FLAG
Note: The following floating-point exceptions are signalling: IEEE_OVERFLOW_FLAG
Note: The following floating-point exceptions are signalling: IEEE_OVERFLOW_FLAG
Note: The following floating-point exceptions are signalling: IEEE_OVERFLOW_FLAG
Note: The following floating-point exceptions are signalling: IEEE_OVERFLOW_FLAG
Note: The following floating-point exceptions are signalling: IEEE_OVERFLOW_FLAG
Note: The following floating-point exceptions are signalling: IEEE_OVERFLOW_FLAG
Note: The following floating-point exceptions are signalling: IEEE_OVERFLOW_FLAG
Note: The following floating-point exceptions are signalling: IEEE_OVERFLOW_FLAG
Note: The following floating-point exceptions are signalling: IEEE_OVERFLOW_FLAG
Note: The following floating-point exceptions are signalling: IEEE_OVERFLOW_FLAG
Note: The following floating-point exceptions are signalling: IEEE_OVERFLOW_FLAG
Note: The following floating-point exceptions are signalling: IEEE_OVERFLOW_FLAG
Note: The following floating-point exceptions are signalling: IEEE_OVERFLOW_FLAG
Note: The following floating-point exceptions are signalling: IEEE_OVERFLOW_FLAG
Note: The following floating-point exceptions are signalling: IEEE_OVERFLOW_FLAG
Note: The following floating-point exceptions are signalling: IEEE_OVERFLOW_FLAG
Note: The following floating-point exceptions are signalling: IEEE_OVERFLOW_FLAG
Note: The following floating-point exceptions are signalling: IEEE_OVERFLOW_FLAG
Note: The following floating-point exceptions are signalling: IEEE_OVERFLOW_FLAG
Note: The following floating-point exceptions are signalling: IEEE_OVERFLOW_FLAG
Note: The following floating-point exceptions are signalling: IEEE_OVERFLOW_FLAG
Note: The following floating-point exceptions are signalling: IEEE_OVERFLOW_FLAG
Note: The following floating-point exceptions are signalling: IEEE_OVERFLOW_FLAG
Note: The following floating-point exceptions are signalling: IEEE_OVERFLOW_FLAG
