   24   24   85    1
  0.2443449E+02  0.6078000E-09  0.6078000E-09  0.1833000E-08  0.5000000E-15
   1.0000000000000000E-004
  CAR 
 Name                                    
     90     41     60

  0.3742002E-15  0.3742002E-15  0.1262379E-14  0.1234568E-01
    1      -13.868332   1.000000
    2      -12.127875   1.000000
    3      -11.376954   1.000000
    4      -10.935394   1.000000
    5      -10.875917   1.000000
    6      -10.219561   1.000000
    7      -10.084250   1.000000
    8       -9.883795   1.000000
    9       -9.742273   1.000000
   10       -8.842836   1.000000
   11       -8.619792   1.000000
   12       -8.053210   1.000000
   13       -7.738984   1.000000
   14       -7.601640   1.000000
   15       -7.432874   1.000000
   16       -6.349541   1.000000
   17       -6.024783   1.000000
   18       -5.894926   1.000000
   19       -5.620336   1.000000
   20       -4.996428   1.000000
   21       -4.989735   1.000000
   22       -4.741685   1.000000
   23       -4.593939   1.000000
   24       -4.468228   1.000000
   25       -4.322251   1.000000
   26       -4.085751   1.000000
   27       -4.043847   1.000000
   28       -4.028160   1.000000
   29       -3.784802   1.000000
   30       -3.667147   1.000000
   31       -3.629372   1.000000
   32       -3.389609   1.000000
   33       -3.255909   1.000000
   34       -2.995157   1.000000
   35       -1.803937   1.000000
   36       -1.776574   1.000000
   37       -1.731096   1.000000
   38       -1.587000   1.000000
   39       -1.553194   1.000000
   40       -1.116499   1.000165
   41       -0.901183   1.013706
   42       -0.891648   1.015552
   43       -0.648065   0.898081
   44       -0.547482   0.542790
   45       -0.527076   0.456571
   46        0.159004  -0.000005
   47        0.311451  -0.000000
   48        0.578291  -0.000000
   49        0.630572  -0.000000
   50        0.635752  -0.000000
   51        0.652609  -0.000000
   52        0.703497  -0.000000
   53        0.723070  -0.000000
   54        0.832560  -0.000000
   55        1.163762  -0.000000
   56        1.183395  -0.000000
   57        1.239542  -0.000000
   58        1.354445  -0.000000
   59        1.454722  -0.000000
   60        1.700160  -0.000000

  0.1111111E+00  0.3756941E-15  0.1262379E-14  0.2469136E-01
    1      -13.818842   1.000000
    2      -12.096628   1.000000
    3      -11.477666   1.000000
    4      -11.068565   1.000000
    5      -10.987492   1.000000
    6      -10.251825   1.000000
    7      -10.037141   1.000000
    8       -9.703356   1.000000
    9       -9.556554   1.000000
   10       -8.866713   1.000000
   11       -8.743762   1.000000
   12       -8.024656   1.000000
   13       -7.622416   1.000000
   14       -7.446702   1.000000
   15       -7.280011   1.000000
   16       -6.380752   1.000000
   17       -6.116239   1.000000
   18       -5.912139   1.000000
   19       -5.590533   1.000000
   20       -5.057876   1.000000
   21       -4.970381   1.000000
   22       -4.741300   1.000000
   23       -4.611916   1.000000
   24       -4.514623   1.000000
   25       -4.265567   1.000000
   26       -4.179800   1.000000
   27       -4.089129   1.000000
   28       -4.033210   1.000000
   29       -3.936725   1.000000
   30       -3.780721   1.000000
   31       -3.519399   1.000000
   32       -3.333397   1.000000
   33       -3.158726   1.000000
   34       -2.963526   1.000000
   35       -1.939565   1.000000
   36       -1.833734   1.000000
   37       -1.778372   1.000000
   38       -1.687944   1.000000
   39       -1.421765   1.000000
   40       -1.216013   1.000009
   41       -1.032898   1.001278
   42       -0.789018   1.035292
   43       -0.707381   1.001785
   44       -0.686965   0.975538
   45       -0.657410   0.920139
   46        0.028252  -0.000236
   47        0.175624  -0.000003
   48        0.557248  -0.000000
   49        0.578945  -0.000000
   50        0.612669  -0.000000
   51        0.663130  -0.000000
   52        0.700009  -0.000000
   53        0.767979  -0.000000
   54        0.956633  -0.000000
   55        1.040082  -0.000000
   56        1.151224  -0.000000
   57        1.228884  -0.000000
   58        1.276405  -0.000000
   59        1.531878  -0.000000
   60        1.666531  -0.000000

  0.2222222E+00  0.3431732E-15  0.1262379E-14  0.2469136E-01
    1      -13.673196   1.000000
    2      -12.009187   1.000000
    3      -11.814248   1.000000
    4      -11.249308   1.000000
    5      -11.110863   1.000000
    6      -10.446559   1.000000
    7       -9.807409   1.000000
    8       -9.500890   1.000000
    9       -9.256647   1.000000
   10       -8.892006   1.000000
   11       -8.703881   1.000000
   12       -7.892719   1.000000
   13       -7.408305   1.000000
   14       -7.223788   1.000000
   15       -6.825854   1.000000
   16       -6.505068   1.000000
   17       -6.344047   1.000000
   18       -5.884665   1.000000
   19       -5.526039   1.000000
   20       -5.279726   1.000000
   21       -4.946562   1.000000
   22       -4.806599   1.000000
   23       -4.737900   1.000000
   24       -4.613417   1.000000
   25       -4.410610   1.000000
   26       -4.328404   1.000000
   27       -4.137108   1.000000
   28       -4.070110   1.000000
   29       -4.000668   1.000000
   30       -3.778620   1.000000
   31       -3.359874   1.000000
   32       -3.311750   1.000000
   33       -2.968723   1.000000
   34       -2.823016   1.000000
   35       -2.287772   1.000000
   36       -1.981826   1.000000
   37       -1.883899   1.000000
   38       -1.660825   1.000000
   39       -1.493925   1.000000
   40       -1.374368   1.000000
   41       -1.145683   1.000074
   42       -1.061889   1.000658
   43       -0.992264   1.002986
   44       -0.933246   1.008539
   45       -0.616362   0.807141
   46       -0.181192  -0.015180
   47        0.047565  -0.000141
   48        0.333242  -0.000000
   49        0.447304  -0.000000
   50        0.490978  -0.000000
   51        0.581764  -0.000000
   52        0.631397  -0.000000
   53        0.676690  -0.000000
   54        0.903027  -0.000000
   55        0.962059  -0.000000
   56        1.044384  -0.000000
   57        1.192596  -0.000000
   58        1.358616  -0.000000
   59        1.716076  -0.000000
   60        1.825847  -0.000000

  0.3333333E+00  0.3568756E-15  0.1262379E-14  0.2469136E-01
    1      -13.440988   1.000000
    2      -12.255845   1.000000
    3      -11.876678   1.000000
    4      -11.342705   1.000000
    5      -11.213605   1.000000
    6      -10.678478   1.000000
    7       -9.602057   1.000000
    8       -9.436451   1.000000
    9       -9.098324   1.000000
   10       -8.915738   1.000000
   11       -8.135885   1.000000
   12       -7.700237   1.000000
   13       -7.201294   1.000000
   14       -6.922023   1.000000
   15       -6.761456   1.000000
   16       -6.606165   1.000000
   17       -6.361457   1.000000
   18       -5.768368   1.000000
   19       -5.678910   1.000000
   20       -5.485881   1.000000
   21       -5.183696   1.000000
   22       -4.965415   1.000000
   23       -4.915392   1.000000
   24       -4.694292   1.000000
   25       -4.515909   1.000000
   26       -4.421864   1.000000
   27       -4.152475   1.000000
   28       -4.013427   1.000000
   29       -3.933643   1.000000
   30       -3.730420   1.000000
   31       -3.329703   1.000000
   32       -3.136667   1.000000
   33       -2.813424   1.000000
   34       -2.743262   1.000000
   35       -2.424392   1.000000
   36       -2.143683   1.000000
   37       -2.021742   1.000000
   38       -1.752628   1.000000
   39       -1.643909   1.000000
   40       -1.590897   1.000000
   41       -1.433382   1.000000
   42       -1.352049   1.000000
   43       -1.252553   1.000003
   44       -0.883269   1.017278
   45       -0.789125   1.035287
   46       -0.210627  -0.021518
   47       -0.062053  -0.001975
   48        0.098224  -0.000033
   49        0.186805  -0.000002
   50        0.309645  -0.000000
   51        0.393116  -0.000000
   52        0.428159  -0.000000
   53        0.553321  -0.000000
   54        0.717400  -0.000000
   55        0.861427  -0.000000
   56        1.017132  -0.000000
   57        1.210007  -0.000000
   58        1.485448  -0.000000
   59        1.927896  -0.000000
   60        2.038398  -0.000000

  0.4444444E+00  0.3276888E-15  0.1262379E-14  0.2469136E-01
    1      -13.154903   1.000000
    2      -12.655068   1.000000
    3      -11.763037   1.000000
    4      -11.391694   1.000000
    5      -11.268533   1.000000
    6      -10.853839   1.000000
    7       -9.586248   1.000000
    8       -9.337147   1.000000
    9       -9.003584   1.000000
   10       -8.853653   1.000000
   11       -7.579773   1.000000
   12       -7.405535   1.000000
   13       -7.131503   1.000000
   14       -6.975948   1.000000
   15       -6.758693   1.000000
   16       -6.690373   1.000000
   17       -6.405694   1.000000
   18       -5.989814   1.000000
   19       -5.610219   1.000000
   20       -5.497719   1.000000
   21       -5.274849   1.000000
   22       -5.230448   1.000000
   23       -4.916384   1.000000
   24       -4.749037   1.000000
   25       -4.576268   1.000000
   26       -4.419975   1.000000
   27       -4.191980   1.000000
   28       -4.000646   1.000000
   29       -3.937333   1.000000
   30       -3.642496   1.000000
   31       -3.274700   1.000000
   32       -2.988715   1.000000
   33       -2.900042   1.000000
   34       -2.633778   1.000000
   35       -2.287031   1.000000
   36       -2.205875   1.000000
   37       -2.071779   1.000000
   38       -1.957878   1.000000
   39       -1.913487   1.000000
   40       -1.714406   1.000000
   41       -1.647760   1.000000
   42       -1.453602   1.000000
   43       -1.399923   1.000000
   44       -0.989259   1.003167
   45       -0.588676   0.709432
   46       -0.355216  -0.013206
   47       -0.211537  -0.021726
   48       -0.037135  -0.001152
   49        0.042831  -0.000161
   50        0.149863  -0.000007
   51        0.242167  -0.000000
   52        0.311016  -0.000000
   53        0.454618  -0.000000
   54        0.703585  -0.000000
   55        0.838773  -0.000000
   56        0.954950  -0.000000
   57        1.131126  -0.000000
   58        1.554400  -0.000000
   59        2.084074  -0.000000
   60        2.167071  -0.000000

  0.3742002E-15  0.1111111E+00  0.1262379E-14  0.2469136E-01
    1      -13.818843   1.000000
    2      -12.096634   1.000000
    3      -11.477788   1.000000
    4      -11.068262   1.000000
    5      -10.987650   1.000000
    6      -10.251689   1.000000
    7      -10.037021   1.000000
    8       -9.703701   1.000000
    9       -9.556542   1.000000
   10       -8.866892   1.000000
   11       -8.743818   1.000000
   12       -8.024727   1.000000
   13       -7.621298   1.000000
   14       -7.446586   1.000000
   15       -7.280829   1.000000
   16       -6.380798   1.000000
   17       -6.116111   1.000000
   18       -5.912233   1.000000
   19       -5.590501   1.000000
   20       -5.058283   1.000000
   21       -4.970018   1.000000
   22       -4.741135   1.000000
   23       -4.611905   1.000000
   24       -4.514579   1.000000
   25       -4.265947   1.000000
   26       -4.179276   1.000000
   27       -4.088993   1.000000
   28       -4.033500   1.000000
   29       -3.936984   1.000000
   30       -3.780601   1.000000
   31       -3.519471   1.000000
   32       -3.333305   1.000000
   33       -3.159127   1.000000
   34       -2.963283   1.000000
   35       -1.940307   1.000000
   36       -1.833741   1.000000
   37       -1.777942   1.000000
   38       -1.687219   1.000000
   39       -1.422087   1.000000
   40       -1.216601   1.000009
   41       -1.032390   1.001293
   42       -0.789051   1.035290
   43       -0.707500   1.001911
   44       -0.686684   0.975111
   45       -0.657576   0.920512
   46        0.027861  -0.000239
   47        0.175854  -0.000003
   48        0.556986  -0.000000
   49        0.578902  -0.000000
   50        0.612846  -0.000000
   51        0.663187  -0.000000
   52        0.699540  -0.000000
   53        0.768410  -0.000000
   54        0.956715  -0.000000
   55        1.040411  -0.000000
   56        1.150948  -0.000000
   57        1.229269  -0.000000
   58        1.276411  -0.000000
   59        1.531920  -0.000000
   60        1.666707  -0.000000

  0.1111111E+00  0.1111111E+00  0.1262379E-14  0.2469136E-01
    1      -13.721327   1.000000
    2      -12.035104   1.000000
    3      -11.654294   1.000000
    4      -11.384320   1.000000
    5      -10.939826   1.000000
    6      -10.384747   1.000000
    7       -9.972043   1.000000
    8       -9.474167   1.000000
    9       -9.299641   1.000000
   10       -8.837646   1.000000
   11       -8.741553   1.000000
   12       -8.136647   1.000000
   13       -7.373801   1.000000
   14       -7.247238   1.000000
   15       -6.978704   1.000000
   16       -6.502700   1.000000
   17       -6.223670   1.000000
   18       -5.921522   1.000000
   19       -5.528723   1.000000
   20       -5.217568   1.000000
   21       -4.965104   1.000000
   22       -4.747545   1.000000
   23       -4.623516   1.000000
   24       -4.609484   1.000000
   25       -4.402986   1.000000
   26       -4.256413   1.000000
   27       -4.147604   1.000000
   28       -4.067471   1.000000
   29       -4.016092   1.000000
   30       -3.803181   1.000000
   31       -3.408261   1.000000
   32       -3.269868   1.000000
   33       -3.062107   1.000000
   34       -2.860419   1.000000
   35       -2.153701   1.000000
   36       -1.944305   1.000000
   37       -1.794143   1.000000
   38       -1.754792   1.000000
   39       -1.405747   1.000000
   40       -1.353975   1.000000
   41       -1.123399   1.000137
   42       -1.021428   1.001641
   43       -0.900726   1.013792
   44       -0.888215   1.016248
   45       -0.535874   0.493734
   46       -0.089430  -0.003420
   47        0.012490  -0.000354
   48        0.345889  -0.000000
   49        0.437593  -0.000000
   50        0.552547  -0.000000
   51        0.611881  -0.000000
   52        0.657476  -0.000000
   53        0.774462  -0.000000
   54        0.938007  -0.000000
   55        1.101511  -0.000000
   56        1.170180  -0.000000
   57        1.202546  -0.000000
   58        1.206129  -0.000000
   59        1.370083  -0.000000
   60        1.989011  -0.000000

  0.2222222E+00  0.1111111E+00  0.1262379E-14  0.2469136E-01
    1      -13.531987   1.000000
    2      -12.020632   1.000000
    3      -11.917059   1.000000
    4      -11.624308   1.000000
    5      -10.916284   1.000000
    6      -10.554078   1.000000
    7       -9.861716   1.000000
    8       -9.550577   1.000000
    9       -8.925605   1.000000
   10       -8.715271   1.000000
   11       -8.440452   1.000000
   12       -8.040374   1.000000
   13       -7.198911   1.000000
   14       -6.935519   1.000000
   15       -6.822247   1.000000
   16       -6.436009   1.000000
   17       -6.329073   1.000000
   18       -5.927260   1.000000
   19       -5.565668   1.000000
   20       -5.468580   1.000000
   21       -5.041267   1.000000
   22       -4.909122   1.000000
   23       -4.861562   1.000000
   24       -4.718219   1.000000
   25       -4.568872   1.000000
   26       -4.350512   1.000000
   27       -4.150990   1.000000
   28       -4.060663   1.000000
   29       -3.894283   1.000000
   30       -3.770124   1.000000
   31       -3.306059   1.000000
   32       -3.162206   1.000000
   33       -2.964693   1.000000
   34       -2.659224   1.000000
   35       -2.427881   1.000000
   36       -2.039767   1.000000
   37       -1.989388   1.000000
   38       -1.737076   1.000000
   39       -1.591004   1.000000
   40       -1.476695   1.000000
   41       -1.397731   1.000000
   42       -1.207182   1.000012
   43       -1.174165   1.000032
   44       -1.065327   1.000606
   45       -0.488734   0.300854
   46       -0.202644  -0.019714
   47       -0.091582  -0.003564
   48        0.055913  -0.000113
   49        0.134960  -0.000011
   50        0.421436  -0.000000
   51        0.482508  -0.000000
   52        0.557742  -0.000000
   53        0.685553  -0.000000
   54        0.831083  -0.000000
   55        0.905861  -0.000000
   56        1.037857  -0.000000
   57        1.302681  -0.000000
   58        1.341389  -0.000000
   59        1.445848  -0.000000
   60        2.201405  -0.000000

  0.3333333E+00  0.1111111E+00  0.1262379E-14  0.2469136E-01
    1      -13.266248   1.000000
    2      -12.440549   1.000000
    3      -11.803309   1.000000
    4      -11.725305   1.000000
    5      -10.925131   1.000000
    6      -10.739583   1.000000
    7       -9.846711   1.000000
    8       -9.472424   1.000000
    9       -8.885068   1.000000
   10       -8.570513   1.000000
   11       -7.869021   1.000000
   12       -7.692426   1.000000
   13       -7.312272   1.000000
   14       -6.797180   1.000000
   15       -6.624023   1.000000
   16       -6.488020   1.000000
   17       -6.356543   1.000000
   18       -5.905639   1.000000
   19       -5.754892   1.000000
   20       -5.493533   1.000000
   21       -5.343153   1.000000
   22       -5.159940   1.000000
   23       -4.969279   1.000000
   24       -4.840746   1.000000
   25       -4.537964   1.000000
   26       -4.436617   1.000000
   27       -4.127358   1.000000
   28       -4.010349   1.000000
   29       -3.878048   1.000000
   30       -3.624395   1.000000
   31       -3.272107   1.000000
   32       -3.020303   1.000000
   33       -2.910124   1.000000
   34       -2.623198   1.000000
   35       -2.378091   1.000000
   36       -2.218226   1.000000
   37       -2.104595   1.000000
   38       -1.833744   1.000000
   39       -1.821215   1.000000
   40       -1.618668   1.000000
   41       -1.501114   1.000000
   42       -1.436120   1.000000
   43       -1.382755   1.000000
   44       -1.030710   1.001342
   45       -0.606899   0.775472
   46       -0.410234   0.064648
   47       -0.251328  -0.030620
   48        0.007977  -0.000397
   49        0.078775  -0.000059
   50        0.175111  -0.000003
   51        0.317523  -0.000000
   52        0.441562  -0.000000
   53        0.533586  -0.000000
   54        0.647336  -0.000000
   55        0.860826  -0.000000
   56        0.965877  -0.000000
   57        1.278891  -0.000000
   58        1.425553  -0.000000
   59        1.593166  -0.000000
   60        2.244502  -0.000000

  0.4444444E+00  0.1111111E+00  0.1262379E-14  0.2469136E-01
    1      -13.035576   1.000000
    2      -12.729844   1.000000
    3      -11.804605   1.000000
    4      -11.691789   1.000000
    5      -10.916239   1.000000
    6      -10.841839   1.000000
    7       -9.878656   1.000000
    8       -9.354063   1.000000
    9       -8.981417   1.000000
   10       -8.440685   1.000000
   11       -7.658831   1.000000
   12       -7.366769   1.000000
   13       -7.123427   1.000000
   14       -7.015817   1.000000
   15       -6.763145   1.000000
   16       -6.604368   1.000000
   17       -6.188105   1.000000
   18       -6.069085   1.000000
   19       -5.661256   1.000000
   20       -5.536557   1.000000
   21       -5.471254   1.000000
   22       -5.200683   1.000000
   23       -4.918445   1.000000
   24       -4.895730   1.000000
   25       -4.734952   1.000000
   26       -4.423919   1.000000
   27       -4.057834   1.000000
   28       -3.983732   1.000000
   29       -3.876106   1.000000
   30       -3.546521   1.000000
   31       -3.255320   1.000000
   32       -3.040369   1.000000
   33       -2.912986   1.000000
   34       -2.562058   1.000000
   35       -2.358758   1.000000
   36       -2.265520   1.000000
   37       -2.042341   1.000000
   38       -1.945353   1.000000
   39       -1.872887   1.000000
   40       -1.733359   1.000000
   41       -1.668385   1.000000
   42       -1.495063   1.000000
   43       -1.394093   1.000000
   44       -0.958810   1.005567
   45       -0.550098   0.553801
   46       -0.477208   0.257810
   47       -0.453484   0.177352
   48       -0.160935  -0.011481
   49        0.134443  -0.000011
   50        0.195696  -0.000001
   51        0.228989  -0.000000
   52        0.325690  -0.000000
   53        0.481747  -0.000000
   54        0.642576  -0.000000
   55        0.834240  -0.000000
   56        0.925853  -0.000000
   57        1.220354  -0.000000
   58        1.472138  -0.000000
   59        1.658867  -0.000000
   60        2.307838  -0.000000

 -0.4444444E+00  0.1111111E+00  0.1262379E-14  0.2469136E-01
    1      -13.264793   1.000000
    2      -12.447450   1.000000
    3      -11.847290   1.000000
    4      -11.671625   1.000000
    5      -10.914440   1.000000
    6      -10.735197   1.000000
    7       -9.864064   1.000000
    8       -9.478484   1.000000
    9       -8.946703   1.000000
   10       -8.539798   1.000000
   11       -7.797159   1.000000
   12       -7.746515   1.000000
   13       -7.123819   1.000000
   14       -6.895441   1.000000
   15       -6.679832   1.000000
   16       -6.506030   1.000000
   17       -6.374492   1.000000
   18       -5.863228   1.000000
   19       -5.734471   1.000000
   20       -5.568543   1.000000
   21       -5.299557   1.000000
   22       -5.138174   1.000000
   23       -5.004809   1.000000
   24       -4.874417   1.000000
   25       -4.593501   1.000000
   26       -4.397822   1.000000
   27       -4.118109   1.000000
   28       -4.012631   1.000000
   29       -3.801197   1.000000
   30       -3.605999   1.000000
   31       -3.316729   1.000000
   32       -3.098497   1.000000
   33       -2.920813   1.000000
   34       -2.583931   1.000000
   35       -2.389808   1.000000
   36       -2.170667   1.000000
   37       -2.107863   1.000000
   38       -1.818257   1.000000
   39       -1.774490   1.000000
   40       -1.704140   1.000000
   41       -1.563557   1.000000
   42       -1.435782   1.000000
   43       -1.328837   1.000000
   44       -0.962275   1.005236
   45       -0.645017   0.890411
   46       -0.343678  -0.021527
   47       -0.267719  -0.033484
   48        0.005646  -0.000420
   49        0.030701  -0.000222
   50        0.168010  -0.000004
   51        0.319566  -0.000000
   52        0.456505  -0.000000
   53        0.554425  -0.000000
   54        0.690894  -0.000000
   55        0.804365  -0.000000
   56        0.971599  -0.000000
   57        1.256911  -0.000000
   58        1.454676  -0.000000
   59        1.596684  -0.000000
   60        2.228851  -0.000000

 -0.3333333E+00  0.1111111E+00  0.1262379E-14  0.2469136E-01
    1      -13.531225   1.000000
    2      -12.032222   1.000000
    3      -11.944852   1.000000
    4      -11.581294   1.000000
    5      -10.912792   1.000000
    6      -10.507407   1.000000
    7       -9.876889   1.000000
    8       -9.620334   1.000000
    9       -9.008129   1.000000
   10       -8.715314   1.000000
   11       -8.423354   1.000000
   12       -7.811336   1.000000
   13       -7.295896   1.000000
   14       -6.964363   1.000000
   15       -6.725849   1.000000
   16       -6.496744   1.000000
   17       -6.345208   1.000000
   18       -5.959463   1.000000
   19       -5.580415   1.000000
   20       -5.439225   1.000000
   21       -5.003535   1.000000
   22       -4.976478   1.000000
   23       -4.905182   1.000000
   24       -4.778492   1.000000
   25       -4.498338   1.000000
   26       -4.306819   1.000000
   27       -4.158292   1.000000
   28       -4.069213   1.000000
   29       -3.907768   1.000000
   30       -3.726601   1.000000
   31       -3.364651   1.000000
   32       -3.160474   1.000000
   33       -2.909700   1.000000
   34       -2.652502   1.000000
   35       -2.505252   1.000000
   36       -2.065803   1.000000
   37       -1.922740   1.000000
   38       -1.767137   1.000000
   39       -1.581813   1.000000
   40       -1.486137   1.000000
   41       -1.356738   1.000000
   42       -1.273664   1.000001
   43       -1.156351   1.000054
   44       -0.979110   1.003847
   45       -0.555209   0.575217
   46       -0.195642  -0.018176
   47       -0.047354  -0.001444
   48        0.044179  -0.000155
   49        0.163964  -0.000004
   50        0.416277  -0.000000
   51        0.489260  -0.000000
   52        0.599176  -0.000000
   53        0.676712  -0.000000
   54        0.770512  -0.000000
   55        0.904156  -0.000000
   56        1.080181  -0.000000
   57        1.267252  -0.000000
   58        1.388452  -0.000000
   59        1.461375  -0.000000
   60        2.106168  -0.000000

 -0.2222222E+00  0.1111111E+00  0.1262379E-14  0.2469136E-01
    1      -13.720980   1.000000
    2      -12.043855   1.000000
    3      -11.677369   1.000000
    4      -11.354917   1.000000
    5      -10.930451   1.000000
    6      -10.293772   1.000000
    7       -9.985924   1.000000
    8       -9.640983   1.000000
    9       -9.310088   1.000000
   10       -8.902302   1.000000
   11       -8.689130   1.000000
   12       -7.809142   1.000000
   13       -7.565349   1.000000
   14       -7.235704   1.000000
   15       -7.029170   1.000000
   16       -6.460893   1.000000
   17       -6.147781   1.000000
   18       -6.017812   1.000000
   19       -5.588114   1.000000
   20       -5.149531   1.000000
   21       -4.937291   1.000000
   22       -4.865981   1.000000
   23       -4.652721   1.000000
   24       -4.595562   1.000000
   25       -4.384132   1.000000
   26       -4.228639   1.000000
   27       -4.155338   1.000000
   28       -4.072771   1.000000
   29       -3.995727   1.000000
   30       -3.781774   1.000000
   31       -3.423529   1.000000
   32       -3.236617   1.000000
   33       -3.071487   1.000000
   34       -2.878830   1.000000
   35       -2.157375   1.000000
   36       -1.965904   1.000000
   37       -1.803079   1.000000
   38       -1.720688   1.000000
   39       -1.458564   1.000000
   40       -1.384534   1.000000
   41       -1.043095   1.001018
   42       -0.986663   1.003330
   43       -0.948814   1.006614
   44       -0.835977   1.027957
   45       -0.592867   0.725162
   46       -0.146007  -0.009171
   47        0.096643  -0.000035
   48        0.378775  -0.000000
   49        0.436334  -0.000000
   50        0.572320  -0.000000
   51        0.628547  -0.000000
   52        0.639841  -0.000000
   53        0.773852  -0.000000
   54        0.885024  -0.000000
   55        1.125645  -0.000000
   56        1.178331  -0.000000
   57        1.236981  -0.000000
   58        1.268887  -0.000000
   59        1.343401  -0.000000
   60        1.906751  -0.000000

 -0.1111111E+00  0.1111111E+00  0.1262379E-14  0.2469136E-01
    1      -13.818744   1.000000
    2      -12.099247   1.000000
    3      -11.484167   1.000000
    4      -11.099277   1.000000
    5      -10.936302   1.000000
    6      -10.225780   1.000000
    7       -9.986038   1.000000
    8       -9.801503   1.000000
    9       -9.584017   1.000000
   10       -8.948137   1.000000
   11       -8.650310   1.000000
   12       -7.891248   1.000000
   13       -7.674879   1.000000
   14       -7.428670   1.000000
   15       -7.358893   1.000000
   16       -6.374253   1.000000
   17       -6.019157   1.000000
   18       -6.001868   1.000000
   19       -5.610725   1.000000
   20       -5.024556   1.000000
   21       -4.968820   1.000000
   22       -4.806965   1.000000
   23       -4.590083   1.000000
   24       -4.467552   1.000000
   25       -4.380494   1.000000
   26       -4.187374   1.000000
   27       -4.047454   1.000000
   28       -3.998224   1.000000
   29       -3.891206   1.000000
   30       -3.793781   1.000000
   31       -3.545800   1.000000
   32       -3.297332   1.000000
   33       -3.183320   1.000000
   34       -2.968051   1.000000
   35       -1.939134   1.000000
   36       -1.852089   1.000000
   37       -1.788319   1.000000
   38       -1.594004   1.000000
   39       -1.508613   1.000000
   40       -1.282722   1.000001
   41       -0.904053   1.013177
   42       -0.792459   1.035087
   43       -0.762358   1.033709
   44       -0.674285   0.954400
   45       -0.660254   0.926414
   46       -0.012863  -0.000659
   47        0.244221  -0.000000
   48        0.544139  -0.000000
   49        0.588981  -0.000000
   50        0.615295  -0.000000
   51        0.641479  -0.000000
   52        0.678622  -0.000000
   53        0.793672  -0.000000
   54        0.957435  -0.000000
   55        1.086547  -0.000000
   56        1.100819  -0.000000
   57        1.267094  -0.000000
   58        1.350499  -0.000000
   59        1.426915  -0.000000
   60        1.730247  -0.000000

  0.3742002E-15  0.2222222E+00  0.1262379E-14  0.2469136E-01
    1      -13.673196   1.000000
    2      -12.009266   1.000000
    3      -11.814389   1.000000
    4      -11.249002   1.000000
    5      -11.110898   1.000000
    6      -10.446266   1.000000
    7       -9.807365   1.000000
    8       -9.501327   1.000000
    9       -9.257204   1.000000
   10       -8.892064   1.000000
   11       -8.703809   1.000000
   12       -7.892710   1.000000
   13       -7.406698   1.000000
   14       -7.223770   1.000000
   15       -6.826669   1.000000
   16       -6.505146   1.000000
   17       -6.344002   1.000000
   18       -5.884746   1.000000
   19       -5.525725   1.000000
   20       -5.279935   1.000000
   21       -4.946029   1.000000
   22       -4.806517   1.000000
   23       -4.737648   1.000000
   24       -4.613604   1.000000
   25       -4.410744   1.000000
   26       -4.329139   1.000000
   27       -4.136272   1.000000
   28       -4.070616   1.000000
   29       -4.000976   1.000000
   30       -3.778719   1.000000
   31       -3.359892   1.000000
   32       -3.311925   1.000000
   33       -2.968687   1.000000
   34       -2.823015   1.000000
   35       -2.288488   1.000000