   24   24   60    1
  0.8144829E+01  0.6052552E-09  0.6052552E-09  0.6160931E-09  0.5000000E-15
   1.0000000000000000E-004
  CAR 
 Name                                    
     90    125     60

  0.3742002E-15  0.3742002E-15  0.3742002E-15  0.1371742E-02
    1       -5.708007   1.000000
    2       -3.475087   1.000000
    3       -2.170524   1.000000
    4       -1.971615   1.000000
    5       -1.799470   1.000000
    6       -1.626663   1.000000
    7       -1.605353   1.000000
    8       -1.600636   1.000000
    9       -1.398835   1.000000
   10       -1.371280   1.000000
   11       -1.338875   1.000000
   12        0.144169   1.000000
   13        0.491427   1.000000
   14        0.574067   1.000000
   15        0.641926   1.000000
   16        2.635011   1.000000
   17        2.654516   1.000000
   18        3.092216   1.000000
   19        3.331080   1.000000
   20        3.755594   1.000000
   21        3.945605   1.000000
   22        4.446676   1.000000
   23        4.549795   1.000000
   24        4.579600   1.000000
   25        4.674833   1.000000
   26        4.716733   1.000000
   27        4.771929   1.000000
   28        4.841408   1.000000
   29        4.856823   1.000000
   30        4.869704   1.000000
   31        4.919240   1.000000
   32        4.942195   1.000000
   33        5.158647   1.000000
   34        5.318820   1.000000
   35        5.333425   1.000000
   36        5.762353   1.000000
   37        6.313743   1.000000
   38        6.935873   1.000000
   39        7.053615   1.000000
   40        7.517157   1.000000
   41        7.539678   1.000000
   42        7.858015   1.000000
   43        7.942828   1.000000
   44        8.668907   1.000000
   45        8.708933   1.000001
   46        8.865223   1.005462
   47        9.270384  -0.009691
   48        9.292415  -0.004623
   49        9.738863  -0.000000
   50       10.005864  -0.000000
   51       10.020707  -0.000000
   52       10.131235  -0.000000
   53       10.139986  -0.000000
   54       10.230745  -0.000000
   55       10.293350  -0.000000
   56       10.310113  -0.000000
   57       10.336404  -0.000000
   58       10.508315  -0.000000
   59       11.077143  -0.000000
   60       11.880068   0.000000

  0.1111111E+00  0.3798508E-15  0.3742002E-15  0.5486968E-02
    1       -5.648475   1.000000
    2       -3.450729   1.000000
    3       -2.295663   1.000000
    4       -2.206621   1.000000
    5       -1.966148   1.000000
    6       -1.874449   1.000000
    7       -1.866406   1.000000
    8       -1.863199   1.000000
    9       -1.030036   1.000000
   10       -1.023777   1.000000
   11       -0.644994   1.000000
   12        0.223282   1.000000
   13        0.571952   1.000000
   14        0.573542   1.000000
   15        0.746702   1.000000
   16        2.652075   1.000000
   17        2.656837   1.000000
   18        3.109967   1.000000
   19        3.273622   1.000000
   20        3.743437   1.000000
   21        3.821830   1.000000
   22        4.073937   1.000000
   23        4.101903   1.000000
   24        4.459712   1.000000
   25        4.621939   1.000000
   26        4.657026   1.000000
   27        4.754518   1.000000
   28        4.810120   1.000000
   29        4.837179   1.000000
   30        4.867929   1.000000
   31        4.961163   1.000000
   32        5.015283   1.000000
   33        5.272206   1.000000
   34        5.613854   1.000000
   35        5.796743   1.000000
   36        5.968789   1.000000
   37        6.211999   1.000000
   38        6.354688   1.000000
   39        6.431947   1.000000
   40        7.744129   1.000000
   41        7.984098   1.000000
   42        8.066760   1.000000
   43        8.155432   1.000000
   44        8.494957   1.000000
   45        8.592909   1.000000
   46        8.832135   1.001484
   47        9.256946  -0.014259
   48        9.429770  -0.000003
   49        9.751604  -0.000000
   50        9.958318  -0.000000
   51        9.967576  -0.000000
   52       10.107552  -0.000000
   53       10.120158  -0.000000
   54       10.172091  -0.000000
   55       10.277890  -0.000000
   56       10.301518  -0.000000
   57       10.335529  -0.000000
   58       10.480352  -0.000000
   59       10.565186  -0.000000
   60       11.263190  -0.000000

  0.2222222E+00  0.3416340E-15  0.3742002E-15  0.5486968E-02
    1       -5.471221   1.000000
    2       -3.377296   1.000000
    3       -3.028038   1.000000
    4       -2.360532   1.000000
    5       -2.141528   1.000000
    6       -2.135776   1.000000
    7       -1.952975   1.000000
    8       -1.938468   1.000000
    9       -0.522164   1.000000
   10       -0.514929   1.000000
   11        0.207886   1.000000
   12        0.461732   1.000000
   13        0.568960   1.000000
   14        0.598998   1.000000
   15        1.204021   1.000000
   16        2.656714   1.000000
   17        2.675162   1.000000
   18        2.989219   1.000000
   19        3.200338   1.000000
   20        3.339598   1.000000
   21        3.340760   1.000000
   22        3.635587   1.000000
   23        3.717283   1.000000
   24        4.259940   1.000000
   25        4.483056   1.000000
   26        4.667909   1.000000
   27        4.751525   1.000000
   28        4.801579   1.000000
   29        4.864855   1.000000
   30        4.919918   1.000000
   31        5.040586   1.000000
   32        5.221254   1.000000
   33        5.404309   1.000000
   34        5.556183   1.000000
   35        5.731161   1.000000
   36        5.739914   1.000000
   37        5.962220   1.000000
   38        6.493004   1.000000
   39        6.597709   1.000000
   40        7.411812   1.000000
   41        8.080052   1.000000
   42        8.100419   1.000000
   43        8.147884   1.000000
   44        8.787390   1.000170
   45        8.825170   1.001091
   46        9.088946   0.395532
   47        9.208135  -0.034319
   48        9.738613  -0.000000
   49        9.761050  -0.000000
   50        9.807884  -0.000000
   51        9.832706  -0.000000
   52        9.925878  -0.000000
   53       10.047780  -0.000000
   54       10.101104  -0.000000
   55       10.207222  -0.000000
   56       10.336199  -0.000000
   57       10.401295  -0.000000
   58       10.602331  -0.000000
   59       10.766124  -0.000000
   60       11.139211  -0.000000

  0.3333333E+00  0.3656573E-15  0.3742002E-15  0.5486968E-02
    1       -5.180172   1.000000
    2       -3.695190   1.000000
    3       -3.254046   1.000000
    4       -2.608578   1.000000
    5       -2.323389   1.000000
    6       -2.319820   1.000000
    7       -1.950333   1.000000
    8       -1.940041   1.000000
    9        0.033333   1.000000
   10        0.041287   1.000000
   11        0.571421   1.000000
   12        0.601233   1.000000
   13        0.814762   1.000000
   14        1.101031   1.000000
   15        1.858099   1.000000
   16        2.441625   1.000000
   17        2.600600   1.000000
   18        2.633310   1.000000
   19        2.644480   1.000000
   20        2.674533   1.000000
   21        3.409980   1.000000
   22        3.419047   1.000000
   23        3.691889   1.000000
   24        3.813268   1.000000
   25        4.266640   1.000000
   26        4.625409   1.000000
   27        4.643693   1.000000
   28        4.750378   1.000000
   29        4.883153   1.000000
   30        5.064206   1.000000
   31        5.077026   1.000000
   32        5.092323   1.000000
   33        5.335610   1.000000
   34        5.506037   1.000000
   35        5.573233   1.000000
   36        5.656145   1.000000
   37        5.826547   1.000000
   38        6.839168   1.000000
   39        7.250997   1.000000
   40        7.270551   1.000000
   41        7.647375   1.000000
   42        7.672985   1.000000
   43        8.409271   1.000000
   44        8.883431   1.009938
   45        9.137772   0.074337
   46        9.352688  -0.000332
   47        9.397987  -0.000027
   48        9.441703  -0.000002
   49        9.563644  -0.000000
   50        9.844521  -0.000000
   51        9.898069  -0.000000
   52       10.021091  -0.000000
   53       10.047236  -0.000000
   54       10.063734  -0.000000
   55       10.278373  -0.000000
   56       10.339777  -0.000000
   57       10.374946  -0.000000
   58       10.490627  -0.000000
   59       10.554465  -0.000000
   60       10.868325  -0.000000

  0.4444444E+00  0.3381180E-15  0.3742002E-15  0.5486968E-02
    1       -4.781518   1.000000
    2       -4.283332   1.000000
    3       -3.081053   1.000000
    4       -2.861701   1.000000
    5       -2.414368   1.000000
    6       -2.413152   1.000000
    7       -1.941199   1.000000
    8       -1.935300   1.000000
    9        0.524654   1.000000
   10        0.530166   1.000000
   11        0.581441   1.000000
   12        0.593939   1.000000
   13        1.308222   1.000000
   14        1.849987   1.000000
   15        1.942580   1.000000
   16        2.031191   1.000000
   17        2.041793   1.000000
   18        2.525574   1.000000
   19        2.622831   1.000000
   20        2.767124   1.000000
   21        2.769994   1.000000
   22        3.506763   1.000000
   23        3.679550   1.000000
   24        3.692080   1.000000
   25        3.764214   1.000000
   26        4.200087   1.000000
   27        4.659411   1.000000
   28        4.700566   1.000000
   29        5.001467   1.000000
   30        5.078176   1.000000
   31        5.114383   1.000000
   32        5.220655   1.000000
   33        5.282436   1.000000
   34        5.356611   1.000000
   35        5.720706   1.000000
   36        5.759539   1.000000
   37        5.979082   1.000000
   38        6.399048   1.000000
   39        7.374757   1.000000
   40        7.385232   1.000000
   41        7.756621   1.000000
   42        7.770472   1.000000
   43        8.728555   1.000005
   44        8.936581   1.031804
   45        8.966349   1.032705
   46        9.002970   0.971580
   47        9.053972   0.685350
   48        9.170558  -0.017818
   49        9.871957  -0.000000
   50        9.962152  -0.000000
   51        9.966571  -0.000000
   52       10.014580  -0.000000
   53       10.019541  -0.000000
   54       10.093891  -0.000000
   55       10.248634  -0.000000
   56       10.305813  -0.000000
   57       10.353238  -0.000000
   58       10.565648  -0.000000
   59       10.670222  -0.000000
   60       10.776658  -0.000000

  0.1111111E+00  0.1111111E+00  0.3742002E-15  0.2743484E-02
    1       -5.529984   1.000000
    2       -3.400919   1.000000
    3       -2.631761   1.000000
    4       -2.627957   1.000000
    5       -2.272778   1.000000
    6       -2.069530   1.000000
    7       -1.843858   1.000000
    8       -1.411922   1.000000
    9       -1.278339   1.000000
   10       -0.221167   1.000000
   11       -0.160628   1.000000
   12        0.382011   1.000000
   13        0.385891   1.000000
   14        0.883061   1.000000
   15        0.955912   1.000000
   16        2.609762   1.000000
   17        2.685508   1.000000
   18        3.118958   1.000000
   19        3.209622   1.000000
   20        3.273870   1.000000
   21        3.541897   1.000000
   22        3.887655   1.000000
   23        4.162860   1.000000
   24        4.212468   1.000000
   25        4.340007   1.000000
   26        4.481877   1.000000
   27        4.730008   1.000000
   28        4.760802   1.000000
   29        4.827310   1.000000
   30        4.914025   1.000000
   31        4.958934   1.000000
   32        5.210440   1.000000
   33        5.701690   1.000000
   34        5.731075   1.000000
   35        5.756650   1.000000
   36        5.919046   1.000000
   37        5.947484   1.000000
   38        6.028635   1.000000
   39        6.587294   1.000000
   40        7.507138   1.000000
   41        8.038936   1.000000
   42        8.105620   1.000000
   43        8.415284   1.000000
   44        8.639570   1.000000
   45        8.734467   1.000007
   46        8.870946   1.006655
   47        9.218179  -0.031140
   48        9.707535  -0.000000
   49        9.773788  -0.000000
   50        9.821088  -0.000000
   51        9.891277  -0.000000
   52       10.017240  -0.000000
   53       10.071428  -0.000000
   54       10.131368  -0.000000
   55       10.169802  -0.000000
   56       10.257397  -0.000000
   57       10.352084  -0.000000
   58       10.435121  -0.000000
   59       11.017292  -0.000000
   60       11.097628  -0.000000

  0.2222222E+00  0.1111111E+00  0.3742002E-15  0.5486968E-02
    1       -5.295725   1.000000
    2       -3.331227   1.000000
    3       -3.302214   1.000000
    4       -2.870511   1.000000
    5       -2.447405   1.000000
    6       -2.218205   1.000000
    7       -1.718780   1.000000
    8       -1.566458   1.000000
    9       -0.770868   1.000000
   10        0.216864   1.000000
   11        0.313932   1.000000
   12        0.627221   1.000000
   13        0.735316   1.000000
   14        1.034323   1.000000
   15        1.526114   1.000000
   16        2.463697   1.000000
   17        2.556997   1.000000
   18        2.739377   1.000000
   19        2.794344   1.000000
   20        3.237589   1.000000
   21        3.354660   1.000000
   22        3.467074   1.000000
   23        3.861466   1.000000
   24        4.010736   1.000000
   25        4.362595   1.000000
   26        4.476672   1.000000
   27        4.607647   1.000000
   28        4.652922   1.000000
   29        4.698480   1.000000
   30        5.088047   1.000000
   31        5.106403   1.000000
   32        5.211042   1.000000
   33        5.373372   1.000000
   34        5.376687   1.000000
   35        5.752776   1.000000
   36        5.842867   1.000000
   37        5.867568   1.000000
   38        6.510262   1.000000
   39        7.151799   1.000000
   40        7.266688   1.000000
   41        7.510267   1.000000
   42        8.229950   1.000000
   43        8.315882   1.000000
   44        8.689884   1.000000
   45        9.144481   0.047356
   46        9.224167  -0.028676
   47        9.572522  -0.000000
   48        9.603106  -0.000000
   49        9.619841  -0.000000
   50        9.792640  -0.000000
   51        9.795447  -0.000000
   52        9.887237  -0.000000
   53       10.066383  -0.000000
   54       10.132464  -0.000000
   55       10.201008  -0.000000
   56       10.227682  -0.000000
   57       10.235514  -0.000000
   58       10.521660  -0.000000
   59       10.620982  -0.000000
   60       10.893517  -0.000000

  0.3333333E+00  0.1111111E+00  0.3742002E-15  0.5486968E-02
    1       -4.950707   1.000000
    2       -3.959442   1.000000
    3       -3.154364   1.000000
    4       -3.015325   1.000000
    5       -2.713572   1.000000
    6       -2.251968   1.000000
    7       -1.699454   1.000000
    8       -1.621415   1.000000
    9       -0.173044   1.000000
   10        0.098603   1.000000
   11        0.816594   1.000000
   12        1.108926   1.000000
   13        1.128297   1.000000
   14        1.547456   1.000000
   15        1.715518   1.000000
   16        2.237433   1.000000
   17        2.245524   1.000000
   18        2.506278   1.000000
   19        2.778679   1.000000
   20        2.848269   1.000000
   21        3.023133   1.000000
   22        3.305964   1.000000
   23        3.599842   1.000000
   24        3.848735   1.000000
   25        4.065063   1.000000
   26        4.321734   1.000000
   27        4.508970   1.000000
   28        4.630040   1.000000
   29        4.644519   1.000000
   30        5.080998   1.000000
   31        5.184705   1.000000
   32        5.189321   1.000000
   33        5.295385   1.000000
   34        5.457718   1.000000
   35        5.631562   1.000000
   36        5.939830   1.000000
   37        5.977658   1.000000
   38        6.582511   1.000000
   39        7.073255   1.000000
   40        7.187369   1.000000
   41        7.913799   1.000000
   42        7.916675   1.000000
   43        8.614245   1.000000
   44        8.800327   1.000333
   45        9.043192   0.765253
   46        9.169558  -0.016351
   47        9.210527  -0.033708
   48        9.402451  -0.000020
   49        9.750286  -0.000000
   50        9.776978  -0.000000
   51        9.924573  -0.000000
   52       10.003798  -0.000000
   53       10.048983  -0.000000
   54       10.134254  -0.000000
   55       10.162261  -0.000000
   56       10.188102  -0.000000
   57       10.406881  -0.000000
   58       10.418804  -0.000000
   59       10.460734  -0.000000
   60       10.803388  -0.000000

  0.4444444E+00  0.1111111E+00  0.3742002E-15  0.5486968E-02
    1       -4.502883   1.000000
    2       -4.502050   1.000000
    3       -3.063082   1.000000
    4       -2.958978   1.000000
    5       -2.958463   1.000000
    6       -2.253467   1.000000
    7       -1.745349   1.000000
    8       -1.586599   1.000000
    9        0.065209   1.000000
   10        0.195366   1.000000
   11        1.097338   1.000000
   12        1.159135   1.000000
   13        1.295220   1.000000
   14        1.633404   1.000000
   15        1.643995   1.000000
   16        2.369671   1.000000
   17        2.373500   1.000000
   18        2.461490   1.000000
   19        2.540860   1.000000
   20        2.799749   1.000000
   21        3.044512   1.000000
   22        3.049219   1.000000
   23        3.164308   1.000000
   24        3.892316   1.000000
   25        3.964762   1.000000
   26        4.087013   1.000000
   27        4.524842   1.000000
   28        4.547451   1.000000
   29        4.769112   1.000000
   30        5.146312   1.000000
   31        5.161322   1.000000
   32        5.192342   1.000000
   33        5.249932   1.000000
   34        5.429941   1.000000
   35        5.902306   1.000000
   36        5.910207   1.000000
   37        6.192394   1.000000
   38        6.197343   1.000000
   39        6.894746   1.000000
   40        7.416956   1.000000
   41        7.779279   1.000000
   42        8.312864   1.000000
   43        8.817882   1.000781
   44        8.921392   1.025331
   45        8.925849   1.027362
   46        8.927859   1.028255
   47        9.020575   0.900865
   48        9.054685   0.679795
   49        9.783845  -0.000000
   50        9.816502  -0.000000
   51        9.947477  -0.000000
   52        9.975891  -0.000000
   53       10.090340  -0.000000
   54       10.158081  -0.000000
   55       10.206038  -0.000000
   56       10.304040  -0.000000
   57       10.306298  -0.000000
   58       10.311028  -0.000000
   59       10.459259  -0.000000
   60       11.034351  -0.000000

 -0.4444444E+00  0.1111111E+00  0.3742002E-15  0.5486968E-02
    1       -4.951397   1.000000
    2       -3.958541   1.000000
    3       -3.157983   1.000000
    4       -3.013518   1.000000
    5       -2.723197   1.000000
    6       -2.236295   1.000000
    7       -1.702654   1.000000
    8       -1.624397   1.000000
    9       -0.175752   1.000000
   10        0.124894   1.000000
   11        0.833623   1.000000
   12        1.101594   1.000000
   13        1.124180   1.000000
   14        1.522536   1.000000
   15        1.749782   1.000000
   16        2.133917   1.000000
   17        2.218684   1.000000
   18        2.602064   1.000000
   19        2.808030   1.000000
   20        2.854608   1.000000
   21        3.129774   1.000000
   22        3.182335   1.000000
   23        3.493143   1.000000
   24        3.851206   1.000000
   25        4.057459   1.000000
   26        4.427698   1.000000
   27        4.436907   1.000000
   28        4.561718   1.000000
   29        4.871887   1.000000
   30        5.020427   1.000000
   31        5.062304   1.000000
   32        5.101698   1.000000
   33        5.399545   1.000000
   34        5.510761   1.000000
   35        5.657658   1.000000
   36        5.957530   1.000000
   37        5.971756   1.000000
   38        6.616987   1.000000
   39        7.089228   1.000000
   40        7.164181   1.000000
   41        7.855378   1.000000
   42        7.890566   1.000000
   43        8.606494   1.000000
   44        8.804898   1.000418
   45        9.039928   0.787713
   46        9.177317  -0.025960
   47        9.232473  -0.024927
   48        9.411271  -0.000012
   49        9.712536  -0.000000
   50        9.778553  -0.000000
   51        9.887446  -0.000000
   52       10.029988  -0.000000
   53       10.083488  -0.000000
   54       10.092837  -0.000000
   55       10.140665  -0.000000
   56       10.241283  -0.000000
   57       10.362447  -0.000000
   58       10.400873  -0.000000
   59       10.706824  -0.000000
   60       10.808618  -0.000000

 -0.3333333E+00  0.1111111E+00  0.3742002E-15  0.5486968E-02
    1       -5.296233   1.000000
    2       -3.330398   1.000000
    3       -3.306736   1.000000
    4       -2.867068   1.000000
    5       -2.468749   1.000000
    6       -2.201684   1.000000
    7       -1.703814   1.000000
    8       -1.573190   1.000000
    9       -0.772853   1.000000
   10        0.250297   1.000000
   11        0.331245   1.000000
   12        0.625207   1.000000
   13        0.725537   1.000000
   14        1.035989   1.000000
   15        1.457766   1.000000
   16        2.481734   1.000000
   17        2.625101   1.000000
   18        2.792508   1.000000
   19        2.802157   1.000000
   20        3.190125   1.000000
   21        3.261152   1.000000
   22        3.465687   1.000000
   23        3.707330   1.000000
   24        4.057165   1.000000
   25        4.308441   1.000000
   26        4.413479   1.000000
   27        4.653990   1.000000
   28        4.866373   1.000000
   29        4.906771   1.000000
   30        4.938829   1.000000
   31        5.033598   1.000000
   32        5.179094   1.000000
   33        5.343272   1.000000
   34        5.393811   1.000000
   35        5.797656   1.000000
   36        5.823003   1.000000
   37        5.909214   1.000000
   38        6.614753   1.000000
   39        7.048035   1.000000
   40        7.249314   1.000000
   41        7.536795   1.000000
   42        8.194969   1.000000
   43        8.293515   1.000000
   44        8.690757   1.000000
   45        9.144778   0.046265
   46        9.225535  -0.028077
   47        9.570171  -0.000000
   48        9.615116  -0.000000
   49        9.621319  -0.000000
   50        9.775337  -0.000000
   51        9.802939  -0.000000
   52        9.854364  -0.000000
   53       10.077075  -0.000000
   54       10.107094  -0.000000
   55       10.198650  -0.000000
   56       10.216556  -0.000000
   57       10.346503  -0.000000
   58       10.514759  -0.000000
   59       10.637963  -0.000000
   60       10.699821  -0.000000

 -0.2222222E+00  0.1111111E+00  0.3742002E-15  0.5486968E-02
    1       -5.530293   1.000000
    2       -3.404361   1.000000
    3       -2.629558   1.000000
    4       -2.624955   1.000000
    5       -2.254964   1.000000
    6       -2.147117   1.000000
    7       -1.768050   1.000000
    8       -1.427987   1.000000
    9       -1.273094   1.000000
   10       -0.192400   1.000000
   11       -0.178928   1.000000
   12        0.378311   1.000000
   13        0.406100   1.000000
   14        0.892176   1.000000
   15        0.908620   1.000000
   16        2.673252   1.000000
   17        2.752335   1.000000
   18        3.025475   1.000000
   19        3.248133   1.000000
   20        3.287864   1.000000
   21        3.399967   1.000000
   22        3.794123   1.000000
   23        4.131783   1.000000
   24        4.190966   1.000000
   25        4.429689   1.000000
   26        4.493842   1.000000
   27        4.748263   1.000000
   28        4.832087   1.000000
   29        4.869916   1.000000
   30        4.951552   1.000000
   31        4.960804   1.000000
   32        5.114093   1.000000
   33        5.642536   1.000000
   34        5.783877   1.000000
   35        5.836671   1.000000
   36        5.866598   1.000000
   37        6.022361   1.000000
   38        6.060243   1.000000
   39        6.487890   1.000000
   40        7.542757   1.000000
   41        8.051663   1.000000
   42        8.055294   1.000000
   43        8.530536   1.000000
   44        8.532917   1.000000
   45        8.718178   1.000002
   46        8.846881   1.002741
   47        9.229215  -0.026424
   48        9.715680  -0.000000
   49        9.769968  -0.000000
   50        9.845076  -0.000000
   51        9.893965  -0.000000
   52        9.954148  -0.000000
   53       10.096460  -0.000000
   54       10.104615  -0.000000
   55       10.144749  -0.000000
   56       10.297863  -0.000000
   57       10.343822  -0.000000
   58       10.429636  -0.000000
   59       10.787602  -0.000000
   60       10.984052  -0.000000

 -0.1111111E+00  0.1111111E+00  0.3742002E-15  0.2743484E-02
    1       -5.648579   1.000000
    2       -3.451993   1.000000
    3       -2.289656   1.000000
    4       -2.176683   1.000000
    5       -2.069019   1.000000
    6       -1.898963   1.000000
    7       -1.847978   1.000000
    8       -1.781209   1.000000
    9       -1.039589   1.000000
   10       -1.019968   1.000000
   11       -0.637720   1.000000
   12        0.222260   1.000000
   13        0.536809   1.000000
   14        0.596969   1.000000
   15        0.751073   1.000000
   16        2.662255   1.000000
   17        2.703222   1.000000
   18        3.029074   1.000000
   19        3.365509   1.000000
   20        3.555245   1.000000
   21        3.862071   1.000000
   22        4.111067   1.000000
   23        4.116626   1.000000
   24        4.471456   1.000000
   25        4.585934   1.000000
   26        4.718400   1.000000
   27        4.781536   1.000000
   28        4.783577   1.000000
   29        4.791820   1.000000
   30        4.881467   1.000000
   31        4.904465   1.000000
   32        5.042517   1.000000
   33        5.326791   1.000000
   34        5.748399   1.000000
   35        5.795878   1.000000
   36        5.829272   1.000000
   37        6.223877   1.000000
   38        6.323409   1.000000
   39        6.454712   1.000000
   40        7.810645   1.000000
   41        7.913374   1.000000
   42        8.044432   1.000000
   43        8.169483   1.000000
   44        8.547761   1.000000
   45        8.678818   1.000000
   46        8.680002   1.000000
   47        9.279616  -0.007218
   48        9.427751  -0.000004
   49        9.749966  -0.000000
   50        9.948752  -0.000000
   51       10.010887  -0.000000
   52       10.060816  -0.000000
   53       10.124480  -0.000000
   54       10.164676  -0.000000
   55       10.285814  -0.000000
   56       10.323007  -0.000000
   57       10.360261  -0.000000
   58       10.505442  -0.000000
   59       10.875377  -0.000000
   60       11.603499  -0.000000

  0.2222222E+00  0.2222222E+00  0.3742002E-15  0.2743484E-02
    1       -5.007437   1.000000
    2       -3.560082   1.000000
    3       -3.508016   1.000000
    4       -3.178699   1.000000
    5       -2.532591   1.000000
    6       -2.488071   1.000000
    7       -1.462554   1.000000
    8       -0.996259   1.000000
    9       -0.882834   1.000000
   10       -0.118578   1.000000
   11        1.006755   1.000000
   12        1.138745   1.000000
   13        1.212288   1.000000
   14        1.490784   1.000000
   15        1.632522   1.000000
   16        1.933337   1.000000
   17        2.466598   1.000000
   18        2.602121   1.000000
   19        2.726511   1.000000
   20        2.851920   1.000000
   21        3.339082   1.000000
   22        3.507418   1.000000
   23        3.605665   1.000000
   24        3.765436   1.000000
   25        3.977901   1.000000
   26        4.353148   1.000000
   27        4.363262   1.000000
   28        4.516429   1.000000
   29        4.555718   1.000000
   30        5.112670   1.000000
   31        5.119704   1.000000
   32        5.309661   1.000000
   33        5.331244   1.000000
   34        5.458724   1.000000
   35        5.499248   1.000000
   36        6.041175   1.000000
   37        6.245880   1.000000
   38        6.609274   1.000000
   39        6.855088   1.000000
   40        6.957509   1.000000
   41        7.936173   1.000000
   42        8.413831   1.000000
   43        8.423144   1.000000
   44        8.575819   1.000000
   45        9.014444   0.929006
   46        9.378671  -0.000083
   47        9.472488  -0.000000
   48        9.486146  -0.000000
   49        9.680728  -0.000000
   50        9.704682  -0.000000
   51        9.727700  -0.000000
   52        9.902038  -0.000000
   53        9.985003  -0.000000
   54       10.090009  -0.000000
   55       10.166382  -0.000000
   56       10.292169  -0.000000
   57       10.321933  -0.000000
   58       10.433295  -0.000000
   59       10.598973  -0.000000
   60       10.885159  -0.000000

  0.3333333E+00  0.2222222E+00  0.3742002E-15  0.5486968E-02
    1       -4.612203   1.000000
    2       -4.120877   1.000000
    3       -3.632926   1.000000
    4       -3.007085   1.000000
    5       -2.793212   1.000000
    6       -2.522911   1.000000
    7       -1.249650   1.000000
    8       -1.042870   1.000000
    9       -0.365327   1.000000
   10       -0.316121   1.000000
   11        0.918737   1.000000
   12        1.488081   1.000000
   13        1.570363   1.000000
   14        1.722520   1.000000
   15        1.964879   1.000000
   16        2.075940   1.000000
   17        2.404813   1.000000
   18        2.528559   1.000000
   19        2.553964   1.000000
   20        2.735999   1.000000
   21        3.007360   1.000000
   22        3.236272   1.000000
   23        3.237479   1.000000
   24        3.714056   1.000000
   25        3.959516   1.000000
   26        3.978767   1.000000
   27        4.282917   1.000000
   28        4.373748   1.000000
   29        4.557723   1.000000
   30        5.089569   1.000000
   31        5.189403   1.000000
   32        5.256635   1.000000
   33        5.415644   1.000000
   34        5.599667   1.000000
   35        5.717946   1.000000