   49   49    1    1
  0.2046891E+02  0.8733603E-09  0.6079487E-09  0.2183401E-08  0.5000000E-15
   1.0000000000000000E-004
  CAR 
 Name                                    
    185     50    120

  0.3742002E-15  0.3742002E-15  0.1262379E-14  0.1010101E-01
    1      -13.255974   1.000000
    2      -11.886259   1.000000
    3      -11.817163   1.000000
    4      -11.398741   1.000000
    5      -10.634321   1.000000
    6      -10.473967   1.000000
    7      -10.344670   1.000000
    8      -10.266816   1.000000
    9      -10.123992   1.000000
   10       -9.962596   1.000000
   11       -9.949371   1.000000
   12       -9.550320   1.000000
   13       -9.423706   1.000000
   14       -9.414407   1.000000
   15       -9.001234   1.000000
   16       -8.990090   1.000000
   17       -8.064905   1.000000
   18       -7.968720   1.000000
   19       -7.962787   1.000000
   20       -7.680030   1.000000
   21       -7.671277   1.000000
   22       -7.410488   1.000000
   23       -7.368092   1.000000
   24       -7.284653   1.000000
   25       -7.258328   1.000000
   26       -7.195472   1.000000
   27       -6.533703   1.000000
   28       -6.133588   1.000000
   29       -5.648517   1.000000
   30       -5.598410   1.000000
   31       -5.554380   1.000000
   32       -5.279751   1.000000
   33       -4.986623   1.000000
   34       -4.952679   1.000000
   35       -4.861340   1.000000
   36       -4.622781   1.000000
   37       -4.548747   1.000000
   38       -4.497035   1.000000
   39       -4.399177   1.000000
   40       -4.248550   1.000000
   41       -4.194006   1.000000
   42       -4.127376   1.000000
   43       -4.027729   1.000000
   44       -3.967440   1.000000
   45       -3.869756   1.000000
   46       -3.794120   1.000000
   47       -3.770413   1.000000
   48       -3.717366   1.000000
   49       -3.687307   1.000000
   50       -3.628986   1.000000
   51       -3.625043   1.000000
   52       -3.398566   1.000000
   53       -3.262606   1.000000
   54       -3.176138   1.000000
   55       -3.160110   1.000000
   56       -3.052405   1.000000
   57       -3.048219   1.000000
   58       -2.972044   1.000000
   59       -2.795020   1.000000
   60       -2.752966   1.000000
   61       -2.729633   1.000000
   62       -2.678955   1.000000
   63       -2.585068   1.000000
   64       -2.531879   1.000000
   65       -2.477069   1.000000
   66       -2.397025   1.000000
   67       -2.299683   1.000000
   68       -2.264794   1.000000
   69       -2.236420   1.000000
   70       -2.157952   1.000000
   71       -1.682187   1.000000
   72       -1.667122   1.000000
   73       -1.661540   1.000000
   74       -1.475593   1.000000
   75       -1.421096   1.000000
   76       -1.397422   1.000000
   77       -1.368886   1.000000
   78       -1.220286   1.000000
   79       -1.158035   1.000000
   80       -1.116765   1.000000
   81       -0.923488   1.000000
   82       -0.763476   1.000000
   83       -0.578900   1.000000
   84       -0.323407   1.000000
   85       -0.295029   1.000000
   86       -0.086581   1.000000
   87       -0.009836   1.000000
   88        0.033919   1.000000
   89        0.058772   1.000000
   90        0.464982   1.006020
   91        0.497592   1.016066
   92        0.787473  -0.034221
   93        0.811828  -0.032354
   94        0.845250  -0.017777
   95        0.867214  -0.009733
   96        0.909560  -0.002107
   97        1.026980  -0.000003
   98        1.192809  -0.000000
   99        1.302396  -0.000000
  100        1.322920  -0.000000
  101        1.357161  -0.000000
  102        1.407147  -0.000000
  103        1.433704  -0.000000
  104        1.487075  -0.000000
  105        1.491634  -0.000000
  106        1.839769  -0.000000
  107        1.871555  -0.000000
  108        1.898010  -0.000000
  109        1.932868  -0.000000
  110        1.944607  -0.000000
  111        2.019913  -0.000000
  112        2.066015  -0.000000
  113        2.083647  -0.000000
  114        2.104265  -0.000000
  115        2.221437  -0.000000
  116        2.256520  -0.000000
  117        2.464316  -0.000000
  118        2.624224  -0.000000
  119        4.212851   0.000000
  120        4.699804   0.000000

  0.1111111E+00  0.3694577E-15  0.1266495E-14  0.2020202E-01
    1      -13.230931   1.000000
    2      -11.943784   1.000000
    3      -11.864164   1.000000
    4      -11.321561   1.000000
    5      -10.624011   1.000000
    6      -10.502104   1.000000
    7      -10.333289   1.000000
    8      -10.268658   1.000000
    9      -10.125600   1.000000
   10       -9.954602   1.000000
   11       -9.940602   1.000000
   12       -9.552567   1.000000
   13       -9.425989   1.000000
   14       -9.417321   1.000000
   15       -8.983724   1.000000
   16       -8.971927   1.000000
   17       -8.053408   1.000000
   18       -7.968851   1.000000
   19       -7.958292   1.000000
   20       -7.690521   1.000000
   21       -7.683659   1.000000
   22       -7.463938   1.000000
   23       -7.451815   1.000000
   24       -7.262865   1.000000
   25       -7.258800   1.000000
   26       -7.132280   1.000000
   27       -6.619627   1.000000
   28       -6.148624   1.000000
   29       -5.616437   1.000000
   30       -5.564399   1.000000
   31       -5.471214   1.000000
   32       -5.259105   1.000000
   33       -5.006458   1.000000
   34       -4.950477   1.000000
   35       -4.857718   1.000000
   36       -4.808892   1.000000
   37       -4.505455   1.000000
   38       -4.479573   1.000000
   39       -4.274021   1.000000
   40       -4.260000   1.000000
   41       -4.243337   1.000000
   42       -4.016939   1.000000
   43       -4.005262   1.000000
   44       -3.956841   1.000000
   45       -3.824601   1.000000
   46       -3.814380   1.000000
   47       -3.788317   1.000000
   48       -3.711754   1.000000
   49       -3.669513   1.000000
   50       -3.616242   1.000000
   51       -3.605161   1.000000
   52       -3.390617   1.000000
   53       -3.250864   1.000000
   54       -3.179780   1.000000
   55       -3.142304   1.000000
   56       -3.084160   1.000000
   57       -3.072026   1.000000
   58       -2.995336   1.000000
   59       -2.828140   1.000000
   60       -2.749718   1.000000
   61       -2.725744   1.000000
   62       -2.649076   1.000000
   63       -2.586092   1.000000
   64       -2.572207   1.000000
   65       -2.462405   1.000000
   66       -2.415180   1.000000
   67       -2.271504   1.000000
   68       -2.251871   1.000000
   69       -2.241765   1.000000
   70       -2.135227   1.000000
   71       -1.757277   1.000000
   72       -1.704222   1.000000
   73       -1.633657   1.000000
   74       -1.511412   1.000000
   75       -1.464538   1.000000
   76       -1.417796   1.000000
   77       -1.387694   1.000000
   78       -1.255852   1.000000
   79       -1.187478   1.000000
   80       -1.116665   1.000000
   81       -0.879620   1.000000
   82       -0.670314   1.000000
   83       -0.615078   1.000000
   84       -0.358028   1.000000
   85       -0.330344   1.000000
   86       -0.100605   1.000000
   87        0.003893   1.000000
   88        0.051940   1.000000
   89        0.138138   1.000000
   90        0.433322   1.001778
   91        0.452282   1.003802
   92        0.748247   0.024537
   93        0.799969  -0.035221
   94        0.856802  -0.013183
   95        0.941272  -0.000504
   96        0.997514  -0.000023
   97        1.009675  -0.000011
   98        1.173894  -0.000000
   99        1.261093  -0.000000
  100        1.353369  -0.000000
  101        1.374281  -0.000000
  102        1.422172  -0.000000
  103        1.465017  -0.000000
  104        1.505594  -0.000000
  105        1.511175  -0.000000
  106        1.852102  -0.000000
  107        1.888018  -0.000000
  108        1.909929  -0.000000
  109        1.919737  -0.000000
  110        1.976644  -0.000000
  111        2.039058  -0.000000
  112        2.069010  -0.000000
  113        2.094603  -0.000000
  114        2.143173  -0.000000
  115        2.247135  -0.000000
  116        2.343099  -0.000000
  117        2.451421  -0.000000
  118        2.552075  -0.000000
  119        2.592110  -0.000000
  120        4.277784   0.000000

  0.2222222E+00  0.3681327E-15  0.1265439E-14  0.2020202E-01
    1      -13.156450   1.000000
    2      -12.180612   1.000000
    3      -11.800019   1.000000
    4      -11.250120   1.000000
    5      -10.596359   1.000000
    6      -10.544853   1.000000
    7      -10.308641   1.000000
    8      -10.273176   1.000000
    9      -10.114950   1.000000
   10       -9.937564   1.000000
   11       -9.917318   1.000000
   12       -9.583753   1.000000
   13       -9.439855   1.000000
   14       -9.418593   1.000000
   15       -8.931056   1.000000
   16       -8.919038   1.000000
   17       -8.011894   1.000000
   18       -7.977752   1.000000
   19       -7.936501   1.000000
   20       -7.741637   1.000000
   21       -7.738019   1.000000
   22       -7.554225   1.000000
   23       -7.546166   1.000000
   24       -7.288882   1.000000
   25       -7.276081   1.000000
   26       -6.975522   1.000000
   27       -6.825397   1.000000
   28       -6.128990   1.000000
   29       -5.560702   1.000000
   30       -5.529139   1.000000
   31       -5.394035   1.000000
   32       -5.237477   1.000000
   33       -5.139830   1.000000
   34       -4.926708   1.000000
   35       -4.818545   1.000000
   36       -4.810381   1.000000
   37       -4.525772   1.000000
   38       -4.360568   1.000000
   39       -4.259543   1.000000
   40       -4.237209   1.000000
   41       -4.168575   1.000000
   42       -4.022787   1.000000
   43       -3.934046   1.000000
   44       -3.892150   1.000000
   45       -3.866067   1.000000
   46       -3.776733   1.000000
   47       -3.718640   1.000000
   48       -3.697020   1.000000
   49       -3.611528   1.000000
   50       -3.597086   1.000000
   51       -3.545576   1.000000
   52       -3.387624   1.000000
   53       -3.248019   1.000000
   54       -3.188458   1.000000
   55       -3.160560   1.000000
   56       -3.138611   1.000000
   57       -3.077593   1.000000
   58       -3.004102   1.000000
   59       -2.850257   1.000000
   60       -2.754163   1.000000
   61       -2.726486   1.000000
   62       -2.650309   1.000000
   63       -2.625893   1.000000
   64       -2.555734   1.000000
   65       -2.493310   1.000000
   66       -2.458892   1.000000
   67       -2.305997   1.000000
   68       -2.196905   1.000000
   69       -2.136297   1.000000
   70       -2.089064   1.000000
   71       -1.927565   1.000000
   72       -1.785346   1.000000
   73       -1.630495   1.000000
   74       -1.602547   1.000000
   75       -1.531370   1.000000
   76       -1.473503   1.000000
   77       -1.420820   1.000000
   78       -1.351599   1.000000
   79       -1.230896   1.000000
   80       -1.120056   1.000000
   81       -0.813066   1.000000
   82       -0.693766   1.000000
   83       -0.470468   1.000000
   84       -0.446919   1.000000
   85       -0.402028   1.000000
   86       -0.078248   1.000000
   87        0.037400   1.000000
   88        0.074952   1.000000
   89        0.316338   1.000003
   90        0.358329   1.000039
   91        0.369359   1.000074
   92        0.642534   0.748402
   93        0.801456  -0.035023
   94        0.927457  -0.000967
   95        0.979393  -0.000067
   96        1.019551  -0.000006
   97        1.143425  -0.000000
   98        1.170255  -0.000000
   99        1.273128  -0.000000
  100        1.348149  -0.000000
  101        1.421731  -0.000000
  102        1.455747  -0.000000
  103        1.511435  -0.000000
  104        1.555433  -0.000000
  105        1.579409  -0.000000
  106        1.845407  -0.000000
  107        1.908664  -0.000000
  108        1.917876  -0.000000
  109        1.956858  -0.000000
  110        2.007188  -0.000000
  111        2.040720  -0.000000
  112        2.088547  -0.000000
  113        2.101327  -0.000000
  114        2.155818  -0.000000
  115        2.248425  -0.000000
  116        2.289145  -0.000000
  117        2.319222  -0.000000
  118        2.473962  -0.000000
  119        2.508163  -0.000000
  120        2.707722  -0.000000

  0.3333333E+00  0.3672355E-15  0.1308213E-14  0.2020202E-01
    1      -13.034550   1.000000
    2      -12.430509   1.000000
    3      -11.697431   1.000000
    4      -11.293346   1.000000
    5      -10.561285   1.000000
    6      -10.546769   1.000000
    7      -10.293687   1.000000
    8      -10.277329   1.000000
    9      -10.063563   1.000000
   10       -9.920071   1.000000
   11       -9.890658   1.000000
   12       -9.673458   1.000000
   13       -9.447002   1.000000
   14       -9.424491   1.000000
   15       -8.851260   1.000000
   16       -8.841560   1.000000
   17       -8.029419   1.000000
   18       -8.025938   1.000000
   19       -7.855882   1.000000
   20       -7.812712   1.000000
   21       -7.790033   1.000000
   22       -7.601163   1.000000
   23       -7.558287   1.000000
   24       -7.343017   1.000000
   25       -7.332758   1.000000
   26       -7.073445   1.000000
   27       -6.757388   1.000000
   28       -6.009058   1.000000
   29       -5.773358   1.000000
   30       -5.519587   1.000000
   31       -5.504307   1.000000
   32       -5.272308   1.000000
   33       -4.944822   1.000000
   34       -4.856958   1.000000
   35       -4.743929   1.000000
   36       -4.725200   1.000000
   37       -4.435975   1.000000
   38       -4.387279   1.000000
   39       -4.186496   1.000000
   40       -4.133025   1.000000
   41       -4.116337   1.000000
   42       -4.098594   1.000000
   43       -3.974542   1.000000
   44       -3.919237   1.000000
   45       -3.855007   1.000000
   46       -3.707980   1.000000
   47       -3.689252   1.000000
   48       -3.608127   1.000000
   49       -3.599193   1.000000
   50       -3.522698   1.000000
   51       -3.468935   1.000000
   52       -3.410776   1.000000
   53       -3.318966   1.000000
   54       -3.236462   1.000000
   55       -3.147206   1.000000
   56       -3.125978   1.000000
   57       -2.994983   1.000000
   58       -2.981799   1.000000
   59       -2.872475   1.000000
   60       -2.746739   1.000000
   61       -2.743331   1.000000
   62       -2.698292   1.000000
   63       -2.681949   1.000000
   64       -2.568986   1.000000
   65       -2.512026   1.000000
   66       -2.435239   1.000000
   67       -2.363030   1.000000
   68       -2.144850   1.000000
   69       -2.078315   1.000000
   70       -2.050019   1.000000
   71       -2.038338   1.000000
   72       -1.878582   1.000000
   73       -1.740335   1.000000
   74       -1.691441   1.000000
   75       -1.546912   1.000000
   76       -1.511829   1.000000
   77       -1.466338   1.000000
   78       -1.432044   1.000000
   79       -1.262719   1.000000
   80       -1.123099   1.000000
   81       -0.931363   1.000000
   82       -0.593159   1.000000
   83       -0.560655   1.000000
   84       -0.512865   1.000000
   85       -0.240122   1.000000
   86       -0.045007   1.000000
   87        0.063278   1.000000
   88        0.157414   1.000000
   89        0.254414   1.000000
   90        0.301421   1.000001
   91        0.518712   1.025492
   92        0.564049   1.032342
   93        0.728153   0.105257
   94        0.916758  -0.001554
   95        1.011618  -0.000009
   96        1.082277  -0.000000
   97        1.155796  -0.000000
   98        1.183259  -0.000000
   99        1.307080  -0.000000
  100        1.434191  -0.000000
  101        1.526210  -0.000000
  102        1.572260  -0.000000
  103        1.590594  -0.000000
  104        1.608425  -0.000000
  105        1.634486  -0.000000
  106        1.724793  -0.000000
  107        1.901896  -0.000000
  108        1.966030  -0.000000
  109        2.000698  -0.000000
  110        2.029046  -0.000000
  111        2.102140  -0.000000
  112        2.117456  -0.000000
  113        2.132576  -0.000000
  114        2.181471  -0.000000
  115        2.274026  -0.000000
  116        2.373996  -0.000000
  117        2.382268  -0.000000
  118        2.466795  -0.000000
  119        2.553235  -0.000000
  120        2.703915  -0.000000

  0.4444444E+00  0.3795814E-15  0.1235432E-14  0.2020202E-01
    1      -12.868898   1.000000
    2      -12.664320   1.000000
    3      -11.564877   1.000000
    4      -11.418499   1.000000
    5      -10.534567   1.000000
    6      -10.530344   1.000000
    7      -10.292422   1.000000
    8      -10.279429   1.000000
    9       -9.975327   1.000000
   10       -9.918278   1.000000
   11       -9.862698   1.000000
   12       -9.790186   1.000000
   13       -9.446008   1.000000
   14       -9.434118   1.000000
   15       -8.779838   1.000000
   16       -8.773731   1.000000
   17       -8.109702   1.000000
   18       -8.105446   1.000000
   19       -7.821675   1.000000
   20       -7.817531   1.000000
   21       -7.713439   1.000000
   22       -7.640271   1.000000
   23       -7.490870   1.000000
   24       -7.389290   1.000000
   25       -7.381700   1.000000
   26       -7.307282   1.000000
   27       -6.483734   1.000000
   28       -6.150041   1.000000
   29       -5.793696   1.000000
   30       -5.535187   1.000000
   31       -5.498978   1.000000
   32       -5.488667   1.000000
   33       -4.754099   1.000000
   34       -4.710388   1.000000
   35       -4.642564   1.000000
   36       -4.602463   1.000000
   37       -4.471222   1.000000
   38       -4.407672   1.000000
   39       -4.192045   1.000000
   40       -4.181677   1.000000
   41       -4.124080   1.000000
   42       -4.029107   1.000000
   43       -3.971536   1.000000
   44       -3.956074   1.000000
   45       -3.761675   1.000000
   46       -3.737185   1.000000
   47       -3.714399   1.000000
   48       -3.646853   1.000000
   49       -3.510272   1.000000
   50       -3.465874   1.000000
   51       -3.446690   1.000000
   52       -3.414616   1.000000
   53       -3.339332   1.000000
   54       -3.265647   1.000000
   55       -3.105711   1.000000
   56       -3.071692   1.000000
   57       -2.986587   1.000000
   58       -2.941744   1.000000
   59       -2.856197   1.000000
   60       -2.785767   1.000000
   61       -2.776732   1.000000
   62       -2.730028   1.000000
   63       -2.676724   1.000000
   64       -2.643524   1.000000
   65       -2.455147   1.000000
   66       -2.414105   1.000000
   67       -2.358908   1.000000
   68       -2.259798   1.000000
   69       -2.108395   1.000000
   70       -2.083481   1.000000
   71       -1.990817   1.000000
   72       -1.885139   1.000000
   73       -1.776042   1.000000
   74       -1.720159   1.000000
   75       -1.610842   1.000000
   76       -1.571327   1.000000
   77       -1.532771   1.000000
   78       -1.341194   1.000000
   79       -1.279136   1.000000
   80       -1.205136   1.000000
   81       -0.991716   1.000000
   82       -0.643526   1.000000
   83       -0.633224   1.000000
   84       -0.393621   1.000000
   85       -0.195920   1.000000
   86       -0.023322   1.000000
   87        0.067476   1.000000
   88        0.189137   1.000000
   89        0.249515   1.000000
   90        0.385622   1.000181
   91        0.441243   1.002469
   92        0.660648   0.607499
   93        0.686976   0.386823
   94        0.814603  -0.031349
   95        0.998492  -0.000022
   96        1.076430  -0.000000
   97        1.188733  -0.000000
   98        1.251902  -0.000000
   99        1.393537  -0.000000
  100        1.438248  -0.000000
  101        1.540601  -0.000000
  102        1.567529  -0.000000
  103        1.632809  -0.000000
  104        1.654859  -0.000000
  105        1.714224  -0.000000
  106        1.825256  -0.000000
  107        1.913837  -0.000000
  108        1.978712  -0.000000
  109        2.029840  -0.000000
  110        2.068286  -0.000000
  111        2.146037  -0.000000
  112        2.160207  -0.000000
  113        2.199741  -0.000000
  114        2.248299  -0.000000
  115        2.285543  -0.000000
  116        2.367001  -0.000000
  117        2.459978  -0.000000
  118        2.605787  -0.000000
  119        2.669221  -0.000000
  120        2.819470  -0.000000

  0.3742002E-15  0.9090909E-01  0.1339361E-14  0.2020202E-01
    1      -13.223343   1.000000
    2      -11.857780   1.000000
    3      -11.825391   1.000000
    4      -11.359763   1.000000
    5      -10.619811   1.000000
    6      -10.535383   1.000000
    7      -10.485557   1.000000
    8      -10.458930   1.000000
    9      -10.203740   1.000000
   10       -9.899872   1.000000
   11       -9.811379   1.000000
   12       -9.513681   1.000000
   13       -9.421504   1.000000
   14       -9.404768   1.000000
   15       -8.946661   1.000000
   16       -8.942327   1.000000
   17       -8.086133   1.000000
   18       -8.003015   1.000000
   19       -7.978804   1.000000
   20       -7.859256   1.000000
   21       -7.812748   1.000000
   22       -7.249218   1.000000
   23       -7.171295   1.000000
   24       -7.150649   1.000000
   25       -7.079456   1.000000
   26       -7.032450   1.000000
   27       -6.576610   1.000000
   28       -6.110807   1.000000
   29       -5.673399   1.000000
   30       -5.587048   1.000000
   31       -5.539036   1.000000
   32       -5.300330   1.000000
   33       -5.129542   1.000000
   34       -4.867835   1.000000
   35       -4.802414   1.000000
   36       -4.663694   1.000000
   37       -4.522483   1.000000
   38       -4.476045   1.000000
   39       -4.371233   1.000000
   40       -4.294104   1.000000
   41       -4.262402   1.000000
   42       -4.159846   1.000000
   43       -4.152047   1.000000
   44       -3.988619   1.000000
   45       -3.939548   1.000000
   46       -3.896196   1.000000
   47       -3.779916   1.000000
   48       -3.708590   1.000000
   49       -3.679461   1.000000
   50       -3.656855   1.000000
   51       -3.578359   1.000000
   52       -3.402537   1.000000
   53       -3.347044   1.000000
   54       -3.276164   1.000000
   55       -3.181399   1.000000
   56       -3.046036   1.000000
   57       -3.023655   1.000000
   58       -2.954575   1.000000
   59       -2.828475   1.000000
   60       -2.737713   1.000000
   61       -2.691373   1.000000
   62       -2.679093   1.000000
   63       -2.573191   1.000000
   64       -2.507321   1.000000
   65       -2.484345   1.000000
   66       -2.404270   1.000000
   67       -2.340552   1.000000
   68       -2.240171   1.000000
   69       -2.171300   1.000000
   70       -2.116563   1.000000
   71       -1.892956   1.000000
   72       -1.677349   1.000000
   73       -1.642969   1.000000
   74       -1.448548   1.000000
   75       -1.422706   1.000000
   76       -1.396023   1.000000
   77       -1.324765   1.000000
   78       -1.208807   1.000000
   79       -1.147929   1.000000
   80       -1.084482   1.000000
   81       -0.915865   1.000000
   82       -0.753058   1.000000
   83       -0.520905   1.000000
   84       -0.369766   1.000000
   85       -0.290453   1.000000
   86       -0.148327   1.000000
   87       -0.061605   1.000000
   88       -0.015096   1.000000
   89        0.022363   1.000000
   90        0.396012   1.000312
   91        0.510671   1.021778
   92        0.676589   0.473586
   93        0.768534  -0.019223
   94        0.775923  -0.027492
   95        0.868285  -0.009418
   96        0.886520  -0.005127
   97        1.027874  -0.000003
   98        1.180466  -0.000000
   99        1.206326  -0.000000
  100        1.301414  -0.000000
  101        1.413721  -0.000000
  102        1.483116  -0.000000
  103        1.507129  -0.000000
  104        1.540531  -0.000000
  105        1.653981  -0.000000
  106        1.815389  -0.000000
  107        1.850145  -0.000000
  108        1.885499  -0.000000
  109        1.937236  -0.000000
  110        1.959887  -0.000000
  111        2.023086  -0.000000
  112        2.049359  -0.000000
  113        2.106625  -0.000000
  114        2.127825  -0.000000
  115        2.265834  -0.000000
  116        2.303066  -0.000000
  117        2.424867  -0.000000
  118        2.512399  -0.000000
  119        2.668338  -0.000000
  120        5.111406   0.000000

  0.1111111E+00  0.9090909E-01  0.1250028E-14  0.2020202E-01
    1      -13.178007   1.000000
    2      -12.015856   1.000000
    3      -11.818287   1.000000
    4      -11.260351   1.000000
    5      -10.601831   1.000000
    6      -10.597641   1.000000
    7      -10.500288   1.000000
    8      -10.428058   1.000000
    9      -10.150873   1.000000
   10       -9.893340   1.000000
   11       -9.784344   1.000000
   12       -9.526452   1.000000
   13       -9.467103   1.000000
   14       -9.432751   1.000000
   15       -8.915954   1.000000
   16       -8.873300   1.000000
   17       -8.116675   1.000000
   18       -7.989962   1.000000
   19       -7.942108   1.000000
   20       -7.939511   1.000000
   21       -7.799887   1.000000
   22       -7.401473   1.000000
   23       -7.213294   1.000000
   24       -7.078051   1.000000
   25       -7.041402   1.000000
   26       -7.012703   1.000000
   27       -6.701687   1.000000
   28       -6.124227   1.000000
   29       -5.682116   1.000000
   30       -5.521346   1.000000
   31       -5.359937   1.000000
   32       -5.275651   1.000000
   33       -5.166744   1.000000
   34       -5.005610   1.000000
   35       -4.821833   1.000000
   36       -4.694304   1.000000
   37       -4.498521   1.000000
   38       -4.430686   1.000000
   39       -4.324951   1.000000
   40       -4.288479   1.000000
   41       -4.255074   1.000000
   42       -4.153607   1.000000
   43       -4.036856   1.000000
   44       -3.938958   1.000000
   45       -3.913107   1.000000
   46       -3.825324   1.000000
   47       -3.756925   1.000000
   48       -3.715436   1.000000
   49       -3.689916   1.000000
   50       -3.615055   1.000000
   51       -3.569358   1.000000
   52       -3.415770   1.000000
   53       -3.324092   1.000000
   54       -3.269950   1.000000
   55       -3.120402   1.000000
   56       -3.112299   1.000000
   57       -3.044128   1.000000
   58       -2.930910   1.000000
   59       -2.888985   1.000000
   60       -2.751710   1.000000
   61       -2.717871   1.000000
   62       -2.686087   1.000000
   63       -2.580081   1.000000
   64       -2.545661   1.000000
   65       -2.490195   1.000000
   66       -2.407099   1.000000
   67       -2.320930   1.000000
   68       -2.180625   1.000000
   69       -2.171221   1.000000
   70       -2.128479   1.000000
   71       -1.944650   1.000000
   72       -1.737791   1.000000
   73       -1.614416   1.000000
   74       -1.543544   1.000000
   75       -1.492443   1.000000
   76       -1.441021   1.000000
   77       -1.376144   1.000000
   78       -1.255380   1.000000
   79       -1.175125   1.000000
   80       -1.061660   1.000000
   81       -0.865060   1.000000
   82       -0.739119   1.000000
   83       -0.500940   1.000000
   84       -0.473358   1.000000
   85       -0.325002   1.000000
   86       -0.154397   1.000000
   87       -0.046796   1.000000
   88        0.114958   1.000000
   89        0.139223   1.000000
   90        0.345186   1.000018
   91        0.467494   1.006560
   92        0.677179   0.468607
   93        0.748722   0.023104
   94        0.846458  -0.017263
   95        0.914703  -0.001698
   96        0.965283  -0.000147
   97        1.009890  -0.000011
   98        1.136633  -0.000000
   99        1.166427  -0.000000
  100        1.373073  -0.000000
  101        1.473048  -0.000000
  102        1.501274  -0.000000
  103        1.515265  -0.000000
  104        1.573264  -0.000000
  105        1.629370  -0.000000
  106        1.812980  -0.000000
  107        1.895474  -0.000000
  108        1.907966  -0.000000
  109        1.933000  -0.000000
  110        1.954201  -0.000000
  111        2.024526  -0.000000
  112        2.058541  -0.000000
  113        2.121832  -0.000000
  114        2.159591  -0.000000
  115        2.251625  -0.000000
  116        2.269291  -0.000000
  117        2.329149  -0.000000
  118        2.482521  -0.000000
  119        2.634431  -0.000000
  120        2.740257  -0.000000

  0.2222222E+00  0.9090909E-01  0.1327369E-14  0.2020202E-01
    1      -13.084127   1.000000
    2      -12.260919   1.000000
    3      -11.738542   1.000000
    4      -11.233313   1.000000
    5      -10.653095   1.000000
    6      -10.566282   1.000000
    7      -10.528565   1.000000
    8      -10.372322   1.000000
    9      -10.072667   1.000000
   10       -9.859804   1.000000
   11       -9.734789   1.000000
   12       -9.601004   1.000000
   13       -9.534078   1.000000
   14       -9.468639   1.000000
   15       -8.837994   1.000000
   16       -8.763599   1.000000
   17       -8.158616   1.000000
   18       -8.121608   1.000000
   19       -7.868459   1.000000
   20       -7.863063   1.000000
   21       -7.828782   1.000000
   22       -7.563856   1.000000
   23       -7.312853   1.000000
   24       -7.080342   1.000000
   25       -7.046269   1.000000
   26       -6.883373   1.000000
   27       -6.864145   1.000000
   28       -6.072153   1.000000
   29       -5.700313   1.000000
   30       -5.520527   1.000000
   31       -5.443544   1.000000
   32       -5.197225   1.000000
   33       -5.094137   1.000000
   34       -5.027059   1.000000
   35       -4.835856   1.000000
   36       -4.622359   1.000000
   37       -4.495759   1.000000
   38       -4.361399   1.000000
   39       -4.314745   1.000000
   40       -4.234036   1.000000
   41       -4.206836   1.000000
   42       -4.130285   1.000000
   43       -3.960496   1.000000
   44       -3.880405   1.000000
   45       -3.876996   1.000000
   46       -3.780573   1.000000
   47       -3.737204   1.000000
   48       -3.705666   1.000000