   50   50   85    1
  0.2363123E+02  0.8645320E-09  0.6085000E-09  0.2593596E-08  0.5000000E-15
   1.0000000000000000E-004
  CAR 
 Name                                    
    190    149    128

  0.3742002E-15  0.3742002E-15  0.3742002E-15  0.3367003E-02
    1      -14.008530   1.000000
    2      -12.656956   1.000000
    3      -12.517523   1.000000
    4      -11.968773   1.000000
    5      -11.629530   1.000000
    6      -11.208086   1.000000
    7      -11.196248   1.000000
    8      -11.169479   1.000000
    9      -11.038656   1.000000
   10      -10.740500   1.000000
   11      -10.727858   1.000000
   12      -10.395956   1.000000
   13      -10.272038   1.000000
   14      -10.202303   1.000000
   15       -9.829481   1.000000
   16       -9.782091   1.000000
   17       -9.211732   1.000000
   18       -9.174802   1.000000
   19       -8.905031   1.000000
   20       -8.567487   1.000000
   21       -8.549915   1.000000
   22       -8.482239   1.000000
   23       -8.258144   1.000000
   24       -8.156012   1.000000
   25       -8.078013   1.000000
   26       -8.029315   1.000000
   27       -7.633659   1.000000
   28       -7.359565   1.000000
   29       -6.659211   1.000000
   30       -6.630350   1.000000
   31       -6.565672   1.000000
   32       -6.402032   1.000000
   33       -6.249189   1.000000
   34       -6.080874   1.000000
   35       -5.947025   1.000000
   36       -5.771259   1.000000
   37       -5.583122   1.000000
   38       -5.561630   1.000000
   39       -5.488991   1.000000
   40       -5.342489   1.000000
   41       -5.228221   1.000000
   42       -5.161156   1.000000
   43       -5.116321   1.000000
   44       -4.980344   1.000000
   45       -4.911903   1.000000
   46       -4.842040   1.000000
   47       -4.765841   1.000000
   48       -4.691248   1.000000
   49       -4.669223   1.000000
   50       -4.650370   1.000000
   51       -4.580625   1.000000
   52       -4.556747   1.000000
   53       -4.443822   1.000000
   54       -4.371475   1.000000
   55       -4.246408   1.000000
   56       -4.196648   1.000000
   57       -4.134928   1.000000
   58       -4.119641   1.000000
   59       -4.068949   1.000000
   60       -3.965416   1.000000
   61       -3.889892   1.000000
   62       -3.612620   1.000000
   63       -3.566589   1.000000
   64       -3.505497   1.000000
   65       -3.470964   1.000000
   66       -3.448955   1.000000
   67       -3.429919   1.000000
   68       -3.360852   1.000000
   69       -3.312487   1.000000
   70       -3.266866   1.000000
   71       -3.167867   1.000000
   72       -3.141635   1.000000
   73       -2.791010   1.000000
   74       -2.581160   1.000000
   75       -2.469651   1.000000
   76       -2.417366   1.000000
   77       -2.333450   1.000000
   78       -2.236466   1.000000
   79       -2.152446   1.000000
   80       -2.034012   1.000000
   81       -1.825591   1.000000
   82       -1.697994   1.000000
   83       -1.605044   1.000000
   84       -1.392627   1.000000
   85       -1.255702   1.000000
   86       -1.189617   1.000000
   87       -1.078714   1.000000
   88       -1.011884   1.000000
   89       -0.963030   1.000000
   90       -0.431417   1.000000
   91       -0.287907   1.000134
   92       -0.112360   1.035123
   93       -0.031802   0.793253
   94        0.039937   0.227473
   95        0.117601  -0.033520
   96        0.119618  -0.034228
   97        0.144502  -0.032163
   98        0.399429  -0.000000
   99        0.472004  -0.000000
  100        0.548872  -0.000000
  101        0.556781  -0.000000
  102        0.684173  -0.000000
  103        0.734047  -0.000000
  104        0.766243  -0.000000
  105        0.839671  -0.000000
  106        0.915235  -0.000000
  107        1.184462  -0.000000
  108        1.205815  -0.000000
  109        1.254240  -0.000000
  110        1.325640  -0.000000
  111        1.379600  -0.000000
  112        1.406171  -0.000000
  113        1.451252  -0.000000
  114        1.472257  -0.000000
  115        1.608503  -0.000000
  116        1.632709  -0.000000
  117        1.679326  -0.000000
  118        1.819282  -0.000000
  119        1.845422  -0.000000
  120        1.851568  -0.000000
  121        1.917941  -0.000000
  122        1.936939  -0.000000
  123        2.021662  -0.000000
  124        2.121067  -0.000000
  125        2.176226  -0.000000
  126        2.256210  -0.000000
  127        2.320375  -0.000000
  128        2.346353  -0.000000

  0.1111111E+00  0.3729374E-15  0.3860503E-15  0.6734007E-02
    1      -13.981549   1.000000
    2      -12.648429   1.000000
    3      -12.615862   1.000000
    4      -11.911116   1.000000
    5      -11.617374   1.000000
    6      -11.210700   1.000000
    7      -11.187904   1.000000
    8      -11.159456   1.000000
    9      -11.073290   1.000000
   10      -10.736498   1.000000
   11      -10.723248   1.000000
   12      -10.408042   1.000000
   13      -10.260388   1.000000
   14      -10.197019   1.000000
   15       -9.824317   1.000000
   16       -9.769894   1.000000
   17       -9.222280   1.000000
   18       -9.149184   1.000000
   19       -8.907859   1.000000
   20       -8.575325   1.000000
   21       -8.564046   1.000000
   22       -8.512218   1.000000
   23       -8.310829   1.000000
   24       -8.118880   1.000000
   25       -8.088909   1.000000
   26       -8.058459   1.000000
   27       -7.670724   1.000000
   28       -7.408714   1.000000
   29       -6.634427   1.000000
   30       -6.583049   1.000000
   31       -6.529031   1.000000
   32       -6.336484   1.000000
   33       -6.220484   1.000000
   34       -6.063282   1.000000
   35       -6.019047   1.000000
   36       -5.751023   1.000000
   37       -5.622010   1.000000
   38       -5.506469   1.000000
   39       -5.428014   1.000000
   40       -5.359760   1.000000
   41       -5.262392   1.000000
   42       -5.170574   1.000000
   43       -5.121079   1.000000
   44       -4.934224   1.000000
   45       -4.869832   1.000000
   46       -4.836317   1.000000
   47       -4.786485   1.000000
   48       -4.714598   1.000000
   49       -4.664451   1.000000
   50       -4.625644   1.000000
   51       -4.554836   1.000000
   52       -4.530531   1.000000
   53       -4.422625   1.000000
   54       -4.358302   1.000000
   55       -4.260247   1.000000
   56       -4.208738   1.000000
   57       -4.155056   1.000000
   58       -4.135907   1.000000
   59       -4.068956   1.000000
   60       -3.957230   1.000000
   61       -3.868430   1.000000
   62       -3.675825   1.000000
   63       -3.564567   1.000000
   64       -3.487227   1.000000
   65       -3.466254   1.000000
   66       -3.432569   1.000000
   67       -3.422031   1.000000
   68       -3.338085   1.000000
   69       -3.315267   1.000000
   70       -3.238074   1.000000
   71       -3.225169   1.000000
   72       -3.127365   1.000000
   73       -2.849283   1.000000
   74       -2.580501   1.000000
   75       -2.484160   1.000000
   76       -2.459934   1.000000
   77       -2.306924   1.000000
   78       -2.292402   1.000000
   79       -2.182529   1.000000
   80       -2.056893   1.000000
   81       -1.751743   1.000000
   82       -1.713270   1.000000
   83       -1.608410   1.000000
   84       -1.387388   1.000000
   85       -1.289684   1.000000
   86       -1.161650   1.000000
   87       -1.057969   1.000000
   88       -0.994452   1.000000
   89       -0.875608   1.000000
   90       -0.497901   1.000000
   91       -0.348408   1.000003
   92       -0.093162   1.023785
   93       -0.019049   0.701671
   94        0.045421   0.190746
   95        0.055374   0.131097
   96        0.109944  -0.029074
   97        0.186519  -0.014077
   98        0.410282  -0.000000
   99        0.494241  -0.000000
  100        0.509632  -0.000000
  101        0.563782  -0.000000
  102        0.708572  -0.000000
  103        0.752803  -0.000000
  104        0.782912  -0.000000
  105        0.853479  -0.000000
  106        0.931077  -0.000000
  107        1.204079  -0.000000
  108        1.234177  -0.000000
  109        1.244699  -0.000000
  110        1.356449  -0.000000
  111        1.375093  -0.000000
  112        1.419415  -0.000000
  113        1.473859  -0.000000
  114        1.503776  -0.000000
  115        1.603436  -0.000000
  116        1.624312  -0.000000
  117        1.661264  -0.000000
  118        1.818423  -0.000000
  119        1.841655  -0.000000
  120        1.850991  -0.000000
  121        1.912686  -0.000000
  122        1.934756  -0.000000
  123        2.005897  -0.000000
  124        2.100422  -0.000000
  125        2.164596  -0.000000
  126        2.209110  -0.000000
  127        2.305756  -0.000000
  128        2.353832  -0.000000

  0.2222222E+00  0.3922785E-15  0.3630220E-15  0.6734007E-02
    1      -13.901377   1.000000
    2      -12.870046   1.000000
    3      -12.556793   1.000000
    4      -11.866853   1.000000
    5      -11.580869   1.000000
    6      -11.235522   1.000000
    7      -11.172302   1.000000
    8      -11.149782   1.000000
    9      -11.077459   1.000000
   10      -10.724251   1.000000
   11      -10.709562   1.000000
   12      -10.468350   1.000000
   13      -10.233551   1.000000
   14      -10.189565   1.000000
   15       -9.808416   1.000000
   16       -9.728818   1.000000
   17       -9.255754   1.000000
   18       -9.050692   1.000000
   19       -8.911639   1.000000
   20       -8.654408   1.000000
   21       -8.628185   1.000000
   22       -8.532006   1.000000
   23       -8.415839   1.000000
   24       -8.194475   1.000000
   25       -8.147383   1.000000
   26       -7.921927   1.000000
   27       -7.805108   1.000000
   28       -7.441013   1.000000
   29       -6.587857   1.000000
   30       -6.510921   1.000000
   31       -6.439014   1.000000
   32       -6.265287   1.000000
   33       -6.190900   1.000000
   34       -6.143164   1.000000
   35       -5.973956   1.000000
   36       -5.673746   1.000000
   37       -5.613803   1.000000
   38       -5.553010   1.000000
   39       -5.385154   1.000000
   40       -5.295613   1.000000
   41       -5.166360   1.000000
   42       -5.138768   1.000000
   43       -5.055869   1.000000
   44       -5.014621   1.000000
   45       -4.943720   1.000000
   46       -4.849848   1.000000
   47       -4.712997   1.000000
   48       -4.691115   1.000000
   49       -4.638369   1.000000
   50       -4.585875   1.000000
   51       -4.519305   1.000000
   52       -4.486148   1.000000
   53       -4.418802   1.000000
   54       -4.343258   1.000000
   55       -4.250364   1.000000
   56       -4.200222   1.000000
   57       -4.179703   1.000000
   58       -4.146989   1.000000
   59       -4.031117   1.000000
   60       -3.964122   1.000000
   61       -3.833261   1.000000
   62       -3.766360   1.000000
   63       -3.596708   1.000000
   64       -3.514665   1.000000
   65       -3.459318   1.000000
   66       -3.439218   1.000000
   67       -3.396411   1.000000
   68       -3.385111   1.000000
   69       -3.285352   1.000000
   70       -3.249569   1.000000
   71       -3.178486   1.000000
   72       -3.048274   1.000000
   73       -2.957542   1.000000
   74       -2.645450   1.000000
   75       -2.559098   1.000000
   76       -2.487150   1.000000
   77       -2.417109   1.000000
   78       -2.283568   1.000000
   79       -2.269299   1.000000
   80       -2.053205   1.000000
   81       -1.857692   1.000000
   82       -1.642908   1.000000
   83       -1.486061   1.000000
   84       -1.413069   1.000000
   85       -1.325217   1.000000
   86       -1.107262   1.000000
   87       -1.013578   1.000000
   88       -0.929911   1.000000
   89       -0.652381   1.000000
   90       -0.618587   1.000000
   91       -0.487664   1.000000
   92       -0.183925   1.011051
   93       -0.072271   0.984376
   94        0.012397   0.442551
   95        0.081159   0.022177
   96        0.168095  -0.021912
   97        0.298571  -0.000138
   98        0.351518  -0.000006
   99        0.473589  -0.000000
  100        0.495840  -0.000000
  101        0.581032  -0.000000
  102        0.716224  -0.000000
  103        0.809059  -0.000000
  104        0.831869  -0.000000
  105        0.907216  -0.000000
  106        1.065814  -0.000000
  107        1.153817  -0.000000
  108        1.257491  -0.000000
  109        1.339583  -0.000000
  110        1.366569  -0.000000
  111        1.392686  -0.000000
  112        1.467140  -0.000000
  113        1.504725  -0.000000
  114        1.544956  -0.000000
  115        1.573629  -0.000000
  116        1.637365  -0.000000
  117        1.666565  -0.000000
  118        1.804671  -0.000000
  119        1.828702  -0.000000
  120        1.834194  -0.000000
  121        1.882413  -0.000000
  122        1.925896  -0.000000
  123        1.962259  -0.000000
  124        2.085166  -0.000000
  125        2.105485  -0.000000
  126        2.144314  -0.000000
  127        2.251502  -0.000000
  128        2.277137  -0.000000

  0.3333333E+00  0.3713828E-15  0.3468587E-15  0.6734007E-02
    1      -13.770410   1.000000
    2      -13.128597   1.000000
    3      -12.441336   1.000000
    4      -11.943538   1.000000
    5      -11.526277   1.000000
    6      -11.263171   1.000000
    7      -11.157871   1.000000
    8      -11.144705   1.000000
    9      -10.998800   1.000000
   10      -10.706538   1.000000
   11      -10.690540   1.000000
   12      -10.581605   1.000000
   13      -10.209893   1.000000
   14      -10.192434   1.000000
   15       -9.782247   1.000000
   16       -9.657184   1.000000
   17       -9.283881   1.000000
   18       -8.937026   1.000000
   19       -8.880318   1.000000
   20       -8.788844   1.000000
   21       -8.729372   1.000000
   22       -8.531548   1.000000
   23       -8.486657   1.000000
   24       -8.271987   1.000000
   25       -8.246126   1.000000
   26       -8.053704   1.000000
   27       -7.654327   1.000000
   28       -7.373606   1.000000
   29       -6.624572   1.000000
   30       -6.530719   1.000000
   31       -6.467681   1.000000
   32       -6.372879   1.000000
   33       -6.138442   1.000000
   34       -5.981825   1.000000
   35       -5.851491   1.000000
   36       -5.610038   1.000000
   37       -5.558892   1.000000
   38       -5.486550   1.000000
   39       -5.309457   1.000000
   40       -5.251627   1.000000
   41       -5.216119   1.000000
   42       -5.158553   1.000000
   43       -5.047517   1.000000
   44       -4.997279   1.000000
   45       -4.932365   1.000000
   46       -4.837749   1.000000
   47       -4.696241   1.000000
   48       -4.663145   1.000000
   49       -4.592898   1.000000
   50       -4.551245   1.000000
   51       -4.529706   1.000000
   52       -4.456020   1.000000
   53       -4.393877   1.000000
   54       -4.288678   1.000000
   55       -4.256208   1.000000
   56       -4.210344   1.000000
   57       -4.131889   1.000000
   58       -4.099083   1.000000
   59       -4.009138   1.000000
   60       -3.950850   1.000000
   61       -3.877857   1.000000
   62       -3.755244   1.000000
   63       -3.724238   1.000000
   64       -3.563820   1.000000
   65       -3.507787   1.000000
   66       -3.464796   1.000000
   67       -3.415466   1.000000
   68       -3.360811   1.000000
   69       -3.272063   1.000000
   70       -3.245828   1.000000
   71       -3.077517   1.000000
   72       -2.998251   1.000000
   73       -2.918622   1.000000
   74       -2.825439   1.000000
   75       -2.618060   1.000000
   76       -2.561872   1.000000
   77       -2.500816   1.000000
   78       -2.371324   1.000000
   79       -2.303836   1.000000
   80       -2.039525   1.000000
   81       -1.928071   1.000000
   82       -1.682746   1.000000
   83       -1.542655   1.000000
   84       -1.325636   1.000000
   85       -1.220633   1.000000
   86       -1.037838   1.000000
   87       -0.893407   1.000000
   88       -0.837420   1.000000
   89       -0.777165   1.000000
   90       -0.624554   1.000000
   91       -0.381338   1.000000
   92       -0.319133   1.000022
   93       -0.188429   1.009652
   94        0.002959   0.522267
   95        0.096151  -0.012354
   96        0.191904  -0.012125
   97        0.275974  -0.000444
   98        0.338139  -0.000013
   99        0.417587  -0.000000
  100        0.574851  -0.000000
  101        0.646168  -0.000000
  102        0.831145  -0.000000
  103        0.856909  -0.000000
  104        0.887642  -0.000000
  105        0.981694  -0.000000
  106        1.017554  -0.000000
  107        1.261797  -0.000000
  108        1.336239  -0.000000
  109        1.366713  -0.000000
  110        1.402818  -0.000000
  111        1.427713  -0.000000
  112        1.486282  -0.000000
  113        1.512037  -0.000000
  114        1.531501  -0.000000
  115        1.556707  -0.000000
  116        1.675799  -0.000000
  117        1.707940  -0.000000
  118        1.766490  -0.000000
  119        1.796311  -0.000000
  120        1.826066  -0.000000
  121        1.853604  -0.000000
  122        1.909164  -0.000000
  123        1.953195  -0.000000
  124        1.974292  -0.000000
  125        1.988090  -0.000000
  126        2.113768  -0.000000
  127        2.152887  -0.000000
  128        2.196378  -0.000000

  0.4444444E+00  0.3870091E-15  0.3932070E-15  0.6734007E-02
    1      -13.592998   1.000000
    2      -13.375234   1.000000
    3      -12.296672   1.000000
    4      -12.093692   1.000000
    5      -11.482419   1.000000
    6      -11.273306   1.000000
    7      -11.149067   1.000000
    8      -11.138891   1.000000
    9      -10.893616   1.000000
   10      -10.718132   1.000000
   11      -10.688895   1.000000
   12      -10.671279   1.000000
   13      -10.201368   1.000000
   14      -10.200086   1.000000
   15       -9.757592   1.000000
   16       -9.586328   1.000000
   17       -9.292780   1.000000
   18       -8.984392   1.000000
   19       -8.888653   1.000000
   20       -8.775475   1.000000
   21       -8.713363   1.000000
   22       -8.536041   1.000000
   23       -8.515095   1.000000
   24       -8.325492   1.000000
   25       -8.313881   1.000000
   26       -8.259434   1.000000
   27       -7.402135   1.000000
   28       -7.242767   1.000000
   29       -6.943502   1.000000
   30       -6.532325   1.000000
   31       -6.487922   1.000000
   32       -6.416722   1.000000
   33       -6.104225   1.000000
   34       -5.762451   1.000000
   35       -5.688559   1.000000
   36       -5.558983   1.000000
   37       -5.520669   1.000000
   38       -5.443417   1.000000
   39       -5.384249   1.000000
   40       -5.344117   1.000000
   41       -5.258571   1.000000
   42       -5.190105   1.000000
   43       -5.001104   1.000000
   44       -4.920835   1.000000
   45       -4.851811   1.000000
   46       -4.776598   1.000000
   47       -4.739797   1.000000
   48       -4.691893   1.000000
   49       -4.603360   1.000000
   50       -4.539876   1.000000
   51       -4.471405   1.000000
   52       -4.406537   1.000000
   53       -4.389238   1.000000
   54       -4.314275   1.000000
   55       -4.195703   1.000000
   56       -4.176614   1.000000
   57       -4.139005   1.000000
   58       -4.070217   1.000000
   59       -3.974062   1.000000
   60       -3.932768   1.000000
   61       -3.902067   1.000000
   62       -3.853717   1.000000
   63       -3.726157   1.000000
   64       -3.634712   1.000000
   65       -3.532405   1.000000
   66       -3.492222   1.000000
   67       -3.398784   1.000000
   68       -3.326330   1.000000
   69       -3.266689   1.000000
   70       -3.250025   1.000000
   71       -3.082631   1.000000
   72       -2.960363   1.000000
   73       -2.884550   1.000000
   74       -2.791175   1.000000
   75       -2.716438   1.000000
   76       -2.662427   1.000000
   77       -2.585319   1.000000
   78       -2.400165   1.000000
   79       -2.275465   1.000000
   80       -2.168035   1.000000
   81       -1.894053   1.000000
   82       -1.693335   1.000000
   83       -1.592262   1.000000
   84       -1.339651   1.000000
   85       -1.063962   1.000000
   86       -0.972232   1.000000
   87       -0.921238   1.000000
   88       -0.856205   1.000000
   89       -0.680455   1.000000
   90       -0.556659   1.000000
   91       -0.518565   1.000000
   92       -0.310894   1.000036
   93       -0.214220   1.004004
   94       -0.008040   0.614180
   95        0.053224   0.143179
   96        0.171409  -0.020404
   97        0.250994  -0.001419
   98        0.343017  -0.000010
   99        0.546260  -0.000000
  100        0.584015  -0.000000
  101        0.607734  -0.000000
  102        0.769820  -0.000000
  103        0.875110  -0.000000
  104        0.918574  -0.000000
  105        1.155772  -0.000000
  106        1.193955  -0.000000
  107        1.278278  -0.000000
  108        1.378469  -0.000000
  109        1.404402  -0.000000
  110        1.437851  -0.000000
  111        1.485497  -0.000000
  112        1.494250  -0.000000
  113        1.513592  -0.000000
  114        1.537874  -0.000000
  115        1.566920  -0.000000
  116        1.575998  -0.000000
  117        1.685450  -0.000000
  118        1.695256  -0.000000
  119        1.731479  -0.000000
  120        1.754561  -0.000000
  121        1.795990  -0.000000
  122        1.868109  -0.000000
  123        1.940053  -0.000000
  124        2.034247  -0.000000
  125        2.060864  -0.000000
  126        2.107421  -0.000000
  127        2.144825  -0.000000
  128        2.170014  -0.000000

  0.3742002E-15  0.9090909E-01  0.3596334E-15  0.6734007E-02
    1      -13.975414   1.000000
    2      -12.627697   1.000000
    3      -12.521914   1.000000
    4      -11.936822   1.000000
    5      -11.609257   1.000000
    6      -11.385379   1.000000
    7      -11.333193   1.000000
    8      -11.158146   1.000000
    9      -11.043637   1.000000
   10      -10.735886   1.000000
   11      -10.707524   1.000000
   12      -10.379936   1.000000
   13      -10.226478   1.000000
   14      -10.147392   1.000000
   15       -9.856665   1.000000
   16       -9.761836   1.000000
   17       -9.230269   1.000000
   18       -9.148413   1.000000
   19       -8.990040   1.000000
   20       -8.668717   1.000000
   21       -8.595730   1.000000
   22       -8.342516   1.000000
   23       -8.112372   1.000000
   24       -8.060375   1.000000
   25       -7.922124   1.000000
   26       -7.893699   1.000000
   27       -7.626870   1.000000
   28       -7.394658   1.000000
   29       -6.689448   1.000000
   30       -6.608384   1.000000
   31       -6.550401   1.000000
   32       -6.382069   1.000000
   33       -6.238528   1.000000
   34       -6.122540   1.000000
   35       -5.905175   1.000000
   36       -5.779689   1.000000
   37       -5.643500   1.000000
   38       -5.539617   1.000000
   39       -5.409504   1.000000
   40       -5.345486   1.000000
   41       -5.309683   1.000000
   42       -5.228874   1.000000
   43       -5.133594   1.000000
   44       -5.030283   1.000000
   45       -4.931408   1.000000
   46       -4.873561   1.000000
   47       -4.821455   1.000000
   48       -4.776310   1.000000
   49       -4.677511   1.000000
   50       -4.652464   1.000000
   51       -4.604852   1.000000
   52       -4.559805   1.000000
   53       -4.447459   1.000000
   54       -4.394842   1.000000
   55       -4.283190   1.000000
   56       -4.209331   1.000000
   57       -4.154421   1.000000
   58       -4.107686   1.000000
   59       -4.015238   1.000000
   60       -3.998759   1.000000
   61       -3.894632   1.000000
   62       -3.616949   1.000000
   63       -3.583885   1.000000
   64       -3.523134   1.000000
   65       -3.493273   1.000000
   66       -3.413811   1.000000
   67       -3.382914   1.000000
   68       -3.343227   1.000000
   69       -3.313004   1.000000
   70       -3.272400   1.000000
   71       -3.141185   1.000000
   72       -3.111050   1.000000
   73       -2.955255   1.000000
   74       -2.516721   1.000000
   75       -2.458678   1.000000
   76       -2.436884   1.000000
   77       -2.320667   1.000000
   78       -2.236771   1.000000
   79       -2.133215   1.000000
   80       -2.047200   1.000000
   81       -1.871945   1.000000
   82       -1.631478   1.000000
   83       -1.579710   1.000000
   84       -1.425172   1.000000
   85       -1.290211   1.000000
   86       -1.166209   1.000000
   87       -1.068833   1.000000
   88       -1.051558   1.000000
   89       -1.000644   1.000000
   90       -0.556180   1.000000
   91       -0.349127   1.000003
   92       -0.156072   1.022298
   93       -0.136642   1.030927
   94       -0.058228   0.936415
   95        0.041084   0.219580
   96        0.107294  -0.026805
   97        0.184033  -0.015038
   98        0.320170  -0.000040
   99        0.394195  -0.000000
  100        0.491989  -0.000000
  101        0.663252  -0.000000
  102        0.721524  -0.000000
  103        0.782940  -0.000000
  104        0.903129  -0.000000
  105        0.912832  -0.000000
  106        1.002338  -0.000000
  107        1.137141  -0.000000
  108        1.198020  -0.000000
  109        1.279900  -0.000000
  110        1.339107  -0.000000
  111        1.381350  -0.000000
  112        1.394128  -0.000000
  113        1.480467  -0.000000
  114        1.498629  -0.000000
  115        1.606590  -0.000000
  116        1.635566  -0.000000
  117        1.679255  -0.000000
  118        1.741731  -0.000000
  119        1.804649  -0.000000
  120        1.892878  -0.000000
  121        1.922504  -0.000000
  122        1.989859  -0.000000
  123        2.034837  -0.000000
  124        2.086525  -0.000000
  125        2.161164  -0.000000
  126        2.233515  -0.000000
  127        2.312337  -0.000000
  128        2.341751  -0.000000

  0.1111111E+00  0.9090909E-01  0.4822234E-15  0.6734007E-02
    1      -13.926637   1.000000
    2      -12.705605   1.000000
    3      -12.578786   1.000000
    4      -11.864453   1.000000
    5      -11.586482   1.000000
    6      -11.431343   1.000000
    7      -11.279290   1.000000
    8      -11.156809   1.000000
    9      -11.082110   1.000000
   10      -10.737779   1.000000
   11      -10.645573   1.000000
   12      -10.406878   1.000000
   13      -10.242125   1.000000
   14      -10.175913   1.000000
   15       -9.838564   1.000000
   16       -9.717642   1.000000
   17       -9.246752   1.000000
   18       -9.093385   1.000000
   19       -8.988279   1.000000
   20       -8.725688   1.000000
   21       -8.633180   1.000000
   22       -8.410208   1.000000
   23       -8.146406   1.000000
   24       -8.000677   1.000000
   25       -7.950051   1.000000
   26       -7.916502   1.000000
   27       -7.710598   1.000000
   28       -7.433346   1.000000
   29       -6.711446   1.000000
   30       -6.517104   1.000000
   31       -6.465043   1.000000
   32       -6.284555   1.000000
   33       -6.209498   1.000000
   34       -6.128200   1.000000
   35       -5.991051   1.000000
   36       -5.786502   1.000000
   37       -5.574320   1.000000
   38       -5.489967   1.000000
   39       -5.441277   1.000000
   40       -5.332498   1.000000
   41       -5.278682   1.000000
   42       -5.192864   1.000000
   43       -5.151244   1.000000
   44       -5.067320   1.000000
   45       -4.899037   1.000000
   46       -4.872304   1.000000
   47       -4.762344   1.000000
   48       -4.721565   1.000000
   49       -4.665782   1.000000
   50       -4.629147   1.000000
   51       -4.549016   1.000000
   52       -4.541350   1.000000
   53       -4.477661   1.000000
   54       -4.360267   1.000000
   55       -4.298084   1.000000
   56       -4.256330   1.000000
   57       -4.184862   1.000000
   58       -4.098454   1.000000
   59       -4.012823   1.000000
   60       -3.982934   1.000000
   61       -3.854283   1.000000
   62       -3.662266   1.000000
   63       -3.594053   1.000000
   64       -3.563229   1.000000
   65       -3.527425   1.000000
   66       -3.419118   1.000000
   67       -3.390022   1.000000
   68       -3.297090   1.000000
   69       -3.271674   1.000000
   70       -3.248033   1.000000
   71       -3.170802   1.000000
   72       -3.107237   1.000000
   73       -2.997888   1.000000
   74       -2.574755   1.000000
   75       -2.525051   1.000000
   76       -2.466676   1.000000
   77       -2.326776   1.000000
   78       -2.298394   1.000000
   79       -2.127617   1.000000
   80       -2.076851   1.000000
   81       -1.892421   1.000000
   82       -1.653842   1.000000
   83       -1.525745   1.000000
   84       -1.399291   1.000000
   85       -1.385460   1.000000
   86       -1.145806   1.000000
   87       -1.028301   1.000000
   88       -0.942281   1.000000
   89       -0.861299   1.000000
   90       -0.640201   1.000000
   91       -0.373789   1.000001
   92       -0.175764   1.013916
   93       -0.125154   1.034518
   94       -0.040708   0.849100
   95        0.038810   0.235340
   96        0.147339  -0.031116
   97        0.155887  -0.027520
   98        0.277266  -0.000417
   99        0.355928  -0.000004
  100        0.567879  -0.000000
  101        0.688631  -0.000000
  102        0.715632  -0.000000
  103        0.782820  -0.000000
  104        0.917506  -0.000000
  105        0.952214  -0.000000
  106        0.992116  -0.000000
  107        1.198078  -0.000000
  108        1.225727  -0.000000
  109        1.266142  -0.000000
  110        1.306743  -0.000000
  111        1.405500  -0.000000
  112        1.447184  -0.000000
  113        1.514036  -0.000000
  114        1.541027  -0.000000
  115        1.590987  -0.000000
  116        1.625149  -0.000000
  117        1.662078  -0.000000
  118        1.741899  -0.000000
  119        1.810615  -0.000000
  120        1.865847  -0.000000
  121        1.925381  -0.000000
  122        1.960811  -0.000000