   59   59   85    1
  0.1289690E+02  0.6088057E-09  0.6088057E-09  0.2372246E-08  0.5000000E-15
   1.0000000000000000E-004
  CAR 
 Name                                    
    205     41    132

  0.3742002E-15  0.3742002E-15  0.1262379E-14  0.1234568E-01
    1      -11.324414   1.000000
    2      -10.824065   1.000000
    3      -10.332152   1.000000
    4       -9.661437   1.000000
    5       -8.532729   1.000000
    6       -8.448052   1.000000
    7       -8.181111   1.000000
    8       -7.953480   1.000000
    9       -7.866365   1.000000
   10       -7.739147   1.000000
   11       -7.602839   1.000000
   12       -7.555010   1.000000
   13       -7.486539   1.000000
   14       -7.470955   1.000000
   15       -7.435244   1.000000
   16       -7.207855   1.000000
   17       -7.205155   1.000000
   18       -7.143694   1.000000
   19       -7.119079   1.000000
   20       -6.922133   1.000000
   21       -6.862354   1.000000
   22       -6.692732   1.000000
   23       -6.625450   1.000000
   24       -6.472540   1.000000
   25       -5.888540   1.000000
   26       -5.872369   1.000000
   27       -5.832363   1.000000
   28       -5.721160   1.000000
   29       -5.701548   1.000000
   30       -5.690118   1.000000
   31       -5.386972   1.000000
   32       -4.792923   1.000000
   33       -4.681223   1.000000
   34       -4.429585   1.000000
   35       -4.421981   1.000000
   36       -4.380647   1.000000
   37       -4.255724   1.000000
   38       -3.457049   1.000000
   39       -3.294179   1.000000
   40       -2.948713   1.000000
   41       -2.928406   1.000000
   42       -2.772394   1.000000
   43       -2.573582   1.000000
   44       -2.488196   1.000000
   45       -2.430919   1.000000
   46       -2.313497   1.000000
   47       -2.269079   1.000000
   48       -2.243911   1.000000
   49       -2.077107   1.000000
   50       -2.059664   1.000000
   51       -1.927589   1.000000
   52       -1.834065   1.000000
   53       -1.755682   1.000000
   54       -1.729169   1.000000
   55       -1.672829   1.000000
   56       -1.627069   1.000000
   57       -1.622234   1.000000
   58       -1.563742   1.000000
   59       -1.499073   1.000000
   60       -1.481074   1.000000
   61       -1.362532   1.000000
   62       -1.280548   1.000000
   63       -1.219015   1.000000
   64       -1.132908   1.000000
   65       -1.058358   1.000000
   66       -1.052526   1.000000
   67       -0.987945   1.000000
   68       -0.913290   1.000000
   69       -0.912217   1.000000
   70       -0.642930   1.000000
   71       -0.630333   1.000000
   72       -0.600684   1.000000
   73       -0.589760   1.000000
   74       -0.472668   1.000000
   75       -0.443719   1.000000
   76       -0.437493   1.000000
   77       -0.317865   1.000000
   78       -0.212183   1.000000
   79        0.007872   1.000000
   80        0.077988   1.000000
   81        0.086019   1.000000
   82        0.205090   1.000000
   83        0.451531   1.000000
   84        0.641526   1.000000
   85        0.686088   1.000000
   86        0.898078   1.000000
   87        1.174632   1.000000
   88        1.277393   1.000000
   89        1.370389   1.000000
   90        1.376616   1.000000
   91        1.534397   1.000000
   92        1.577701   1.000000
   93        1.674304   1.000000
   94        1.707060   1.000000
   95        1.772594   1.000000
   96        1.778900   1.000000
   97        1.802837   1.000000
   98        2.199059   1.000015
   99        2.452544   1.006968
  100        2.829039   0.632965
  101        2.854787   0.525881
  102        2.896659   0.351367
  103        2.947097   0.170149
  104        3.102646  -0.035417
  105        3.210904  -0.016425
  106        3.239186  -0.011174
  107        3.344686  -0.001651
  108        3.445403  -0.000143
  109        3.616561  -0.000001
  110        3.771823  -0.000000
  111        3.808769  -0.000000
  112        3.870846  -0.000000
  113        3.925199  -0.000000
  114        4.022814  -0.000000
  115        4.039049  -0.000000
  116        4.041845  -0.000000
  117        4.072187  -0.000000
  118        4.115864  -0.000000
  119        4.134165  -0.000000
  120        4.188782  -0.000000
  121        4.226276  -0.000000
  122        4.240584  -0.000000
  123        4.344766  -0.000000
  124        4.377495  -0.000000
  125        4.418483  -0.000000
  126        4.430748  -0.000000
  127        4.466285  -0.000000
  128        4.549392  -0.000000
  129        4.680729  -0.000000
  130        4.722504  -0.000000
  131        4.760392  -0.000000
  132        4.976804  -0.000000

  0.1111111E+00  0.3857958E-15  0.1262379E-14  0.2469136E-01
    1      -11.267082   1.000000
    2      -10.772022   1.000000
    3      -10.287293   1.000000
    4       -9.629033   1.000000
    5       -8.497417   1.000000
    6       -8.464983   1.000000
    7       -8.268375   1.000000
    8       -8.166519   1.000000
    9       -8.031904   1.000000
   10       -7.901426   1.000000
   11       -7.805245   1.000000
   12       -7.776780   1.000000
   13       -7.730796   1.000000
   14       -7.618390   1.000000
   15       -7.561936   1.000000
   16       -7.304110   1.000000
   17       -6.989980   1.000000
   18       -6.953853   1.000000
   19       -6.889469   1.000000
   20       -6.721994   1.000000
   21       -6.633102   1.000000
   22       -6.574464   1.000000
   23       -6.400822   1.000000
   24       -6.324145   1.000000
   25       -5.930099   1.000000
   26       -5.863264   1.000000
   27       -5.809609   1.000000
   28       -5.689181   1.000000
   29       -5.627872   1.000000
   30       -5.534042   1.000000
   31       -5.308911   1.000000
   32       -4.709055   1.000000
   33       -4.542106   1.000000
   34       -4.385049   1.000000
   35       -4.349534   1.000000
   36       -4.194548   1.000000
   37       -4.148819   1.000000
   38       -3.434177   1.000000
   39       -3.255129   1.000000
   40       -2.998461   1.000000
   41       -2.965959   1.000000
   42       -2.757673   1.000000
   43       -2.647169   1.000000
   44       -2.535997   1.000000
   45       -2.475658   1.000000
   46       -2.449770   1.000000
   47       -2.366095   1.000000
   48       -2.265993   1.000000
   49       -2.205332   1.000000
   50       -2.058863   1.000000
   51       -1.961864   1.000000
   52       -1.936161   1.000000
   53       -1.735087   1.000000
   54       -1.710268   1.000000
   55       -1.675417   1.000000
   56       -1.629236   1.000000
   57       -1.597171   1.000000
   58       -1.550648   1.000000
   59       -1.508923   1.000000
   60       -1.472120   1.000000
   61       -1.389603   1.000000
   62       -1.296923   1.000000
   63       -1.247793   1.000000
   64       -1.189747   1.000000
   65       -1.108137   1.000000
   66       -1.060266   1.000000
   67       -1.039987   1.000000
   68       -0.958935   1.000000
   69       -0.923420   1.000000
   70       -0.783624   1.000000
   71       -0.692677   1.000000
   72       -0.643386   1.000000
   73       -0.588458   1.000000
   74       -0.527756   1.000000
   75       -0.447196   1.000000
   76       -0.396201   1.000000
   77       -0.328960   1.000000
   78       -0.170436   1.000000
   79       -0.035829   1.000000
   80        0.053407   1.000000
   81        0.116040   1.000000
   82        0.190063   1.000000
   83        0.294629   1.000000
   84        0.473809   1.000000
   85        0.630400   1.000000
   86        0.786334   1.000000
   87        1.071127   1.000000
   88        1.085106   1.000000
   89        1.170471   1.000000
   90        1.302161   1.000000
   91        1.398993   1.000000
   92        1.587883   1.000000
   93        1.615432   1.000000
   94        1.658641   1.000000
   95        1.788188   1.000000
   96        1.895626   1.000000
   97        2.015705   1.000000
   98        2.327212   1.000528
   99        2.571332   1.029900
  100        2.734743   0.933365
  101        2.806497   0.721052
  102        2.924423   0.245676
  103        2.968091   0.110816
  104        3.046732  -0.016123
  105        3.070842  -0.029544
  106        3.340260  -0.001814
  107        3.438259  -0.000173
  108        3.557981  -0.000005
  109        3.640713  -0.000000
  110        3.748748  -0.000000
  111        3.812011  -0.000000
  112        3.856175  -0.000000
  113        3.909075  -0.000000
  114        3.976974  -0.000000
  115        3.989524  -0.000000
  116        4.028951  -0.000000
  117        4.054546  -0.000000
  118        4.081258  -0.000000
  119        4.123945  -0.000000
  120        4.165675  -0.000000
  121        4.189149  -0.000000
  122        4.245365  -0.000000
  123        4.304112  -0.000000
  124        4.328836  -0.000000
  125        4.359815  -0.000000
  126        4.402595  -0.000000
  127        4.431094  -0.000000
  128        4.556641  -0.000000
  129        4.635627  -0.000000
  130        4.727485  -0.000000
  131        4.842756  -0.000000
  132        4.895963  -0.000000

  0.2222222E+00  0.3935346E-15  0.1262379E-14  0.2469136E-01
    1      -11.097232   1.000000
    2      -10.618365   1.000000
    3      -10.155490   1.000000
    4       -9.534520   1.000000
    5       -8.778470   1.000000
    6       -8.583848   1.000000
    7       -8.540582   1.000000
    8       -8.462074   1.000000
    9       -8.387904   1.000000
   10       -8.050014   1.000000
   11       -7.988680   1.000000
   12       -7.958426   1.000000
   13       -7.819031   1.000000
   14       -7.813405   1.000000
   15       -7.776270   1.000000
   16       -7.487275   1.000000
   17       -7.003277   1.000000
   18       -6.886286   1.000000
   19       -6.585948   1.000000
   20       -6.566049   1.000000
   21       -6.336484   1.000000
   22       -6.268798   1.000000
   23       -6.057537   1.000000
   24       -5.858806   1.000000
   25       -5.802910   1.000000
   26       -5.697347   1.000000
   27       -5.595421   1.000000
   28       -5.535335   1.000000
   29       -5.467881   1.000000
   30       -5.097492   1.000000
   31       -5.053589   1.000000
   32       -4.510360   1.000000
   33       -4.295179   1.000000
   34       -4.257169   1.000000
   35       -4.182019   1.000000
   36       -3.848670   1.000000
   37       -3.676807   1.000000
   38       -3.386665   1.000000
   39       -3.210358   1.000000
   40       -3.133584   1.000000
   41       -3.079956   1.000000
   42       -2.981903   1.000000
   43       -2.944156   1.000000
   44       -2.874456   1.000000
   45       -2.696086   1.000000
   46       -2.530455   1.000000
   47       -2.411621   1.000000
   48       -2.357647   1.000000
   49       -2.234911   1.000000
   50       -2.054471   1.000000
   51       -1.980951   1.000000
   52       -1.953259   1.000000
   53       -1.910503   1.000000
   54       -1.802762   1.000000
   55       -1.759254   1.000000
   56       -1.718457   1.000000
   57       -1.648681   1.000000
   58       -1.583785   1.000000
   59       -1.549981   1.000000
   60       -1.495921   1.000000
   61       -1.446621   1.000000
   62       -1.354707   1.000000
   63       -1.280815   1.000000
   64       -1.266834   1.000000
   65       -1.235527   1.000000
   66       -1.192714   1.000000
   67       -1.122500   1.000000
   68       -1.072289   1.000000
   69       -1.016332   1.000000
   70       -0.878740   1.000000
   71       -0.815682   1.000000
   72       -0.781523   1.000000
   73       -0.752068   1.000000
   74       -0.571136   1.000000
   75       -0.531074   1.000000
   76       -0.391621   1.000000
   77       -0.298409   1.000000
   78       -0.230361   1.000000
   79       -0.104347   1.000000
   80       -0.022393   1.000000
   81        0.033033   1.000000
   82        0.110702   1.000000
   83        0.246178   1.000000
   84        0.369222   1.000000
   85        0.476771   1.000000
   86        0.698670   1.000000
   87        0.736790   1.000000
   88        0.908648   1.000000
   89        1.001874   1.000000
   90        1.172356   1.000000
   91        1.266471   1.000000
   92        1.390684   1.000000
   93        1.541644   1.000000
   94        1.571573   1.000000
   95        1.847711   1.000000
   96        1.938091   1.000000
   97        2.051560   1.000000
   98        2.154660   1.000004
   99        2.449077   1.006573
  100        2.608903   1.035275
  101        2.817366   0.679484
  102        2.929656   0.227275
  103        3.111896  -0.035323
  104        3.214602  -0.015672
  105        3.254649  -0.008834
  106        3.370837  -0.000925
  107        3.488566  -0.000042
  108        3.537535  -0.000009
  109        3.592953  -0.000001
  110        3.631950  -0.000000
  111        3.640753  -0.000000
  112        3.701559  -0.000000
  113        3.821773  -0.000000
  114        3.891674  -0.000000
  115        3.929452  -0.000000
  116        3.969022  -0.000000
  117        4.003354  -0.000000
  118        4.035447  -0.000000
  119        4.074946  -0.000000
  120        4.112988  -0.000000
  121        4.172770  -0.000000
  122        4.218386  -0.000000
  123        4.258341  -0.000000
  124        4.341867  -0.000000
  125        4.366463  -0.000000
  126        4.456153  -0.000000
  127        4.490256  -0.000000
  128        4.538375  -0.000000
  129        4.562259  -0.000000
  130        4.688299  -0.000000
  131        4.767435  -0.000000
  132        4.961663  -0.000000

  0.3333333E+00  0.3939838E-15  0.1262379E-14  0.2469136E-01
    1      -10.822185   1.000000
    2      -10.371639   1.000000
    3       -9.947232   1.000000
    4       -9.407420   1.000000
    5       -9.360936   1.000000
    6       -9.075746   1.000000
    7       -8.854271   1.000000
    8       -8.688818   1.000000
    9       -8.213166   1.000000
   10       -8.155781   1.000000
   11       -8.122521   1.000000
   12       -8.107278   1.000000
   13       -7.970928   1.000000
   14       -7.902277   1.000000
   15       -7.804500   1.000000
   16       -7.628728   1.000000
   17       -7.250270   1.000000
   18       -7.081659   1.000000
   19       -6.413807   1.000000
   20       -6.355242   1.000000
   21       -5.899414   1.000000
   22       -5.831484   1.000000
   23       -5.745326   1.000000
   24       -5.708423   1.000000
   25       -5.639474   1.000000
   26       -5.626617   1.000000
   27       -5.424567   1.000000
   28       -4.937858   1.000000
   29       -4.798598   1.000000
   30       -4.732640   1.000000
   31       -4.455307   1.000000
   32       -4.260896   1.000000
   33       -4.044029   1.000000
   34       -4.006588   1.000000
   35       -3.950540   1.000000
   36       -3.569614   1.000000
   37       -3.543662   1.000000
   38       -3.462063   1.000000
   39       -3.444137   1.000000
   40       -3.395367   1.000000
   41       -3.354611   1.000000
   42       -3.228043   1.000000
   43       -3.130858   1.000000
   44       -2.966983   1.000000
   45       -2.756929   1.000000
   46       -2.585743   1.000000
   47       -2.534334   1.000000
   48       -2.418048   1.000000
   49       -2.315531   1.000000
   50       -2.280193   1.000000
   51       -2.140218   1.000000
   52       -2.091183   1.000000
   53       -1.963434   1.000000
   54       -1.935533   1.000000
   55       -1.896391   1.000000
   56       -1.834910   1.000000
   57       -1.790362   1.000000
   58       -1.741761   1.000000
   59       -1.647488   1.000000
   60       -1.606752   1.000000
   61       -1.544039   1.000000
   62       -1.479670   1.000000
   63       -1.427347   1.000000
   64       -1.364419   1.000000
   65       -1.305225   1.000000
   66       -1.260499   1.000000
   67       -1.222053   1.000000
   68       -1.151648   1.000000
   69       -1.065571   1.000000
   70       -0.982871   1.000000
   71       -0.921199   1.000000
   72       -0.865856   1.000000
   73       -0.837450   1.000000
   74       -0.576805   1.000000
   75       -0.564439   1.000000
   76       -0.429928   1.000000
   77       -0.361896   1.000000
   78       -0.320531   1.000000
   79       -0.242801   1.000000
   80       -0.128873   1.000000
   81       -0.020352   1.000000
   82        0.098000   1.000000
   83        0.211134   1.000000
   84        0.292909   1.000000
   85        0.422301   1.000000
   86        0.591958   1.000000
   87        0.626778   1.000000
   88        0.905275   1.000000
   89        1.025270   1.000000
   90        1.086941   1.000000
   91        1.196693   1.000000
   92        1.250235   1.000000
   93        1.413313   1.000000
   94        1.516468   1.000000
   95        1.584705   1.000000
   96        1.754726   1.000000
   97        1.908239   1.000000
   98        2.302767   1.000287
   99        2.372557   1.001496
  100        2.458471   1.007685
  101        2.694738   0.997523
  102        2.830470   0.627150
  103        2.942229   0.185409
  104        3.083118  -0.033145
  105        3.160995  -0.027632
  106        3.247634  -0.009848
  107        3.287384  -0.005093
  108        3.417584  -0.000298
  109        3.503521  -0.000027
  110        3.517014  -0.000018
  111        3.575122  -0.000003
  112        3.612640  -0.000001
  113        3.726692  -0.000000
  114        3.806489  -0.000000
  115        3.868468  -0.000000
  116        3.907030  -0.000000
  117        3.980766  -0.000000
  118        4.027391  -0.000000
  119        4.054950  -0.000000
  120        4.140729  -0.000000
  121        4.180316  -0.000000
  122        4.267342  -0.000000
  123        4.327799  -0.000000
  124        4.353596  -0.000000
  125        4.411667  -0.000000
  126        4.459649  -0.000000
  127        4.513019  -0.000000
  128        4.636200  -0.000000
  129        4.681283  -0.000000
  130        4.752467  -0.000000
  131        4.841621  -0.000000
  132        4.945023  -0.000000

  0.4444444E+00  0.3881204E-15  0.1262379E-14  0.2469136E-01
    1      -10.468374   1.000000
    2      -10.063259   1.000000
    3       -9.907875   1.000000
    4       -9.701309   1.000000
    5       -9.523462   1.000000
    6       -9.240997   1.000000
    7       -9.138196   1.000000
    8       -8.916009   1.000000
    9       -8.206700   1.000000
   10       -8.197283   1.000000
   11       -8.174074   1.000000
   12       -8.043130   1.000000
   13       -7.972520   1.000000
   14       -7.945975   1.000000
   15       -7.807477   1.000000
   16       -7.690977   1.000000
   17       -7.623973   1.000000
   18       -7.123964   1.000000
   19       -6.370096   1.000000
   20       -6.247949   1.000000
   21       -5.714582   1.000000
   22       -5.595015   1.000000
   23       -5.499695   1.000000
   24       -5.479579   1.000000
   25       -5.455985   1.000000
   26       -5.385412   1.000000
   27       -5.336247   1.000000
   28       -4.435217   1.000000
   29       -4.207656   1.000000
   30       -4.144308   1.000000
   31       -4.070040   1.000000
   32       -4.021276   1.000000
   33       -3.940697   1.000000
   34       -3.881289   1.000000
   35       -3.824594   1.000000
   36       -3.774143   1.000000
   37       -3.707397   1.000000
   38       -3.672320   1.000000
   39       -3.636312   1.000000
   40       -3.521172   1.000000
   41       -3.448953   1.000000
   42       -3.371162   1.000000
   43       -3.267914   1.000000
   44       -3.125624   1.000000
   45       -2.927482   1.000000
   46       -2.752980   1.000000
   47       -2.616176   1.000000
   48       -2.501695   1.000000
   49       -2.379294   1.000000
   50       -2.341083   1.000000
   51       -2.252347   1.000000
   52       -2.213611   1.000000
   53       -2.084914   1.000000
   54       -1.979438   1.000000
   55       -1.935649   1.000000
   56       -1.885909   1.000000
   57       -1.827943   1.000000
   58       -1.800565   1.000000
   59       -1.749133   1.000000
   60       -1.644043   1.000000
   61       -1.614507   1.000000
   62       -1.567210   1.000000
   63       -1.519510   1.000000
   64       -1.430323   1.000000
   65       -1.356136   1.000000
   66       -1.337574   1.000000
   67       -1.301670   1.000000
   68       -1.214367   1.000000
   69       -1.116710   1.000000
   70       -1.084162   1.000000
   71       -0.963637   1.000000
   72       -0.918805   1.000000
   73       -0.819485   1.000000
   74       -0.603876   1.000000
   75       -0.517864   1.000000
   76       -0.483734   1.000000
   77       -0.435097   1.000000
   78       -0.395405   1.000000
   79       -0.283954   1.000000
   80       -0.190383   1.000000
   81       -0.092978   1.000000
   82        0.104393   1.000000
   83        0.222790   1.000000
   84        0.294810   1.000000
   85        0.323856   1.000000
   86        0.516850   1.000000
   87        0.768267   1.000000
   88        0.909428   1.000000
   89        0.963204   1.000000
   90        1.059265   1.000000
   91        1.168183   1.000000
   92        1.250001   1.000000
   93        1.307787   1.000000
   94        1.440126   1.000000
   95        1.533458   1.000000
   96        1.709161   1.000000
   97        1.884895   1.000000
   98        2.321499   1.000459
   99        2.383650   1.001896
  100        2.438344   1.005460
  101        2.493977   1.013135
  102        2.676025   1.015400
  103        2.727801   0.947259
  104        2.814701   0.689847
  105        2.903518   0.324156
  106        3.035560  -0.006491
  107        3.212447  -0.016109
  108        3.331970  -0.002157
  109        3.379403  -0.000759
  110        3.439025  -0.000170
  111        3.510509  -0.000022
  112        3.551001  -0.000006
  113        3.634406  -0.000000
  114        3.755760  -0.000000
  115        3.778912  -0.000000
  116        3.844498  -0.000000
  117        3.884011  -0.000000
  118        3.938165  -0.000000
  119        4.039476  -0.000000
  120        4.131322  -0.000000
  121        4.232735  -0.000000
  122        4.283470  -0.000000
  123        4.397472  -0.000000
  124        4.472313  -0.000000
  125        4.491002  -0.000000
  126        4.559605  -0.000000
  127        4.677012  -0.000000
  128        4.723156  -0.000000
  129        4.772739  -0.000000
  130        4.891678  -0.000000
  131        4.943337  -0.000000
  132        5.044681  -0.000000

  0.3742002E-15  0.1111111E+00  0.1262379E-14  0.2469136E-01
    1      -11.267083   1.000000
    2      -10.772012   1.000000
    3      -10.287259   1.000000
    4       -9.629008   1.000000
    5       -8.497420   1.000000
    6       -8.464997   1.000000
    7       -8.268613   1.000000
    8       -8.166586   1.000000
    9       -8.031895   1.000000
   10       -7.901536   1.000000
   11       -7.805303   1.000000
   12       -7.776949   1.000000
   13       -7.730756   1.000000
   14       -7.618397   1.000000
   15       -7.562131   1.000000
   16       -7.304036   1.000000
   17       -6.990062   1.000000
   18       -6.953403   1.000000
   19       -6.888953   1.000000
   20       -6.721817   1.000000
   21       -6.632976   1.000000
   22       -6.573603   1.000000
   23       -6.401698   1.000000
   24       -6.324469   1.000000
   25       -5.929493   1.000000
   26       -5.863880   1.000000
   27       -5.810500   1.000000
   28       -5.687656   1.000000
   29       -5.627891   1.000000
   30       -5.534409   1.000000
   31       -5.308905   1.000000
   32       -4.709264   1.000000
   33       -4.542265   1.000000
   34       -4.385004   1.000000
   35       -4.349691   1.000000
   36       -4.194501   1.000000
   37       -4.148794   1.000000
   38       -3.434201   1.000000
   39       -3.255102   1.000000
   40       -2.998537   1.000000
   41       -2.965964   1.000000
   42       -2.757614   1.000000
   43       -2.647429   1.000000
   44       -2.536005   1.000000
   45       -2.475670   1.000000
   46       -2.449608   1.000000
   47       -2.365458   1.000000
   48       -2.265854   1.000000
   49       -2.206779   1.000000
   50       -2.058071   1.000000
   51       -1.962114   1.000000
   52       -1.936024   1.000000
   53       -1.735196   1.000000
   54       -1.709959   1.000000
   55       -1.676154   1.000000
   56       -1.629473   1.000000
   57       -1.596969   1.000000
   58       -1.550364   1.000000
   59       -1.508816   1.000000
   60       -1.471852   1.000000
   61       -1.390055   1.000000
   62       -1.296226   1.000000
   63       -1.248549   1.000000
   64       -1.191220   1.000000
   65       -1.107224   1.000000
   66       -1.060318   1.000000
   67       -1.038870   1.000000
   68       -0.959408   1.000000
   69       -0.923302   1.000000
   70       -0.784491   1.000000
   71       -0.692715   1.000000
   72       -0.642503   1.000000
   73       -0.588783   1.000000
   74       -0.527149   1.000000
   75       -0.447361   1.000000
   76       -0.395299   1.000000
   77       -0.329464   1.000000
   78       -0.170241   1.000000
   79       -0.036547   1.000000
   80        0.053678   1.000000
   81        0.116268   1.000000
   82        0.189734   1.000000
   83        0.293945   1.000000
   84        0.474161   1.000000
   85        0.632192   1.000000
   86        0.785918   1.000000
   87        1.071122   1.000000
   88        1.085127   1.000000
   89        1.169924   1.000000
   90        1.302241   1.000000
   91        1.399463   1.000000
   92        1.587956   1.000000
   93        1.615276   1.000000
   94        1.658686   1.000000
   95        1.788712   1.000000
   96        1.894964   1.000000
   97        2.015482   1.000000
   98        2.328856   1.000549
   99        2.570655   1.029759
  100        2.734104   0.934693
  101        2.806901   0.719540
  102        2.923223   0.249972
  103        2.967652   0.111944
  104        3.047349  -0.016587
  105        3.069208  -0.028916
  106        3.339491  -0.001843
  107        3.437123  -0.000179
  108        3.561103  -0.000004
  109        3.641183  -0.000000
  110        3.748723  -0.000000
  111        3.811213  -0.000000
  112        3.856913  -0.000000
  113        3.908749  -0.000000
  114        3.977458  -0.000000
  115        3.989705  -0.000000
  116        4.029187  -0.000000
  117        4.054535  -0.000000
  118        4.081362  -0.000000
  119        4.124330  -0.000000
  120        4.165290  -0.000000
  121        4.188424  -0.000000
  122        4.244963  -0.000000
  123        4.304175  -0.000000
  124        4.329036  -0.000000
  125        4.358980  -0.000000
  126        4.402654  -0.000000
  127        4.430932  -0.000000
  128        4.556106  -0.000000
  129        4.635941  -0.000000
  130        4.728014  -0.000000
  131        4.842821  -0.000000
  132        4.895359  -0.000000

  0.1111111E+00  0.1111111E+00  0.1262379E-14  0.2469136E-01
    1      -11.152820   1.000000
    2      -10.668690   1.000000
    3      -10.199666   1.000000
    4       -9.565794   1.000000
    5       -8.529577   1.000000
    6       -8.494404   1.000000
    7       -8.424565   1.000000
    8       -8.421268   1.000000
    9       -8.306999   1.000000
   10       -8.269444   1.000000
   11       -8.097216   1.000000
   12       -8.047953   1.000000
   13       -7.791544   1.000000
   14       -7.594174   1.000000
   15       -7.532846   1.000000
   16       -7.203599   1.000000
   17       -7.161432   1.000000
   18       -6.757310   1.000000
   19       -6.734852   1.000000
   20       -6.601937   1.000000
   21       -6.553337   1.000000
   22       -6.391327   1.000000
   23       -6.123681   1.000000
   24       -5.976841   1.000000
   25       -5.819674   1.000000
   26       -5.801072   1.000000
   27       -5.669257   1.000000
   28       -5.647925   1.000000
   29       -5.443308   1.000000
   30       -5.245787   1.000000
   31       -5.156054   1.000000
   32       -4.530570   1.000000
   33       -4.505375   1.000000
   34       -4.317749   1.000000
   35       -4.002148   1.000000
   36       -3.946743   1.000000
   37       -3.908825   1.000000
   38       -3.420963   1.000000
   39       -3.218321   1.000000
   40       -3.127262   1.000000
   41       -3.085233   1.000000
   42       -2.967215   1.000000
   43       -2.846486   1.000000
   44       -2.678997   1.000000
   45       -2.496374   1.000000
   46       -2.487985   1.000000
   47       -2.387971   1.000000
   48       -2.260753   1.000000
   49       -2.256524   1.000000
   50       -2.150644   1.000000
   51       -1.984076   1.000000
   52       -1.970503   1.000000
   53       -1.897103   1.000000
   54       -1.704370   1.000000
   55       -1.688908   1.000000
   56       -1.655912   1.000000
   57       -1.618199   1.000000
   58       -1.603215   1.000000
   59       -1.548082   1.000000
   60       -1.444508   1.000000
   61       -1.407721   1.000000
   62       -1.376503   1.000000
   63       -1.318665   1.000000
   64       -1.196988   1.000000
   65       -1.186743   1.000000
   66       -1.113389   1.000000
   67       -1.108628   1.000000
   68       -1.008271   1.000000
   69       -1.007173   1.000000
   70       -0.859039   1.000000
   71       -0.837997   1.000000
   72       -0.714692   1.000000
   73       -0.660171   1.000000
   74       -0.601791   1.000000
   75       -0.471842   1.000000
   76       -0.454187   1.000000
   77       -0.322287   1.000000
   78       -0.252520   1.000000
   79       -0.082694   1.000000
   80       -0.014278   1.000000
   81        0.125536   1.000000
   82        0.232741   1.000000
   83        0.241822   1.000000
   84        0.292838   1.000000
   85        0.549750   1.000000
   86        0.622178   1.000000
   87        0.746602   1.000000
   88        0.991912   1.000000
   89        1.140691   1.000000
   90        1.148912   1.000000
   91        1.407957   1.000000
   92        1.471650   1.000000
   93        1.517814   1.000000
   94        1.561351   1.000000
   95        1.692556   1.000000
   96        1.898843   1.000000
   97        2.202072   1.000016
   98        2.280649   1.000160