   48   48   40    1
  0.2461586E+02  0.8645320E-09  0.6085000E-09  0.2593596E-08  0.5000000E-15
   1.0000000000000000E-004
  CAR 
 Name                                    
    178    149    114

  0.3742002E-15  0.3742002E-15  0.3742002E-15  0.3367003E-02
    1      -14.072589   1.000000
    2      -12.832420   1.000000
    3      -12.519040   1.000000
    4      -12.034124   1.000000
    5      -11.695513   1.000000
    6      -11.328157   1.000000
    7      -11.260606   1.000000
    8      -10.985846   1.000000
    9      -10.862448   1.000000
   10      -10.831880   1.000000
   11      -10.715213   1.000000
   12      -10.474640   1.000000
   13      -10.428770   1.000000
   14      -10.268863   1.000000
   15       -9.795928   1.000000
   16       -9.413957   1.000000
   17       -9.263424   1.000000
   18       -9.141374   1.000000
   19       -8.796764   1.000000
   20       -8.647986   1.000000
   21       -8.454622   1.000000
   22       -8.369196   1.000000
   23       -8.144996   1.000000
   24       -8.083175   1.000000
   25       -7.705622   1.000000
   26       -7.634419   1.000000
   27       -7.406530   1.000000
   28       -7.348899   1.000000
   29       -7.170739   1.000000
   30       -6.445229   1.000000
   31       -6.377743   1.000000
   32       -6.302511   1.000000
   33       -6.221062   1.000000
   34       -6.113138   1.000000
   35       -5.991638   1.000000
   36       -5.886578   1.000000
   37       -5.641097   1.000000
   38       -5.528111   1.000000
   39       -5.455588   1.000000
   40       -5.388238   1.000000
   41       -5.239086   1.000000
   42       -5.086434   1.000000
   43       -5.056487   1.000000
   44       -5.015127   1.000000
   45       -4.906593   1.000000
   46       -4.886496   1.000000
   47       -4.714888   1.000000
   48       -4.679378   1.000000
   49       -4.573685   1.000000
   50       -4.444297   1.000000
   51       -4.362218   1.000000
   52       -4.309310   1.000000
   53       -4.242858   1.000000
   54       -4.113009   1.000000
   55       -4.083468   1.000000
   56       -4.059189   1.000000
   57       -4.010966   1.000000
   58       -3.886374   1.000000
   59       -3.828993   1.000000
   60       -3.791822   1.000000
   61       -3.587813   1.000000
   62       -3.566217   1.000000
   63       -3.442423   1.000000
   64       -3.414740   1.000000
   65       -3.328595   1.000000
   66       -3.121904   1.000000
   67       -3.097528   1.000000
   68       -2.949994   1.000000
   69       -2.861858   1.000000
   70       -2.786398   1.000000
   71       -2.670440   1.000000
   72       -2.516209   1.000000
   73       -2.426662   1.000000
   74       -2.332723   1.000000
   75       -1.990458   1.000000
   76       -1.860765   1.000000
   77       -1.776253   1.000000
   78       -1.714473   1.000000
   79       -1.552070   1.000000
   80       -1.536812   1.000000
   81       -1.344440   1.000000
   82       -1.231496   1.000000
   83       -1.156442   1.000000
   84       -0.957722   1.000078
   85       -0.722498   1.012408
   86       -0.599963   1.035411
   87       -0.455885   0.881917
   88       -0.353381   0.507985
   89       -0.164464  -0.017022
   90       -0.125023  -0.033971
   91       -0.066644  -0.030852
   92       -0.002840  -0.016703
   93        0.064740  -0.006097
   94        0.140189  -0.001392
   95        0.311095  -0.000015
   96        0.335189  -0.000007
   97        0.363803  -0.000003
   98        0.474042  -0.000000
   99        0.510638  -0.000000
  100        0.590573  -0.000000
  101        0.624884  -0.000000
  102        0.707172  -0.000000
  103        0.857430  -0.000000
  104        0.984833  -0.000000
  105        1.028274  -0.000000
  106        1.059082  -0.000000
  107        1.098456  -0.000000
  108        1.119290  -0.000000
  109        1.228299  -0.000000
  110        1.328087  -0.000000
  111        1.409913  -0.000000
  112        1.429760  -0.000000
  113        1.594192  -0.000000
  114        1.679642  -0.000000

  0.1111111E+00  0.3729374E-15  0.3860503E-15  0.6734007E-02
    1      -14.049095   1.000000
    2      -12.833083   1.000000
    3      -12.608742   1.000000
    4      -11.977692   1.000000
    5      -11.672994   1.000000
    6      -11.329436   1.000000
    7      -11.300436   1.000000
    8      -10.992963   1.000000
    9      -10.859393   1.000000
   10      -10.827570   1.000000
   11      -10.708594   1.000000
   12      -10.482547   1.000000
   13      -10.385451   1.000000
   14      -10.242652   1.000000
   15       -9.786063   1.000000
   16       -9.443776   1.000000
   17       -9.260460   1.000000
   18       -9.140876   1.000000
   19       -8.802046   1.000000
   20       -8.687231   1.000000
   21       -8.501745   1.000000
   22       -8.356257   1.000000
   23       -8.155270   1.000000
   24       -8.026267   1.000000
   25       -7.712451   1.000000
   26       -7.666324   1.000000
   27       -7.537384   1.000000
   28       -7.323371   1.000000
   29       -7.113563   1.000000
   30       -6.404198   1.000000
   31       -6.362046   1.000000
   32       -6.265494   1.000000
   33       -6.190588   1.000000
   34       -6.108495   1.000000
   35       -5.974451   1.000000
   36       -5.857409   1.000000
   37       -5.681626   1.000000
   38       -5.548595   1.000000
   39       -5.420530   1.000000
   40       -5.355058   1.000000
   41       -5.268999   1.000000
   42       -5.112675   1.000000
   43       -5.068453   1.000000
   44       -5.031721   1.000000
   45       -4.904230   1.000000
   46       -4.814063   1.000000
   47       -4.726501   1.000000
   48       -4.651886   1.000000
   49       -4.569349   1.000000
   50       -4.448875   1.000000
   51       -4.377370   1.000000
   52       -4.295250   1.000000
   53       -4.232902   1.000000
   54       -4.119607   1.000000
   55       -4.080298   1.000000
   56       -4.058301   1.000000
   57       -4.021665   1.000000
   58       -3.879832   1.000000
   59       -3.839233   1.000000
   60       -3.779531   1.000000
   61       -3.655461   1.000000
   62       -3.541880   1.000000
   63       -3.472405   1.000000
   64       -3.437379   1.000000
   65       -3.345196   1.000000
   66       -3.091546   1.000000
   67       -3.079259   1.000000
   68       -2.936985   1.000000
   69       -2.865719   1.000000
   70       -2.786961   1.000000
   71       -2.681529   1.000000
   72       -2.487500   1.000000
   73       -2.425234   1.000000
   74       -2.330246   1.000000
   75       -2.058390   1.000000
   76       -1.881405   1.000000
   77       -1.779336   1.000000
   78       -1.696668   1.000000
   79       -1.529191   1.000000
   80       -1.475116   1.000000
   81       -1.368314   1.000000
   82       -1.222063   1.000000
   83       -1.153208   1.000000
   84       -0.986705   1.000034
   85       -0.707007   1.015309
   86       -0.583329   1.034734
   87       -0.483329   0.944804
   88       -0.341203   0.456517
   89       -0.182791  -0.000358
   90       -0.140056  -0.030089
   91       -0.040791  -0.025216
   92       -0.004502  -0.017051
   93        0.089061  -0.003935
   94        0.148239  -0.001165
   95        0.302968  -0.000019
   96        0.328932  -0.000008
   97        0.356811  -0.000003
   98        0.475704  -0.000000
   99        0.495439  -0.000000
  100        0.587680  -0.000000
  101        0.677470  -0.000000
  102        0.716310  -0.000000
  103        0.865228  -0.000000
  104        0.994521  -0.000000
  105        1.049207  -0.000000
  106        1.078672  -0.000000
  107        1.107799  -0.000000
  108        1.141391  -0.000000
  109        1.242366  -0.000000
  110        1.342324  -0.000000
  111        1.403972  -0.000000
  112        1.458579  -0.000000
  113        1.613528  -0.000000
  114        1.773074  -0.000000

  0.2222222E+00  0.3922785E-15  0.3630220E-15  0.6734007E-02
    1      -13.980794   1.000000
    2      -12.931599   1.000000
    3      -12.671613   1.000000
    4      -11.933537   1.000000
    5      -11.615373   1.000000
    6      -11.388517   1.000000
    7      -11.306765   1.000000
    8      -11.010844   1.000000
    9      -10.857286   1.000000
   10      -10.813615   1.000000
   11      -10.691685   1.000000
   12      -10.486721   1.000000
   13      -10.302736   1.000000
   14      -10.173467   1.000000
   15       -9.759646   1.000000
   16       -9.523391   1.000000
   17       -9.241253   1.000000
   18       -9.137654   1.000000
   19       -8.848189   1.000000
   20       -8.737197   1.000000
   21       -8.633475   1.000000
   22       -8.338990   1.000000
   23       -8.171557   1.000000
   24       -7.904129   1.000000
   25       -7.814065   1.000000
   26       -7.691674   1.000000
   27       -7.617683   1.000000
   28       -7.353104   1.000000
   29       -7.057938   1.000000
   30       -6.360004   1.000000
   31       -6.304421   1.000000
   32       -6.217053   1.000000
   33       -6.107306   1.000000
   34       -6.074303   1.000000
   35       -5.947966   1.000000
   36       -5.826717   1.000000
   37       -5.703445   1.000000
   38       -5.592914   1.000000
   39       -5.376889   1.000000
   40       -5.287811   1.000000
   41       -5.236781   1.000000
   42       -5.119169   1.000000
   43       -5.108417   1.000000
   44       -5.035304   1.000000
   45       -4.911560   1.000000
   46       -4.745293   1.000000
   47       -4.728807   1.000000
   48       -4.647118   1.000000
   49       -4.537320   1.000000
   50       -4.447820   1.000000
   51       -4.388919   1.000000
   52       -4.266777   1.000000
   53       -4.235293   1.000000
   54       -4.161094   1.000000
   55       -4.100746   1.000000
   56       -4.038985   1.000000
   57       -3.996334   1.000000
   58       -3.879263   1.000000
   59       -3.843385   1.000000
   60       -3.756243   1.000000
   61       -3.720613   1.000000
   62       -3.618010   1.000000
   63       -3.522533   1.000000
   64       -3.448499   1.000000
   65       -3.363506   1.000000
   66       -3.079276   1.000000
   67       -3.043960   1.000000
   68       -2.935230   1.000000
   69       -2.874901   1.000000
   70       -2.779157   1.000000
   71       -2.678816   1.000000
   72       -2.432798   1.000000
   73       -2.413265   1.000000
   74       -2.340411   1.000000
   75       -2.165888   1.000000
   76       -1.932425   1.000000
   77       -1.771397   1.000000
   78       -1.674998   1.000000
   79       -1.522439   1.000000
   80       -1.461606   1.000000
   81       -1.268448   1.000000
   82       -1.186828   1.000000
   83       -1.155611   1.000000
   84       -1.021011   1.000012
   85       -0.718343   1.013150
   86       -0.539129   1.017465
   87       -0.527854   1.008117
   88       -0.323270   0.381883
   89       -0.201021   0.023162
   90       -0.146010  -0.027744
   91       -0.033674  -0.023570
   92        0.039792  -0.009180
   93        0.077669  -0.004853
   94        0.143915  -0.001282
   95        0.252009  -0.000085
   96        0.314186  -0.000013
   97        0.389858  -0.000001
   98        0.508156  -0.000000
   99        0.533452  -0.000000
  100        0.573965  -0.000000
  101        0.696185  -0.000000
  102        0.790514  -0.000000
  103        0.910729  -0.000000
  104        0.996705  -0.000000
  105        1.069783  -0.000000
  106        1.102168  -0.000000
  107        1.155099  -0.000000
  108        1.172567  -0.000000
  109        1.265542  -0.000000
  110        1.309371  -0.000000
  111        1.425474  -0.000000
  112        1.468250  -0.000000
  113        1.539708  -0.000000
  114        1.687668  -0.000000

  0.3333333E+00  0.3713828E-15  0.3468587E-15  0.6734007E-02
    1      -13.876993   1.000000
    2      -13.136352   1.000000
    3      -12.608500   1.000000
    4      -11.986174   1.000000
    5      -11.561196   1.000000
    6      -11.412931   1.000000
    7      -11.293770   1.000000
    8      -11.029947   1.000000
    9      -10.859070   1.000000
   10      -10.793697   1.000000
   11      -10.673783   1.000000
   12      -10.495174   1.000000
   13      -10.227478   1.000000
   14      -10.059862   1.000000
   15       -9.726587   1.000000
   16       -9.632627   1.000000
   17       -9.202302   1.000000
   18       -9.132039   1.000000
   19       -8.967533   1.000000
   20       -8.798892   1.000000
   21       -8.689079   1.000000
   22       -8.340610   1.000000
   23       -8.209657   1.000000
   24       -8.035280   1.000000
   25       -7.727904   1.000000
   26       -7.687266   1.000000
   27       -7.565632   1.000000
   28       -7.350773   1.000000
   29       -7.083612   1.000000
   30       -6.456397   1.000000
   31       -6.315714   1.000000
   32       -6.138170   1.000000
   33       -6.048505   1.000000
   34       -5.986246   1.000000
   35       -5.917453   1.000000
   36       -5.782195   1.000000
   37       -5.636374   1.000000
   38       -5.537150   1.000000
   39       -5.365047   1.000000
   40       -5.278508   1.000000
   41       -5.234549   1.000000
   42       -5.145669   1.000000
   43       -5.097935   1.000000
   44       -4.991671   1.000000
   45       -4.880469   1.000000
   46       -4.729532   1.000000
   47       -4.660460   1.000000
   48       -4.638157   1.000000
   49       -4.570582   1.000000
   50       -4.427213   1.000000
   51       -4.386809   1.000000
   52       -4.308885   1.000000
   53       -4.243749   1.000000
   54       -4.205840   1.000000
   55       -4.127232   1.000000
   56       -4.003989   1.000000
   57       -3.960634   1.000000
   58       -3.909152   1.000000
   59       -3.810980   1.000000
   60       -3.756275   1.000000
   61       -3.720609   1.000000
   62       -3.702631   1.000000
   63       -3.541456   1.000000
   64       -3.454468   1.000000
   65       -3.350710   1.000000
   66       -3.122982   1.000000
   67       -3.085907   1.000000
   68       -2.978637   1.000000
   69       -2.878087   1.000000
   70       -2.747621   1.000000
   71       -2.661853   1.000000
   72       -2.505424   1.000000
   73       -2.378181   1.000000
   74       -2.290267   1.000000
   75       -2.161562   1.000000
   76       -1.969848   1.000000
   77       -1.789961   1.000000
   78       -1.660570   1.000000
   79       -1.548549   1.000000
   80       -1.480953   1.000000
   81       -1.294244   1.000000
   82       -1.205065   1.000000
   83       -0.980897   1.000040
   84       -0.935199   1.000146
   85       -0.719100   1.013013
   86       -0.558899   1.028555
   87       -0.505008   0.981279
   88       -0.340713   0.454453
   89       -0.260036   0.154253
   90       -0.175223  -0.008034
   91       -0.101799  -0.035374
   92        0.049709  -0.007840
   93        0.109775  -0.002632
   94        0.215712  -0.000227
   95        0.242186  -0.000111
   96        0.265407  -0.000058
   97        0.413040  -0.000000
   98        0.524510  -0.000000
   99        0.602440  -0.000000
  100        0.646528  -0.000000
  101        0.701803  -0.000000
  102        0.866418  -0.000000
  103        0.974942  -0.000000
  104        0.979293  -0.000000
  105        1.077806  -0.000000
  106        1.100771  -0.000000
  107        1.186744  -0.000000
  108        1.247366  -0.000000
  109        1.311016  -0.000000
  110        1.356087  -0.000000
  111        1.407933  -0.000000
  112        1.465820  -0.000000
  113        1.532355  -0.000000
  114        1.573159  -0.000000

  0.4444444E+00  0.3870091E-15  0.3932070E-15  0.6734007E-02
    1      -13.772552   1.000000
    2      -13.303038   1.000000
    3      -12.533560   1.000000
    4      -12.072063   1.000000
    5      -11.525737   1.000000
    6      -11.409909   1.000000
    7      -11.284805   1.000000
    8      -11.041500   1.000000
    9      -10.861036   1.000000
   10      -10.779369   1.000000
   11      -10.663345   1.000000
   12      -10.504947   1.000000
   13      -10.182610   1.000000
   14       -9.920612   1.000000
   15       -9.757511   1.000000
   16       -9.700349   1.000000
   17       -9.171116   1.000000
   18       -9.113689   1.000000
   19       -9.058089   1.000000
   20       -8.926062   1.000000
   21       -8.595266   1.000000
   22       -8.369874   1.000000
   23       -8.305066   1.000000
   24       -8.098685   1.000000
   25       -7.731491   1.000000
   26       -7.659577   1.000000
   27       -7.437752   1.000000
   28       -7.258722   1.000000
   29       -7.154956   1.000000
   30       -6.671470   1.000000
   31       -6.321538   1.000000
   32       -6.090092   1.000000
   33       -6.018107   1.000000
   34       -5.891517   1.000000
   35       -5.851431   1.000000
   36       -5.690538   1.000000
   37       -5.603029   1.000000
   38       -5.503732   1.000000
   39       -5.435310   1.000000
   40       -5.292674   1.000000
   41       -5.244797   1.000000
   42       -5.140051   1.000000
   43       -5.076349   1.000000
   44       -4.941387   1.000000
   45       -4.808534   1.000000
   46       -4.733027   1.000000
   47       -4.653731   1.000000
   48       -4.579847   1.000000
   49       -4.538293   1.000000
   50       -4.453705   1.000000
   51       -4.426685   1.000000
   52       -4.389055   1.000000
   53       -4.261567   1.000000
   54       -4.204517   1.000000
   55       -4.144381   1.000000
   56       -4.003019   1.000000
   57       -3.957385   1.000000
   58       -3.916929   1.000000
   59       -3.792342   1.000000
   60       -3.753717   1.000000
   61       -3.702656   1.000000
   62       -3.678108   1.000000
   63       -3.555114   1.000000
   64       -3.440762   1.000000
   65       -3.336791   1.000000
   66       -3.175789   1.000000
   67       -3.151218   1.000000
   68       -3.048413   1.000000
   69       -2.872387   1.000000
   70       -2.729381   1.000000
   71       -2.669661   1.000000
   72       -2.567450   1.000000
   73       -2.351969   1.000000
   74       -2.225511   1.000000
   75       -2.131025   1.000000
   76       -1.942631   1.000000
   77       -1.839852   1.000000
   78       -1.666376   1.000000
   79       -1.571982   1.000000
   80       -1.482264   1.000000
   81       -1.376034   1.000000
   82       -1.180419   1.000000
   83       -0.887751   1.000496
   84       -0.832866   1.001738
   85       -0.673900   1.022510
   86       -0.536212   1.015272
   87       -0.477600   0.933243
   88       -0.406300   0.722532
   89       -0.277066   0.207943
   90       -0.248281   0.121207
   91       -0.134752  -0.031775
   92        0.041340  -0.008960
   93        0.077159  -0.004898
   94        0.160946  -0.000873
   95        0.193479  -0.000400
   96        0.367866  -0.000002
   97        0.460233  -0.000000
   98        0.532333  -0.000000
   99        0.658959  -0.000000
  100        0.746982  -0.000000
  101        0.788778  -0.000000
  102        0.874756  -0.000000
  103        0.962699  -0.000000
  104        1.001809  -0.000000
  105        1.074717  -0.000000
  106        1.129613  -0.000000
  107        1.197221  -0.000000
  108        1.259943  -0.000000
  109        1.306876  -0.000000
  110        1.378011  -0.000000
  111        1.411858  -0.000000
  112        1.456550  -0.000000
  113        1.530287  -0.000000
  114        1.562104  -0.000000

  0.3742002E-15  0.9090909E-01  0.3596334E-15  0.6734007E-02
    1      -14.040152   1.000000
    2      -12.808455   1.000000
    3      -12.520291   1.000000
    4      -12.003909   1.000000
    5      -11.673385   1.000000
    6      -11.485133   1.000000
    7      -11.271164   1.000000
    8      -11.215122   1.000000
    9      -10.955509   1.000000
   10      -10.705536   1.000000
   11      -10.636319   1.000000
   12      -10.441667   1.000000
   13      -10.383017   1.000000
   14      -10.197172   1.000000
   15       -9.807123   1.000000
   16       -9.530995   1.000000
   17       -9.204746   1.000000
   18       -9.059569   1.000000
   19       -8.829656   1.000000
   20       -8.642166   1.000000
   21       -8.437091   1.000000
   22       -8.284693   1.000000
   23       -8.160675   1.000000
   24       -7.991494   1.000000
   25       -7.736366   1.000000
   26       -7.482308   1.000000
   27       -7.428136   1.000000
   28       -7.268268   1.000000
   29       -7.132933   1.000000
   30       -6.487766   1.000000
   31       -6.390730   1.000000
   32       -6.276616   1.000000
   33       -6.198560   1.000000
   34       -6.145476   1.000000
   35       -5.982008   1.000000
   36       -5.829482   1.000000
   37       -5.704666   1.000000
   38       -5.534006   1.000000
   39       -5.435709   1.000000
   40       -5.399387   1.000000
   41       -5.263377   1.000000
   42       -5.153244   1.000000
   43       -5.075790   1.000000
   44       -5.007341   1.000000
   45       -4.981389   1.000000
   46       -4.867099   1.000000
   47       -4.799795   1.000000
   48       -4.662092   1.000000
   49       -4.565979   1.000000
   50       -4.519342   1.000000
   51       -4.399310   1.000000
   52       -4.381410   1.000000
   53       -4.269246   1.000000
   54       -4.220306   1.000000
   55       -4.105111   1.000000
   56       -4.061235   1.000000
   57       -3.962774   1.000000
   58       -3.851961   1.000000
   59       -3.794650   1.000000
   60       -3.707339   1.000000
   61       -3.640002   1.000000
   62       -3.563931   1.000000
   63       -3.453486   1.000000
   64       -3.388947   1.000000
   65       -3.321697   1.000000
   66       -3.150154   1.000000
   67       -3.095875   1.000000
   68       -2.952979   1.000000
   69       -2.894858   1.000000
   70       -2.795671   1.000000
   71       -2.591740   1.000000
   72       -2.552354   1.000000
   73       -2.408530   1.000000
   74       -2.307490   1.000000
   75       -2.022586   1.000000
   76       -1.876761   1.000000
   77       -1.780772   1.000000
   78       -1.711178   1.000000
   79       -1.640319   1.000000
   80       -1.500657   1.000000
   81       -1.333982   1.000000
   82       -1.212235   1.000000
   83       -1.161777   1.000000
   84       -0.959568   1.000074
   85       -0.828358   1.001911
   86       -0.618111   1.033904
   87       -0.529085   1.009255
   88       -0.396568   0.685457
   89       -0.271593   0.189968
   90       -0.154006  -0.023774
   91       -0.092658  -0.034783
   92       -0.031727  -0.023120
   93        0.068893  -0.005672
   94        0.151927  -0.001072
   95        0.289159  -0.000029
   96        0.344798  -0.000005
   97        0.443689  -0.000000
   98        0.511102  -0.000000
   99        0.563052  -0.000000
  100        0.607402  -0.000000
  101        0.659697  -0.000000
  102        0.749961  -0.000000
  103        0.864988  -0.000000
  104        0.966127  -0.000000
  105        1.038675  -0.000000
  106        1.079393  -0.000000
  107        1.121536  -0.000000
  108        1.145770  -0.000000
  109        1.235356  -0.000000
  110        1.357381  -0.000000
  111        1.408469  -0.000000
  112        1.452196  -0.000000
  113        1.562844  -0.000000
  114        1.760634  -0.000000

  0.1111111E+00  0.9090909E-01  0.4822234E-15  0.6734007E-02
    1      -13.997996   1.000000
    2      -12.828895   1.000000
    3      -12.634670   1.000000
    4      -11.933005   1.000000
    5      -11.634972   1.000000
    6      -11.495835   1.000000
    7      -11.337947   1.000000
    8      -11.213893   1.000000
    9      -10.925557   1.000000
   10      -10.691114   1.000000
   11      -10.637881   1.000000
   12      -10.445394   1.000000
   13      -10.331790   1.000000
   14      -10.160524   1.000000
   15       -9.810897   1.000000
   16       -9.546602   1.000000
   17       -9.224622   1.000000
   18       -9.049390   1.000000
   19       -8.847565   1.000000
   20       -8.671552   1.000000
   21       -8.497428   1.000000
   22       -8.319765   1.000000
   23       -8.148487   1.000000
   24       -7.917614   1.000000
   25       -7.787414   1.000000
   26       -7.611388   1.000000
   27       -7.439336   1.000000
   28       -7.257512   1.000000
   29       -7.072358   1.000000
   30       -6.506916   1.000000
   31       -6.329596   1.000000
   32       -6.216657   1.000000
   33       -6.146719   1.000000
   34       -6.118971   1.000000
   35       -5.943235   1.000000
   36       -5.831371   1.000000
   37       -5.718669   1.000000
   38       -5.549305   1.000000
   39       -5.409795   1.000000
   40       -5.352604   1.000000
   41       -5.279880   1.000000
   42       -5.176531   1.000000
   43       -5.076199   1.000000
   44       -5.055759   1.000000
   45       -4.957032   1.000000
   46       -4.825515   1.000000
   47       -4.771187   1.000000
   48       -4.651238   1.000000
   49       -4.554244   1.000000
   50       -4.466727   1.000000
   51       -4.425753   1.000000
   52       -4.401131   1.000000
   53       -4.271946   1.000000
   54       -4.200965   1.000000
   55       -4.104136   1.000000
   56       -4.056063   1.000000
   57       -3.955424   1.000000
   58       -3.860653   1.000000
   59       -3.804603   1.000000
   60       -3.720853   1.000000
   61       -3.688461   1.000000
   62       -3.601067   1.000000
   63       -3.511238   1.000000
   64       -3.410637   1.000000
   65       -3.323709   1.000000
   66       -3.126281   1.000000
   67       -3.038187   1.000000
   68       -2.939973   1.000000
   69       -2.881139   1.000000
   70       -2.793802   1.000000
   71       -2.647486   1.000000
   72       -2.533416   1.000000
   73       -2.401553   1.000000
   74       -2.297946   1.000000
   75       -2.152457   1.000000
   76       -1.887474   1.000000
   77       -1.760792   1.000000
   78       -1.714294   1.000000
   79       -1.535702   1.000000
   80       -1.493161   1.000000
   81       -1.336706   1.000000
   82       -1.207537   1.000000
   83       -1.131371   1.000000
   84       -1.004343   1.000020
   85       -0.799473   1.003417
   86       -0.577029   1.033807
   87       -0.552091   1.025434
   88       -0.387531   0.649773
   89       -0.245666   0.114318
   90       -0.162987  -0.018090
   91       -0.113443  -0.035266
   92       -0.044207  -0.026002
   93        0.080684  -0.004595
   94        0.161201  -0.000868
   95        0.266747  -0.000056
   96        0.337134  -0.000006
   97        0.434122  -0.000000
   98        0.525215  -0.000000
   99        0.550699  -0.000000
  100        0.640867  -0.000000
  101        0.705197  -0.000000
  102        0.774663  -0.000000
  103        0.873772  -0.000000
  104        1.006688  -0.000000
  105        1.057518  -0.000000
  106        1.074526  -0.000000
  107        1.151221  -0.000000
  108        1.163619  -0.000000
  109        1.241489  -0.000000
  110        1.305303  -0.000000
  111        1.404501  -0.000000
  112        1.485778  -0.000000
  113        1.590582  -0.000000
  114        1.659490  -0.000000

  0.2222222E+00  0.9090909E-01  0.3065600E-15  0.6734007E-02
    1      -13.913739   1.000000
    2      -12.990711   1.000000
    3      -12.630082   1.000000
    4      -11.927601   1.000000
    5      -11.582596   1.000000
    6      -11.507954   1.000000
    7      -11.386222   1.000000
    8      -11.222876   1.000000
    9      -10.867175   1.000000
   10      -10.678328   1.000000
   11      -10.625488   1.000000
   12      -10.453534   1.000000
   13      -10.267979   1.000000
   14      -10.113674   1.000000
   15       -9.802055   1.000000
   16       -9.560267   1.000000
   17       -9.270413   1.000000
   18       -9.048513   1.000000
   19       -8.874170   1.000000
   20       -8.666033   1.000000
   21       -8.605073   1.000000
   22       -8.389026   1.000000
   23       -8.146470   1.000000
   24       -7.974627   1.000000
   25       -7.756194   1.000000
   26       -7.648617   1.000000
   27       -7.421576   1.000000
   28       -7.287718   1.000000
   29       -7.044807   1.000000
   30       -6.514057   1.000000
   31       -6.305959   1.000000
   32       -6.177134   1.000000
   33       -6.092140   1.000000
   34       -6.028970   1.000000
   35       -5.944913   1.000000
   36       -5.796833   1.000000
   37       -5.686902   1.000000
   38       -5.531181   1.000000
   39       -5.398589   1.000000
   40       -5.319781   1.000000
   41       -5.259183   1.000000
   42       -5.159441   1.000000
   43       -5.124339   1.000000
   44       -5.038368   1.000000
   45       -4.926137   1.000000
   46       -4.786326   1.000000
   47       -4.728378   1.000000
   48       -4.655147   1.000000
   49       -4.524779   1.000000
   50       -4.488361   1.000000
   51       -4.437724   1.000000
   52       -4.375045   1.000000
   53       -4.274751   1.000000
   54       -4.190945   1.000000
   55       -4.082888   1.000000
   56       -4.044903   1.000000
   57       -3.959936   1.000000
   58       -3.874793   1.000000
   59       -3.804129   1.000000
   60       -3.750265   1.000000
   61       -3.735391   1.000000
   62       -3.653633   1.000000
   63       -3.560285   1.000000
   64       -3.449708   1.000000
   65       -3.314901   1.000000
   66       -3.144847   1.000000
   67       -3.021409   1.000000
   68       -2.934968   1.000000
   69       -2.857912   1.000000
   70       -2.815631   1.000000
   71       -2.677339   1.000000
   72       -2.473947   1.000000
   73       -2.445112   1.000000
   74       -2.306792   1.000000
   75       -2.204050   1.000000
   76       -1.919968   1.000000
   77       -1.788368   1.000000
   78       -1.684446   1.000000
   79       -1.538539   1.000000
   80       -1.470748   1.000000
   81       -1.265550   1.000000
   82       -1.198373   1.000000
   83       -1.085157   1.000001
   84       -0.981931   1.000039
   85       -0.787668   1.004269
   86       -0.623450   1.033136
   87       -0.501258   0.975771
   88       -0.403256   0.711099
   89       -0.267594   0.177259
   90       -0.141659  -0.029507