    3    3   60    1
  0.8144830E+01  0.3039000E-09  0.3039000E-09  0.3055000E-09  0.5000000E-15
   1.0000000000000000E-004
  CAR 
 Name                                    
     12    216     10

  0.3742002E-15  0.3742002E-15  0.3742002E-15  0.2962963E-03
    1       -5.439184   1.000000
    2        4.541128   1.000000
    3        4.931995   1.000000
    4        4.931997   1.000000
    5        6.125563   1.000000
    6       10.027445  -0.008819
    7       10.027446  -0.008821
    8       12.451915  -0.000000
    9       12.451918  -0.000000
   10       14.792053   0.000000

  0.6666667E-01  0.3766815E-15  0.3742002E-15  0.1777778E-02
    1       -5.346787   1.000000
    2        4.614061   1.000000
    3        4.714438   1.000000
    4        4.976935   1.000000
    5        5.911044   1.000000
    6        9.982491   0.167030
    7       10.326007  -0.000000
    8       11.969450  -0.000000
    9       12.063666  -0.000000
   10       15.192134   0.000000

  0.1333333E+00  0.3754153E-15  0.3742002E-15  0.1777778E-02
    1       -5.074195   1.000000
    2        4.117773   1.000000
    3        4.817753   1.000000
    4        5.092365   1.000000
    5        5.424565   1.000000
    6        9.858022   0.992230
    7       11.030407  -0.000000
    8       11.111919  -0.000000
    9       11.455655  -0.000000
   10       15.810863   0.000000

  0.2000000E+00  0.3870416E-15  0.3742002E-15  0.1777778E-02
    1       -4.634573   1.000000
    2        3.307813   1.000000
    3        4.883303   1.000000
    4        5.019037   1.000000
    5        5.226235   1.000000
    6        9.681424   1.000824
    7       10.445907  -0.000000
    8       11.037263  -0.000000
    9       11.793876  -0.000000
   10       16.240976   0.000000

  0.2666667E+00  0.4120044E-15  0.3742002E-15  0.1777778E-02
    1       -4.047525   1.000000
    2        2.391207   1.000000
    3        4.398057   1.000000
    4        5.056612   1.000000
    5        5.318930   1.000000
    6        9.487666   1.000000
    7       10.283414  -0.000006
    8       10.905502  -0.000000
    9       12.249910  -0.000000
   10       16.487314   0.000000

  0.3333333E+00  0.4025434E-15  0.3742002E-15  0.1777778E-02
    1       -3.337748   1.000000
    2        1.430312   1.000000
    3        4.015240   1.000000
    4        4.876185   1.000000
    5        5.343947   1.000000
    6        9.310470   1.000000
    7       10.710534  -0.000000
    8       11.028727  -0.000000
    9       12.236467  -0.000000
   10       16.577597   0.000000

  0.4000000E+00  0.3732510E-15  0.3742002E-15  0.1777778E-02
    1       -2.538683   1.000000
    2        0.464742   1.000000
    3        3.754130   1.000000
    4        4.621934   1.000000
    5        5.323639   1.000000
    6        9.177010   1.000000
    7       11.273804  -0.000000
    8       11.505063  -0.000000
    9       12.014810  -0.000000
   10       16.541007   0.000000

  0.4666667E+00  0.3915456E-15  0.3742002E-15  0.1777778E-02
    1       -1.743954   1.000000
    2       -0.413077   1.000000
    3        3.622357   1.000000
    4        4.455829   1.000000
    5        5.299689   1.000000
    6        9.105699   1.000000
    7       11.461900  -0.000000
    8       11.851040  -0.000000
    9       12.209895  -0.000000
   10       16.377373   0.000000

  0.6666667E-01  0.6666667E-01  0.3742002E-15  0.1777778E-02
    1       -5.164240   1.000000
    2        4.321112   1.000000
    3        4.733556   1.000000
    4        5.062565   1.000000
    5        5.569096   1.000000
    6        9.872063   0.948297
    7       10.847981  -0.000000
    8       11.376901  -0.000000
    9       11.565732  -0.000000
   10       15.747970   0.000000

  0.1333333E+00  0.6666667E-01  0.3742002E-15  0.3555556E-02
    1       -4.807833   1.000000
    2        3.656584   1.000000
    3        4.814990   1.000000
    4        5.082337   1.000000
    5        5.274411   1.000000
    6        9.652449   1.000195
    7       10.624547  -0.000000
    8       11.155365  -0.000000
    9       11.651709  -0.000000
   10       16.304912   0.000000

  0.2000000E+00  0.6666667E-01  0.3742002E-15  0.3555556E-02
    1       -4.293576   1.000000
    2        2.831586   1.000000
    3        4.602835   1.000000
    4        4.731971   1.000000
    5        5.571530   1.000000
    6        9.369131   1.000000
    7       10.096003  -0.024401
    8       11.060531  -0.000000
    9       12.398805  -0.000000
   10       16.426365   0.000000

  0.2666667E+00  0.6666667E-01  0.3742002E-15  0.3555556E-02
    1       -3.642920   1.000000
    2        1.923438   1.000000
    3        4.201429   1.000000
    4        4.503188   1.000000
    5        5.780624   1.000000
    6        9.071138   1.000000
    7       10.029839  -0.013009
    8       11.282177  -0.000000
    9       12.740942   0.000000
   10       16.594701   0.000000

  0.3333333E+00  0.6666667E-01  0.3742002E-15  0.3555556E-02
    1       -2.882936   1.000000
    2        0.976111   1.000000
    3        3.906718   1.000000
    4        4.221969   1.000000
    5        5.830832   1.000000
    6        8.809159   1.000000
    7       10.422298  -0.000000
    8       11.689850  -0.000000
    9       12.682130   0.000000
   10       16.769289   0.000000

  0.4000000E+00  0.6666667E-01  0.3742002E-15  0.3555556E-02
    1       -2.058870   1.000000
    2        0.037858   1.000000
    3        3.728549   1.000000
    4        4.002059   1.000000
    5        5.800563   1.000000
    6        8.629537   1.000000
    7       10.982456  -0.000000
    8       12.068559  -0.000000
    9       12.531073  -0.000000
   10       16.720304   0.000000

  0.4666667E+00  0.6666667E-01  0.3742002E-15  0.1777778E-02
    1       -1.462659   1.000000
    2       -0.596929   1.000000
    3        3.669114   1.000000
    4        3.920419   1.000000
    5        5.780081   1.000000
    6        8.565593   1.000000
    7       11.259890  -0.000000
    8       12.217808  -0.000000
    9       12.466059  -0.000000
   10       16.676906   0.000000

  0.1333333E+00  0.1333333E+00  0.3742002E-15  0.1777778E-02
    1       -4.376099   1.000000
    2        3.045492   1.000000
    3        4.534737   1.000000
    4        4.693683   1.000000
    5        5.674032   1.000000
    6        9.238186   1.000000
    7       10.015336   0.019606
    8       11.147185  -0.000000
    9       12.561483  -0.000000
   10       16.361488   0.000000

  0.2000000E+00  0.1333333E+00  0.3742002E-15  0.3555556E-02
    1       -3.795818   1.000000
    2        2.322205   1.000000
    3        4.092543   1.000000
    4        4.353166   1.000000
    5        6.138677   1.000000
    6        8.730149   1.000000
    7        9.554659   1.000000
    8       11.472353  -0.000000
    9       13.422794   0.000000
   10       16.137602   0.000000

  0.2666667E+00  0.1333333E+00  0.3742002E-15  0.3555556E-02
    1       -3.088949   1.000000
    2        1.500217   1.000000
    3        3.636801   1.000000
    4        4.100101   1.000000
    5        6.475879   1.000000
    6        8.234586   1.000000
    7        9.520441   1.000000
    8       11.900539  -0.000000
    9       13.817633   0.000000
   10       16.577206   0.000000

  0.3333333E+00  0.1333333E+00  0.3742002E-15  0.3555556E-02
    1       -2.285085   1.000000
    2        0.604950   1.000000
    3        3.286924   1.000000
    4        3.941218   1.000000
    5        6.576881   1.000000
    6        7.843164   1.000000
    7        9.980877   0.177012
    8       12.117059  -0.000000
    9       13.812863   0.000000
   10       17.332063   0.000000

  0.4000000E+00  0.1333333E+00  0.3742002E-15  0.3555556E-02
    1       -1.458521   1.000000
    2       -0.275011   1.000000
    3        3.102390   1.000000
    4        3.867098   1.000000
    5        6.564980   1.000000
    6        7.627217   1.000000
    7       10.599165  -0.000000
    8       11.969552  -0.000000
    9       13.747649   0.000000
   10       17.502555   0.000000

  0.2000000E+00  0.2000000E+00  0.3742002E-15  0.1777778E-02
    1       -3.157418   1.000000
    2        1.782655   1.000000
    3        3.330966   1.000000
    4        4.193718   1.000000
    5        6.796364   1.000000
    6        7.990239   1.000000
    7        9.101765   1.000000
    8       11.975265  -0.000000
    9       14.562415   0.000000
   10       15.995623   0.000000

  0.2666667E+00  0.2000000E+00  0.3742002E-15  0.3555556E-02
    1       -2.400109   1.000000
    2        1.138412   1.000000
    3        2.670974   1.000000
    4        4.136782   1.000000
    5        7.313298   1.000000
    6        7.316544   1.000000
    7        9.055531   1.000000
    8       12.163332  -0.000000
    9       15.151416   0.000000
   10       16.521082   0.000000

  0.3333333E+00  0.2000000E+00  0.3742002E-15  0.3555556E-02
    1       -1.556831   1.000000
    2        0.333454   1.000000
    3        2.278645   1.000000
    4        4.151226   1.000000
    5        6.826528   1.000000
    6        7.450466   1.000000
    7        9.615169   1.000023
    8       11.824780  -0.000000
    9       15.162213   0.000000
   10       17.510319   0.000000

  0.4000000E+00  0.2000000E+00  0.3742002E-15  0.1777778E-02
    1       -0.844164   1.000000
    2       -0.379246   1.000000
    3        2.156719   1.000000
    4        4.170099   1.000000
    5        6.645268   1.000000
    6        7.442712   1.000000
    7       10.124608  -0.012331
    8       11.413358  -0.000000
    9       15.138435   0.000000
   10       17.977950   0.000000

  0.2666667E+00  0.2666667E+00  0.3742002E-15  0.1777778E-02
    1       -1.598044   1.000000
    2        0.780536   1.000000
    3        1.766042   1.000000
    4        4.313972   1.000000
    5        6.483929   1.000000
    6        8.204688   1.000000
    7        8.797739   1.000000
    8       11.782964  -0.000000
    9       16.430938   0.000000
   10       16.524670   0.000000

  0.3333333E+00  0.2666667E+00  0.3742002E-15  0.3555556E-02
    1       -0.720857   1.000000
    2        0.168253   1.000000
    3        1.261517   1.000000
    4        4.550118   1.000000
    5        5.906126   1.000000
    6        8.407889   1.000000
    7        9.371298   1.000000
    8       11.024022  -0.000000
    9       16.420380   0.000000
   10       17.469933   0.000000

  0.3333333E+00  0.3333333E+00  0.3742002E-15  0.5925926E-03
    1        0.070081   1.000000
    2        0.070084   1.000000
    3        0.450893   1.000000
    4        5.138647   1.000000
    5        5.138650   1.000000
    6        9.162596   1.000000
    7        9.162596   1.000000
    8       10.410678  -0.000000
    9       17.214965   0.000000
   10       17.214965   0.000000

  0.3742002E-15  0.3742002E-15  0.6666667E-01  0.5925926E-03
    1       -5.371366   1.000000
    2        4.268940   1.000000
    3        4.985287   1.000000
    4        4.985290   1.000000
    5        6.348538   1.000000
    6        9.821331   1.035060
    7        9.821333   1.035059
    8       12.302802  -0.000000
    9       12.302805  -0.000000
   10       15.110346   0.000000

  0.6666667E-01  0.3766815E-15  0.6666667E-01  0.3555556E-02
    1       -5.280040   1.000000
    2        4.329536   1.000000
    3        4.757844   1.000000
    4        5.024887   1.000000
    5        6.139371   1.000000
    6        9.750656   1.011474
    7       10.086602  -0.028658
    8       11.969823  -0.000000
    9       12.057937  -0.000000
   10       15.385435   0.000000

  0.1333333E+00  0.3754153E-15  0.6666667E-01  0.3555556E-02
    1       -5.010780   1.000000
    2        4.146183   1.000000
    3        4.463494   1.000000
    4        5.121744   1.000000
    5        5.713384   1.000000
    6        9.583556   1.000003
    7       10.457076  -0.000000
    8       11.583654  -0.000000
    9       11.634712  -0.000000
   10       15.808285   0.000000

  0.2000000E+00  0.3870416E-15  0.6666667E-01  0.3555556E-02
    1       -4.576817   1.000000
    2        3.304816   1.000000
    3        4.506852   1.000000
    4        5.218606   1.000000
    5        5.351539   1.000000
    6        9.428232   1.000000
    7       10.241102  -0.000082
    8       11.304273  -0.000000
    9       11.972255  -0.000000
   10       15.989775   0.000000

  0.2666667E+00  0.4120044E-15  0.6666667E-01  0.3555556E-02
    1       -3.997682   1.000000
    2        2.361181   1.000000
    3        4.320404   1.000000
    4        5.132984   1.000000
    5        5.256892   1.000000
    6        9.365021   1.000000
    7       10.168883  -0.002700
    8       11.138087  -0.000000
    9       12.348463  -0.000000
   10       16.161421   0.000000

  0.3333333E+00  0.4025434E-15  0.6666667E-01  0.3555556E-02
    1       -3.297200   1.000000
    2        1.383280   1.000000
    3        4.057159   1.000000
    4        4.890531   1.000000
    5        5.224598   1.000000
    6        9.368944   1.000000
    7       10.555510  -0.000000
    8       11.161929  -0.000000
    9       12.350754  -0.000000
   10       16.766623   0.000000

  0.4000000E+00  0.3732510E-15  0.6666667E-01  0.3555556E-02
    1       -2.505086   1.000000
    2        0.408486   1.000000
    3        3.853283   1.000000
    4        4.629034   1.000000
    5        5.160940   1.000000
    6        9.373391   1.000000
    7       11.105036  -0.000000
    8       11.326139  -0.000000
    9       12.363791  -0.000000
   10       16.557355   0.000000

  0.4666667E+00  0.3915456E-15  0.6666667E-01  0.3555556E-02
    1       -1.695390   1.000000
    2       -0.491575   1.000000
    3        3.747544   1.000000
    4        4.463820   1.000000
    5        5.114888   1.000000
    6        9.367039   1.000000
    7       11.308601  -0.000000
    8       11.477540  -0.000000
    9       12.719729   0.000000
   10       16.213823   0.000000

  0.6666667E-01  0.6666667E-01  0.6666667E-01  0.3555556E-02
    1       -5.099710   1.000000
    2        4.361647   1.000000
    3        4.427449   1.000000
    4        5.045869   1.000000
    5        5.860753   1.000000
    6        9.564390   1.000001
    7       10.507067  -0.000000
    8       11.523961  -0.000000
    9       11.799613  -0.000000
   10       15.841557   0.000000

  0.1333333E+00  0.6666667E-01  0.6666667E-01  0.7111111E-02
    1       -4.747829   1.000000
    2        3.679178   1.000000
    3        4.517400   1.000000
    4        4.934330   1.000000
    5        5.682221   1.000000
    6        9.245117   1.000000
    7       10.663473  -0.000000
    8       11.170083  -0.000000
    9       11.908812  -0.000000
   10       16.204810   0.000000

  0.2000000E+00  0.6666667E-01  0.6666667E-01  0.7111111E-02
    1       -4.240470   1.000000
    2        2.824831   1.000000
    3        4.405046   1.000000
    4        4.731319   1.000000
    5        5.732287   1.000000
    6        8.968720   1.000000
    7       10.384663  -0.000000
    8       11.115214  -0.000000
    9       12.471869  -0.000000
   10       16.122155   0.000000

  0.2666667E+00  0.6666667E-01  0.6666667E-01  0.7111111E-02
    1       -3.598770   1.000000
    2        1.890984   1.000000
    3        4.149280   1.000000
    4        4.505744   1.000000
    5        5.773044   1.000000
    6        8.878667   1.000000
    7       10.318968  -0.000001
    8       11.258900  -0.000000
    9       12.771103   0.000000
   10       16.374097   0.000000

  0.3333333E+00  0.6666667E-01  0.6666667E-01  0.7111111E-02
    1       -2.848080   1.000000
    2        0.928428   1.000000
    3        3.936030   1.000000
    4        4.236468   1.000000
    5        5.700778   1.000000
    6        8.900210   1.000000
    7       10.564661  -0.000000
    8       11.549831  -0.000000
    9       12.780949   0.000000
   10       16.759188   0.000000

  0.4000000E+00  0.6666667E-01  0.6666667E-01  0.7111111E-02
    1       -2.025988   1.000000
    2       -0.021054   1.000000
    3        3.818320   1.000000
    4        4.009248   1.000000
    5        5.599285   1.000000
    6        8.886668   1.000000
    7       11.019638  -0.000000
    8       11.723412  -0.000000
    9       12.854432   0.000000
   10       16.580029   0.000000

  0.4666667E+00  0.6666667E-01  0.6666667E-01  0.3555556E-02
    1       -1.391860   1.000000
    2       -0.697724   1.000000
    3        3.791082   1.000000
    4        3.912724   1.000000
    5        5.556077   1.000000
    6        8.869981   1.000000
    7       11.281619  -0.000000
    8       11.717465  -0.000000
    9       12.952815   0.000000
   10       16.436370   0.000000

  0.1333333E+00  0.1333333E+00  0.6666667E-01  0.3555556E-02
    1       -4.321921   1.000000
    2        3.066249   1.000000
    3        4.359559   1.000000
    4        4.571456   1.000000
    5        5.961338   1.000000
    6        8.683364   1.000000
    7       10.556171  -0.000000
    8       11.063283  -0.000000
    9       12.601111  -0.000000
   10       16.218242   0.000000

  0.2000000E+00  0.1333333E+00  0.6666667E-01  0.7111111E-02
    1       -3.749928   1.000000
    2        2.323577   1.000000
    3        3.913298   1.000000
    4        4.384292   1.000000
    5        6.299425   1.000000
    6        8.217905   1.000000
    7       10.130472  -0.010392
    8       11.433036  -0.000000
    9       13.363285   0.000000
   10       16.011525   0.000000

  0.2666667E+00  0.1333333E+00  0.6666667E-01  0.7111111E-02
    1       -3.053161   1.000000
    2        1.474955   1.000000
    3        3.525015   1.000000
    4        4.185824   1.000000
    5        6.411058   1.000000
    6        8.091579   1.000000
    7        9.926036   0.607768
    8       11.840546  -0.000000
    9       13.744236   0.000000
   10       16.376444   0.000000

  0.3333333E+00  0.1333333E+00  0.6666667E-01  0.7111111E-02
    1       -2.258372   1.000000
    2        0.562596   1.000000
    3        3.243511   1.000000
    4        4.039330   1.000000
    5        6.259170   1.000000
    6        8.155507   1.000000
    7       10.156043  -0.004419
    8       12.024054  -0.000000
    9       13.808317   0.000000
   10       16.889661   0.000000

  0.4000000E+00  0.1333333E+00  0.6666667E-01  0.7111111E-02
    1       -1.422352   1.000000
    2       -0.338250   1.000000
    3        3.094568   1.000000
    4        3.968974   1.000000
    5        6.116379   1.000000
    6        8.153866   1.000000
    7       10.660510  -0.000000
    8       11.873682  -0.000000
    9       13.801511   0.000000
   10       17.076370   0.000000

  0.2000000E+00  0.2000000E+00  0.6666667E-01  0.3555556E-02
    1       -3.121308   1.000000
    2        1.783769   1.000000
    3        3.197145   1.000000
    4        4.248568   1.000000
    5        6.960186   1.000000
    6        7.489360   1.000000
    7        9.673558   1.000568
    8       11.936641  -0.000000
    9       14.396018   0.000000
   10       15.899451   0.000000

  0.2666667E+00  0.2000000E+00  0.6666667E-01  0.7111111E-02
    1       -2.375600   1.000000
    2        1.119991   1.000000
    3        2.604974   1.000000
    4        4.198462   1.000000
    5        6.778865   1.000000
    6        7.685048   1.000000
    7        9.449180   1.000000
    8       12.123381  -0.000000
    9       15.003573   0.000000
   10       16.335410   0.000000

  0.3333333E+00  0.2000000E+00  0.6666667E-01  0.7111111E-02
    1       -1.541573   1.000000
    2        0.297472   1.000000
    3        2.264352   1.000000
    4        4.217084   1.000000
    5        6.325180   1.000000
    6        7.998735   1.000000
    7        9.774012   1.020829
    8       11.805252  -0.000000
    9       15.086861   0.000000
   10       17.153490   0.000000

  0.4000000E+00  0.2000000E+00  0.6666667E-01  0.3555556E-02
    1       -0.790549   1.000000
    2       -0.461286   1.000000
    3        2.158662   1.000000
    4        4.239285   1.000000
    5        6.152642   1.000000
    6        8.036573   1.000000
    7       10.206474  -0.000509
    8       11.417914  -0.000000
    9       15.081471   0.000000
   10       17.536139   0.000000

  0.2666667E+00  0.2666667E+00  0.6666667E-01  0.3555556E-02
    1       -1.587604   1.000000
    2        0.757482   1.000000
    3        1.742778   1.000000
    4        4.353742   1.000000
    5        6.242750   1.000000
    6        8.334992   1.000000
    7        9.152489   1.000000
    8       11.775839  -0.000000
    9       16.294153   0.000000
   10       16.343906   0.000000

  0.3333333E+00  0.2666667E+00  0.6666667E-01  0.7111111E-02
    1       -0.724252   1.000000
    2        0.136126   1.000000
    3        1.272928   1.000000
    4        4.573233   1.000000
    5        5.737880   1.000000
    6        8.673228   1.000000
    7        9.519663   1.000000
    8       11.049440  -0.000000
    9       16.323099   0.000000
   10       17.276359   0.000000

  0.3333333E+00  0.3333333E+00  0.6666667E-01  0.1185185E-02
    1        0.017386   1.000000
    2        0.017389   1.000000
    3        0.535461   1.000000
    4        5.094387   1.000000
    5        5.094389   1.000000
    6        9.346079   1.000000
    7        9.346080   1.000000
    8       10.438834  -0.000000
    9       17.097223   0.000000
   10       17.097223   0.000000

  0.3742002E-15  0.3742002E-15  0.1333333E+00  0.5925926E-03
    1       -5.172161   1.000000
    2        3.666648   1.000000
    3        5.144685   1.000000
    4        5.144688   1.000000
    5        6.817454   1.000000
    6        9.335672   1.000000
    7        9.335673   1.000000
    8       11.884279  -0.000000
    9       11.884282  -0.000000
   10       15.688008   0.000000

  0.6666667E-01  0.3766815E-15  0.1333333E+00  0.3555556E-02
    1       -5.084217   1.000000
    2        3.719635   1.000000
    3        4.899858   1.000000
    4        5.166914   1.000000
    5        6.579153   1.000000
    6        9.234173   1.000000
    7        9.580307   1.000002
    8       11.781380  -0.000000
    9       11.882855  -0.000000
   10       15.986880   0.000000

  0.1333333E+00  0.3754153E-15  0.1333333E+00  0.3555556E-02
    1       -4.825298   1.000000
    2        3.815446   1.000000
    3        4.277870   1.000000
    4        5.204042   1.000000
    5        6.132653   1.000000
    6        9.053332   1.000000
    7        9.850770   1.008000
    8       11.821551  -0.000000
    9       11.842283  -0.000000
   10       15.944353   0.000000

  0.2000000E+00  0.3870416E-15  0.1333333E+00  0.3555556E-02
    1       -4.409112   1.000000
    2        3.252375   1.000000
    3        4.089049   1.000000
    4        5.188659   1.000000
    5        5.697200   1.000000
    6        9.003723   1.000000
    7        9.813397   1.035323
    8       11.742104  -0.000000
    9       12.277588  -0.000000
   10       15.697859   0.000000

  0.2666667E+00  0.4120044E-15  0.1333333E+00  0.3555556E-02
    1       -3.855126   1.000000
    2        2.277703   1.000000
    3        4.153962   1.000000
    4        5.082125   1.000000
    5        5.296934   1.000000
    6        9.180773   1.000000
    7        9.868841   0.960038
    8       11.618642  -0.000000
    9       12.637338  -0.000000
   10       15.692031   0.000000

  0.3333333E+00  0.4025434E-15  0.1333333E+00  0.3555556E-02
    1       -3.185178   1.000000
    2        1.276355   1.000000
    3        4.146150   1.000000
    4        4.919867   1.000000
    5        4.930618   1.000000
    6        9.513883   1.000000
    7       10.193721  -0.000931
    8       11.525304  -0.000000
    9       12.674501   0.000000
   10       16.137938   0.000000

  0.4000000E+00  0.3732510E-15  0.1333333E+00  0.3555556E-02
    1       -2.421079   1.000000
    2        0.292816   1.000000
    3        4.104249   1.000000
    4        4.635481   1.000000
    5        4.769557   1.000000
    6        9.839308   1.024685
    7       10.548005  -0.000000
    8       11.501319  -0.000000
    9       12.837391   0.000000
   10       16.255418   0.000000

  0.4666667E+00  0.3915456E-15  0.1333333E+00  0.3555556E-02
    1       -1.589913   1.000000
    2       -0.646667   1.000000
    3        4.074425   1.000000
    4        4.468722   1.000000
    5        4.682339   1.000000
    6       10.021122   0.004454
    7       10.680870  -0.000000
    8       11.526665  -0.000000
    9       13.281904   0.000000
   10       15.832745   0.000000

  0.6666667E-01  0.6666667E-01  0.1333333E+00  0.3555556E-02
    1       -4.910757   1.000000
    2        3.806867   1.000000
    3        4.480778   1.000000
    4        5.129482   1.000000
    5        6.318095   1.000000
    6        8.960387   1.000000
    7        9.968285   0.262737
    8       11.605318  -0.000000
    9       11.971848  -0.000000
   10       16.438562   0.000000

  0.1333333E+00  0.6666667E-01  0.1333333E+00  0.7111111E-02
    1       -4.573026   1.000000
    2        3.687447   1.000000
    3        3.986178   1.000000
    4        4.951364   1.000000
    5        6.152595   1.000000
    6        8.594362   1.000000
    7       10.264211  -0.000021
    8       11.521046  -0.000000
    9       12.227652  -0.000000
   10       16.088632   0.000000

  0.2000000E+00  0.6666667E-01  0.1333333E+00  0.7111111E-02
    1       -4.087398   1.000000
    2        2.789811   1.000000
    3        4.040853   1.000000
    4        4.714366   1.000000
    5        6.000227   1.000000
    6        8.459338   1.000000
    7       10.355430  -0.000000
    8       11.497448  -0.000000
    9       12.676635   0.000000
   10       15.760647   0.000000

  0.2666667E+00  0.6666667E-01  0.1333333E+00  0.7111111E-02
    1       -3.474396   1.000000
    2        1.809689   1.000000
    3        4.024933   1.000000
    4        4.486175   1.000000
    5        5.727023   1.000000
    6        8.681484   1.000000
    7       10.553675  -0.000000
    8       11.432888  -0.000000
    9       12.932864   0.000000
   10       15.899718   0.000000

  0.3333333E+00  0.6666667E-01  0.1333333E+00  0.7111111E-02
    1       -2.755618   1.000000
    2        0.824857   1.000000
    3        3.959229   1.000000
    4        4.286476   1.000000
    5        5.414616   1.000000
    6        9.101824   1.000000
    7       10.829386  -0.000000
    8       11.400965  -0.000000
    9       13.024992   0.000000
   10       16.277918   0.000000

  0.4000000E+00  0.6666667E-01  0.1333333E+00  0.7111111E-02
    1       -1.952838   1.000000
    2       -0.136400   1.000000
    3        3.894450   1.000000
    4        4.152968   1.000000
    5        5.182191   1.000000
    6        9.433742   1.000000
    7       11.079705  -0.000000
    8       11.384979  -0.000000
    9       13.271175   0.000000
   10       16.171735   0.000000

  0.4666667E+00  0.6666667E-01  0.1333333E+00  0.3555556E-02
    1       -1.184898   1.000000
    2       -0.956820   1.000000
    3        3.865683   1.000000
    4        4.110003   1.000000
    5        5.097311   1.000000
    6        9.539832   1.000000
    7       11.224770  -0.000000
    8       11.344991  -0.000000
    9       13.467437   0.000000
   10       15.965200   0.000000

  0.1333333E+00  0.1333333E+00  0.1333333E+00  0.3555556E-02
    1       -4.165436   1.000000
    2        3.125650   1.000000
    3        3.829459   1.000000
    4        4.564769   1.000000
    5        6.477803   1.000000
    6        7.921838   1.000000
    7       10.817241  -0.000000
    8       11.220536  -0.000000
    9       12.732226   0.000000
   10       16.011591   0.000000

  0.2000000E+00  0.1333333E+00  0.1333333E+00  0.7111111E-02
    1       -3.619588   1.000000
    2        2.323431   1.000000
    3        3.574666   1.000000
    4        4.395865   1.000000
    5        6.574488   1.000000
    6        7.655337   1.000000
    7       10.895718  -0.000000
    8       11.327119  -0.000000
    9       13.307651   0.000000
   10       15.756731   0.000000

  0.2666667E+00  0.1333333E+00  0.1333333E+00  0.7111111E-02
    1       -2.955535   1.000000
    2        1.413587   1.000000
    3        3.333925   1.000000
    4        4.302762   1.000000
    5        6.154809   1.000000
    6        8.110236   1.000000
    7       10.698740  -0.000000
    8       11.664999  -0.000000
    9       13.660895   0.000000
   10       15.976797   0.000000

  0.3333333E+00  0.1333333E+00  0.1333333E+00  0.7111111E-02
    1       -2.194289   1.000000
    2        0.473882   1.000000
    3        3.160055   1.000000
    4        4.245293   1.000000
    5        5.725238   1.000000
    6        8.684825   1.000000
    7       10.653959  -0.000000
    8       11.790022  -0.000000
    9       13.836477   0.000000
   10       16.346442   0.000000

  0.4000000E+00  0.1333333E+00  0.1333333E+00  0.7111111E-02
    1       -1.358100   1.000000
    2       -0.454392   1.000000
    3        3.067825   1.000000
    4        4.228186   1.000000
    5        5.474439   1.000000
    6        9.005417   1.000000
    7       10.850500  -0.000000
    8       11.666153  -0.000000
    9       13.935629   0.000000
   10       16.468162   0.000000

  0.2000000E+00  0.2000000E+00  0.1333333E+00  0.3555556E-02
    1       -3.021941   1.000000
    2        1.785243   1.000000
    3        2.929472   1.000000
    4        4.327214   1.000000
    5        6.762989   1.000000
    6        7.395515   1.000000
    7       10.588452  -0.000000
    8       11.805138  -0.000000
    9       14.108775   0.000000
   10       15.684648   0.000000

  0.2666667E+00  0.2000000E+00  0.1333333E+00  0.7111111E-02
    1       -2.314076   1.000000
    2        1.072635   1.000000
    3        2.474669   1.000000
    4        4.324308   1.000000
    5        6.166318   1.000000
    6        8.111320   1.000000
    7       10.279931  -0.000008
    8       12.004067  -0.000000
    9       14.712656   0.000000
   10       15.993122   0.000000
