   58   58   85    1
  0.1311926E+02  0.6088057E-09  0.6088057E-09  0.2372246E-08  0.5000000E-15
   1.0000000000000000E-004
  CAR 
 Name                                    
    204     41    132

  0.3742002E-15  0.3742002E-15  0.1262379E-14  0.1234568E-01
    1      -11.485535   1.000000
    2      -10.913108   1.000000
    3      -10.182452   1.000000
    4       -9.493204   1.000000
    5       -8.692254   1.000000
    6       -8.605779   1.000000
    7       -8.220106   1.000000
    8       -8.043724   1.000000
    9       -7.898961   1.000000
   10       -7.819815   1.000000
   11       -7.726837   1.000000
   12       -7.687073   1.000000
   13       -7.648975   1.000000
   14       -7.638071   1.000000
   15       -7.420159   1.000000
   16       -7.331400   1.000000
   17       -7.278181   1.000000
   18       -7.259165   1.000000
   19       -7.167842   1.000000
   20       -6.987763   1.000000
   21       -6.976851   1.000000
   22       -6.885113   1.000000
   23       -6.727262   1.000000
   24       -6.072580   1.000000
   25       -6.048898   1.000000
   26       -5.992475   1.000000
   27       -5.871640   1.000000
   28       -5.862768   1.000000
   29       -5.850618   1.000000
   30       -5.508926   1.000000
   31       -5.452782   1.000000
   32       -4.714000   1.000000
   33       -4.585556   1.000000
   34       -4.575402   1.000000
   35       -4.449396   1.000000
   36       -4.339473   1.000000
   37       -4.188177   1.000000
   38       -3.627021   1.000000
   39       -3.345452   1.000000
   40       -3.117906   1.000000
   41       -3.113795   1.000000
   42       -2.933668   1.000000
   43       -2.687229   1.000000
   44       -2.684518   1.000000
   45       -2.555434   1.000000
   46       -2.464810   1.000000
   47       -2.425011   1.000000
   48       -2.317569   1.000000
   49       -2.222265   1.000000
   50       -2.215204   1.000000
   51       -2.031257   1.000000
   52       -1.986270   1.000000
   53       -1.973506   1.000000
   54       -1.877907   1.000000
   55       -1.837710   1.000000
   56       -1.786008   1.000000
   57       -1.744124   1.000000
   58       -1.695600   1.000000
   59       -1.655333   1.000000
   60       -1.637354   1.000000
   61       -1.537263   1.000000
   62       -1.420036   1.000000
   63       -1.240584   1.000000
   64       -1.232039   1.000000
   65       -1.172572   1.000000
   66       -1.152316   1.000000
   67       -1.089619   1.000000
   68       -1.038509   1.000000
   69       -0.835987   1.000000
   70       -0.782454   1.000000
   71       -0.772682   1.000000
   72       -0.687311   1.000000
   73       -0.627275   1.000000
   74       -0.592726   1.000000
   75       -0.569153   1.000000
   76       -0.373535   1.000000
   77       -0.094372   1.000000
   78       -0.084964   1.000000
   79       -0.082676   1.000000
   80       -0.001644   1.000000
   81        0.347339   1.000000
   82        0.489746   1.000000
   83        0.501358   1.000000
   84        0.591194   1.000000
   85        0.754198   1.000000
   86        1.030562   1.000000
   87        1.183414   1.000000
   88        1.228800   1.000000
   89        1.266281   1.000000
   90        1.284140   1.000000
   91        1.430458   1.000000
   92        1.439925   1.000000
   93        1.466527   1.000000
   94        1.547556   1.000000
   95        1.611054   1.000000
   96        1.617154   1.000000
   97        1.737717   1.000000
   98        1.981577   1.000003
   99        2.218717   1.002007
  100        2.671990   0.589416
  101        2.754790   0.252783
  102        2.771724   0.194607
  103        2.876711  -0.014277
  104        2.985392  -0.029363
  105        3.149092  -0.002932
  106        3.234747  -0.000436
  107        3.275307  -0.000153
  108        3.295730  -0.000087
  109        3.600600  -0.000000
  110        3.609093  -0.000000
  111        3.644117  -0.000000
  112        3.670205  -0.000000
  113        3.773519  -0.000000
  114        3.850055  -0.000000
  115        3.854850  -0.000000
  116        3.896310  -0.000000
  117        3.910867  -0.000000
  118        3.947052  -0.000000
  119        4.006265  -0.000000
  120        4.045708  -0.000000
  121        4.088803  -0.000000
  122        4.090532  -0.000000
  123        4.182296  -0.000000
  124        4.237240  -0.000000
  125        4.281701  -0.000000
  126        4.312337  -0.000000
  127        4.373315  -0.000000
  128        4.387990  -0.000000
  129        4.522612  -0.000000
  130        4.539325  -0.000000
  131        4.598112  -0.000000
  132        4.805234  -0.000000

  0.1111111E+00  0.3857958E-15  0.1262379E-14  0.2469136E-01
    1      -11.428229   1.000000
    2      -10.860232   1.000000
    3      -10.138537   1.000000
    4       -9.458215   1.000000
    5       -8.657285   1.000000
    6       -8.624702   1.000000
    7       -8.375050   1.000000
    8       -8.233022   1.000000
    9       -8.068253   1.000000
   10       -7.968833   1.000000
   11       -7.950630   1.000000
   12       -7.906679   1.000000
   13       -7.779402   1.000000
   14       -7.734250   1.000000
   15       -7.583364   1.000000
   16       -7.205444   1.000000
   17       -7.150089   1.000000
   18       -7.084946   1.000000
   19       -7.018734   1.000000
   20       -6.865866   1.000000
   21       -6.781334   1.000000
   22       -6.674515   1.000000
   23       -6.539725   1.000000
   24       -6.100757   1.000000
   25       -6.047301   1.000000
   26       -5.968119   1.000000
   27       -5.849761   1.000000
   28       -5.797516   1.000000
   29       -5.689078   1.000000
   30       -5.405977   1.000000
   31       -5.366739   1.000000
   32       -4.597550   1.000000
   33       -4.547282   1.000000
   34       -4.414651   1.000000
   35       -4.368636   1.000000
   36       -4.282998   1.000000
   37       -4.051213   1.000000
   38       -3.593426   1.000000
   39       -3.305385   1.000000
   40       -3.163958   1.000000
   41       -3.146199   1.000000
   42       -2.918267   1.000000
   43       -2.822132   1.000000
   44       -2.655464   1.000000
   45       -2.635664   1.000000
   46       -2.595520   1.000000
   47       -2.514117   1.000000
   48       -2.393847   1.000000
   49       -2.234417   1.000000
   50       -2.202177   1.000000
   51       -2.140861   1.000000
   52       -2.044636   1.000000
   53       -1.872810   1.000000
   54       -1.849988   1.000000
   55       -1.835304   1.000000
   56       -1.793967   1.000000
   57       -1.748480   1.000000
   58       -1.723497   1.000000
   59       -1.657146   1.000000
   60       -1.622809   1.000000
   61       -1.570373   1.000000
   62       -1.434154   1.000000
   63       -1.313688   1.000000
   64       -1.284808   1.000000
   65       -1.242898   1.000000
   66       -1.177349   1.000000
   67       -1.095038   1.000000
   68       -1.058075   1.000000
   69       -0.950511   1.000000
   70       -0.862889   1.000000
   71       -0.791463   1.000000
   72       -0.695638   1.000000
   73       -0.658135   1.000000
   74       -0.603361   1.000000
   75       -0.489344   1.000000
   76       -0.352806   1.000000
   77       -0.203657   1.000000
   78       -0.151338   1.000000
   79       -0.089390   1.000000
   80        0.028324   1.000000
   81        0.104025   1.000000
   82        0.250918   1.000000
   83        0.491742   1.000000
   84        0.600241   1.000000
   85        0.663376   1.000000
   86        0.917593   1.000000
   87        0.935822   1.000000
   88        1.130716   1.000000
   89        1.186173   1.000000
   90        1.248425   1.000000
   91        1.361797   1.000000
   92        1.438037   1.000000
   93        1.460078   1.000000
   94        1.502475   1.000000
   95        1.685928   1.000000
   96        1.763728   1.000000
   97        1.787442   1.000000
   98        2.119537   1.000191
   99        2.439125   1.035153
  100        2.625195   0.770331
  101        2.681710   0.548757
  102        2.792696   0.131439
  103        2.837293   0.033275
  104        2.899091  -0.027897
  105        3.018442  -0.021871
  106        3.304414  -0.000068
  107        3.364531  -0.000011
  108        3.476695  -0.000000
  109        3.576244  -0.000000
  110        3.606917  -0.000000
  111        3.653325  -0.000000
  112        3.663271  -0.000000
  113        3.750223  -0.000000
  114        3.813290  -0.000000
  115        3.816652  -0.000000
  116        3.885693  -0.000000
  117        3.907231  -0.000000
  118        3.912992  -0.000000
  119        3.985315  -0.000000
  120        4.014887  -0.000000
  121        4.047613  -0.000000
  122        4.096579  -0.000000
  123        4.172588  -0.000000
  124        4.182988  -0.000000
  125        4.204021  -0.000000
  126        4.248766  -0.000000
  127        4.340021  -0.000000
  128        4.373162  -0.000000
  129        4.484238  -0.000000
  130        4.565668  -0.000000
  131        4.702089  -0.000000
  132        4.728320  -0.000000

  0.2222222E+00  0.3935346E-15  0.1262379E-14  0.2469136E-01
    1      -11.258470   1.000000
    2      -10.703952   1.000000
    3      -10.009779   1.000000
    4       -9.354779   1.000000
    5       -8.949522   1.000000
    6       -8.737663   1.000000
    7       -8.667426   1.000000
    8       -8.548881   1.000000
    9       -8.223636   1.000000
   10       -8.165730   1.000000
   11       -8.131848   1.000000
   12       -8.001062   1.000000
   13       -7.978371   1.000000
   14       -7.944501   1.000000
   15       -7.867016   1.000000
   16       -7.295734   1.000000
   17       -7.069573   1.000000
   18       -7.050935   1.000000
   19       -6.758173   1.000000
   20       -6.735694   1.000000
   21       -6.463529   1.000000
   22       -6.423681   1.000000
   23       -6.026341   1.000000
   24       -5.982372   1.000000
   25       -5.869084   1.000000
   26       -5.764973   1.000000
   27       -5.694619   1.000000
   28       -5.622482   1.000000
   29       -5.230566   1.000000
   30       -5.160230   1.000000
   31       -5.113764   1.000000
   32       -4.420909   1.000000
   33       -4.397676   1.000000
   34       -4.301079   1.000000
   35       -4.153641   1.000000
   36       -3.912296   1.000000
   37       -3.651721   1.000000
   38       -3.525189   1.000000
   39       -3.352937   1.000000
   40       -3.259986   1.000000
   41       -3.194945   1.000000
   42       -3.147520   1.000000
   43       -3.086670   1.000000
   44       -3.025968   1.000000
   45       -2.855315   1.000000
   46       -2.601849   1.000000
   47       -2.504390   1.000000
   48       -2.459688   1.000000
   49       -2.237823   1.000000
   50       -2.195247   1.000000
   51       -2.126325   1.000000
   52       -2.107017   1.000000
   53       -2.062559   1.000000
   54       -1.940435   1.000000
   55       -1.903292   1.000000
   56       -1.848822   1.000000
   57       -1.786746   1.000000
   58       -1.737773   1.000000
   59       -1.717215   1.000000
   60       -1.655633   1.000000
   61       -1.571294   1.000000
   62       -1.492416   1.000000
   63       -1.435120   1.000000
   64       -1.391464   1.000000
   65       -1.331700   1.000000
   66       -1.296921   1.000000
   67       -1.225122   1.000000
   68       -1.162580   1.000000
   69       -1.079478   1.000000
   70       -0.939687   1.000000
   71       -0.909154   1.000000
   72       -0.871188   1.000000
   73       -0.700173   1.000000
   74       -0.683100   1.000000
   75       -0.498435   1.000000
   76       -0.439611   1.000000
   77       -0.293739   1.000000
   78       -0.236509   1.000000
   79       -0.176407   1.000000
   80       -0.121011   1.000000
   81       -0.038166   1.000000
   82        0.181208   1.000000
   83        0.321473   1.000000
   84        0.531461   1.000000
   85        0.554901   1.000000
   86        0.631032   1.000000
   87        0.807027   1.000000
   88        0.977563   1.000000
   89        1.025282   1.000000
   90        1.122467   1.000000
   91        1.228969   1.000000
   92        1.366501   1.000000
   93        1.399552   1.000000
   94        1.421414   1.000000
   95        1.694396   1.000000
   96        1.892735   1.000000
   97        1.920320   1.000000
   98        1.996685   1.000005
   99        2.349902   1.017823
  100        2.470083   1.033349
  101        2.689999   0.513773
  102        2.806605   0.095462
  103        3.019964  -0.021522
  104        3.075312  -0.010567
  105        3.184266  -0.001412
  106        3.332908  -0.000030
  107        3.344456  -0.000021
  108        3.401525  -0.000003
  109        3.427870  -0.000001
  110        3.477232  -0.000000
  111        3.511929  -0.000000
  112        3.607605  -0.000000
  113        3.665069  -0.000000
  114        3.745451  -0.000000
  115        3.767661  -0.000000
  116        3.802565  -0.000000
  117        3.849757  -0.000000
  118        3.869616  -0.000000
  119        3.924362  -0.000000
  120        3.965522  -0.000000
  121        4.042101  -0.000000
  122        4.072939  -0.000000
  123        4.104240  -0.000000
  124        4.206721  -0.000000
  125        4.259748  -0.000000
  126        4.293386  -0.000000
  127        4.339137  -0.000000
  128        4.385469  -0.000000
  129        4.418307  -0.000000
  130        4.570005  -0.000000
  131        4.614593  -0.000000
  132        4.835502  -0.000000

  0.3333333E+00  0.3939838E-15  0.1262379E-14  0.2469136E-01
    1      -10.983587   1.000000
    2      -10.451663   1.000000
    3       -9.805660   1.000000
    4       -9.550924   1.000000
    5       -9.210381   1.000000
    6       -9.172540   1.000000
    7       -8.921186   1.000000
    8       -8.379111   1.000000
    9       -8.336172   1.000000
   10       -8.299065   1.000000
   11       -8.294501   1.000000
   12       -8.263104   1.000000
   13       -8.116640   1.000000
   14       -8.048581   1.000000
   15       -7.958412   1.000000
   16       -7.412332   1.000000
   17       -7.363701   1.000000
   18       -7.141083   1.000000
   19       -6.578764   1.000000
   20       -6.522524   1.000000
   21       -6.051655   1.000000
   22       -6.001265   1.000000
   23       -5.884436   1.000000
   24       -5.813177   1.000000
   25       -5.796453   1.000000
   26       -5.576448   1.000000
   27       -5.100748   1.000000
   28       -4.961120   1.000000
   29       -4.843701   1.000000
   30       -4.770972   1.000000
   31       -4.613602   1.000000
   32       -4.201747   1.000000
   33       -4.187776   1.000000
   34       -4.120779   1.000000
   35       -3.952287   1.000000
   36       -3.744615   1.000000
   37       -3.646219   1.000000
   38       -3.610363   1.000000
   39       -3.584399   1.000000
   40       -3.526050   1.000000
   41       -3.463733   1.000000
   42       -3.331195   1.000000
   43       -3.154552   1.000000
   44       -3.043859   1.000000
   45       -2.780503   1.000000
   46       -2.726530   1.000000
   47       -2.561956   1.000000
   48       -2.514904   1.000000
   49       -2.416787   1.000000
   50       -2.343682   1.000000
   51       -2.215799   1.000000
   52       -2.178203   1.000000
   53       -2.132829   1.000000
   54       -2.073309   1.000000
   55       -2.025822   1.000000
   56       -1.964470   1.000000
   57       -1.900330   1.000000
   58       -1.836687   1.000000
   59       -1.807445   1.000000
   60       -1.775708   1.000000
   61       -1.699567   1.000000
   62       -1.615926   1.000000
   63       -1.531868   1.000000
   64       -1.478386   1.000000
   65       -1.416532   1.000000
   66       -1.397492   1.000000
   67       -1.333692   1.000000
   68       -1.225936   1.000000
   69       -1.175011   1.000000
   70       -1.107522   1.000000
   71       -1.013517   1.000000
   72       -0.928315   1.000000
   73       -0.744582   1.000000
   74       -0.728803   1.000000
   75       -0.566330   1.000000
   76       -0.534535   1.000000
   77       -0.478989   1.000000
   78       -0.349035   1.000000
   79       -0.288480   1.000000
   80       -0.106557   1.000000
   81       -0.035200   1.000000
   82        0.032033   1.000000
   83        0.224478   1.000000
   84        0.313317   1.000000
   85        0.544343   1.000000
   86        0.647515   1.000000
   87        0.777963   1.000000
   88        0.855288   1.000000
   89        0.964451   1.000000
   90        1.087441   1.000000
   91        1.134773   1.000000
   92        1.188289   1.000000
   93        1.326931   1.000000
   94        1.381255   1.000000
   95        1.556550   1.000000
   96        1.728242   1.000000
   97        1.876623   1.000000
   98        2.151709   1.000436
   99        2.210361   1.001682
  100        2.306389   1.009827
  101        2.641174   0.712302
  102        2.797017   0.119745
  103        2.837127   0.033548
  104        2.915440  -0.033139
  105        3.048458  -0.015370
  106        3.121921  -0.004897
  107        3.205862  -0.000870
  108        3.275024  -0.000154
  109        3.335347  -0.000027
  110        3.390692  -0.000005
  111        3.447632  -0.000001
  112        3.507286  -0.000000
  113        3.575698  -0.000000
  114        3.640507  -0.000000
  115        3.694403  -0.000000
  116        3.762336  -0.000000
  117        3.853114  -0.000000
  118        3.872781  -0.000000
  119        3.934038  -0.000000
  120        3.978661  -0.000000
  121        4.042107  -0.000000
  122        4.115837  -0.000000
  123        4.168219  -0.000000
  124        4.217613  -0.000000
  125        4.276048  -0.000000
  126        4.322852  -0.000000
  127        4.334471  -0.000000
  128        4.485507  -0.000000
  129        4.541273  -0.000000
  130        4.616801  -0.000000
  131        4.671400  -0.000000
  132        4.785582  -0.000000

  0.4444444E+00  0.3881204E-15  0.1262379E-14  0.2469136E-01
    1      -10.629640   1.000000
    2      -10.124248   1.000000
    3      -10.070268   1.000000
    4       -9.660439   1.000000
    5       -9.544514   1.000000
    6       -9.221532   1.000000
    7       -8.951181   1.000000
    8       -8.626270   1.000000
    9       -8.377803   1.000000
   10       -8.371789   1.000000
   11       -8.351476   1.000000
   12       -8.186069   1.000000
   13       -8.120747   1.000000
   14       -8.100639   1.000000
   15       -7.953606   1.000000
   16       -7.785615   1.000000
   17       -7.388117   1.000000
   18       -7.193734   1.000000
   19       -6.531633   1.000000
   20       -6.410565   1.000000
   21       -5.875790   1.000000
   22       -5.742582   1.000000
   23       -5.666229   1.000000
   24       -5.630484   1.000000
   25       -5.562192   1.000000
   26       -5.466889   1.000000
   27       -4.631829   1.000000
   28       -4.503805   1.000000
   29       -4.361713   1.000000
   30       -4.272462   1.000000
   31       -4.204182   1.000000
   32       -4.137986   1.000000
   33       -4.086576   1.000000
   34       -3.992353   1.000000
   35       -3.922875   1.000000
   36       -3.874468   1.000000
   37       -3.831433   1.000000
   38       -3.760430   1.000000
   39       -3.734263   1.000000
   40       -3.682868   1.000000
   41       -3.570819   1.000000
   42       -3.491165   1.000000
   43       -3.388693   1.000000
   44       -3.280145   1.000000
   45       -2.943073   1.000000
   46       -2.720153   1.000000
   47       -2.645708   1.000000
   48       -2.551191   1.000000
   49       -2.459528   1.000000
   50       -2.426279   1.000000
   51       -2.312526   1.000000
   52       -2.205706   1.000000
   53       -2.143388   1.000000
   54       -2.116302   1.000000
   55       -2.087317   1.000000
   56       -2.038121   1.000000
   57       -1.993861   1.000000
   58       -1.955033   1.000000
   59       -1.856393   1.000000
   60       -1.829573   1.000000
   61       -1.763904   1.000000
   62       -1.672114   1.000000
   63       -1.591102   1.000000
   64       -1.524499   1.000000
   65       -1.491278   1.000000
   66       -1.465262   1.000000
   67       -1.372676   1.000000
   68       -1.355007   1.000000
   69       -1.185100   1.000000
   70       -1.117840   1.000000
   71       -1.046480   1.000000
   72       -0.984551   1.000000
   73       -0.738358   1.000000
   74       -0.709094   1.000000
   75       -0.637854   1.000000
   76       -0.627949   1.000000
   77       -0.587509   1.000000
   78       -0.432255   1.000000
   79       -0.362931   1.000000
   80       -0.213055   1.000000
   81       -0.007464   1.000000
   82        0.010178   1.000000
   83        0.096845   1.000000
   84        0.311395   1.000000
   85        0.558686   1.000000
   86        0.593381   1.000000
   87        0.734212   1.000000
   88        0.823152   1.000000
   89        0.903354   1.000000
   90        1.062314   1.000000
   91        1.140810   1.000000
   92        1.190665   1.000000
   93        1.358600   1.000000
   94        1.417014   1.000000
   95        1.465958   1.000000
   96        1.699847   1.000000
   97        1.789636   1.000000
   98        2.176953   1.000798
   99        2.266666   1.005083
  100        2.302943   1.009320
  101        2.346381   1.017076
  102        2.514654   1.010166
  103        2.624321   0.773362
  104        2.761117   0.230354
  105        2.869047  -0.007583
  106        3.000787  -0.025945
  107        3.047155  -0.015631
  108        3.194149  -0.001135
  109        3.257046  -0.000248
  110        3.296372  -0.000086
  111        3.344470  -0.000021
  112        3.396349  -0.000004
  113        3.504414  -0.000000
  114        3.579872  -0.000000
  115        3.608908  -0.000000
  116        3.711706  -0.000000
  117        3.815099  -0.000000
  118        3.845308  -0.000000
  119        3.867864  -0.000000
  120        3.972194  -0.000000
  121        4.075563  -0.000000
  122        4.114574  -0.000000
  123        4.252380  -0.000000
  124        4.315980  -0.000000
  125        4.348622  -0.000000
  126        4.392899  -0.000000
  127        4.490252  -0.000000
  128        4.586434  -0.000000
  129        4.615552  -0.000000
  130        4.752899  -0.000000
  131        4.790913  -0.000000
  132        4.938261  -0.000000

  0.3742002E-15  0.1111111E+00  0.1262379E-14  0.2469136E-01
    1      -11.428228   1.000000
    2      -10.860232   1.000000
    3      -10.138542   1.000000
    4       -9.458232   1.000000
    5       -8.657279   1.000000
    6       -8.624719   1.000000
    7       -8.375083   1.000000
    8       -8.233240   1.000000
    9       -8.068015   1.000000
   10       -7.968988   1.000000
   11       -7.950603   1.000000
   12       -7.906588   1.000000
   13       -7.779656   1.000000
   14       -7.733661   1.000000
   15       -7.583301   1.000000
   16       -7.205142   1.000000
   17       -7.150016   1.000000
   18       -7.085031   1.000000
   19       -7.019328   1.000000
   20       -6.865946   1.000000
   21       -6.781260   1.000000
   22       -6.674789   1.000000
   23       -6.539568   1.000000
   24       -6.100872   1.000000
   25       -6.047054   1.000000
   26       -5.967945   1.000000
   27       -5.850136   1.000000
   28       -5.797557   1.000000
   29       -5.688906   1.000000
   30       -5.405958   1.000000
   31       -5.366780   1.000000
   32       -4.597522   1.000000
   33       -4.547289   1.000000
   34       -4.415815   1.000000
   35       -4.368410   1.000000
   36       -4.281693   1.000000
   37       -4.051530   1.000000
   38       -3.593387   1.000000
   39       -3.305421   1.000000
   40       -3.163950   1.000000
   41       -3.146209   1.000000
   42       -2.918286   1.000000
   43       -2.822086   1.000000
   44       -2.655598   1.000000
   45       -2.635434   1.000000
   46       -2.595679   1.000000
   47       -2.514199   1.000000
   48       -2.393823   1.000000
   49       -2.234420   1.000000
   50       -2.201955   1.000000
   51       -2.141006   1.000000
   52       -2.044717   1.000000
   53       -1.872770   1.000000
   54       -1.849941   1.000000
   55       -1.835334   1.000000
   56       -1.794016   1.000000
   57       -1.748410   1.000000
   58       -1.723536   1.000000
   59       -1.656980   1.000000
   60       -1.622660   1.000000
   61       -1.570648   1.000000
   62       -1.433990   1.000000
   63       -1.313979   1.000000
   64       -1.284579   1.000000
   65       -1.243526   1.000000
   66       -1.176974   1.000000
   67       -1.095061   1.000000
   68       -1.057913   1.000000
   69       -0.950148   1.000000
   70       -0.862959   1.000000
   71       -0.791660   1.000000
   72       -0.695635   1.000000
   73       -0.658200   1.000000
   74       -0.603396   1.000000
   75       -0.489320   1.000000
   76       -0.352834   1.000000
   77       -0.203762   1.000000
   78       -0.151312   1.000000
   79       -0.089607   1.000000
   80        0.028563   1.000000
   81        0.104476   1.000000
   82        0.250804   1.000000
   83        0.491780   1.000000
   84        0.600060   1.000000
   85        0.663175   1.000000
   86        0.917585   1.000000
   87        0.935869   1.000000
   88        1.130439   1.000000
   89        1.186369   1.000000
   90        1.248666   1.000000
   91        1.361619   1.000000
   92        1.437959   1.000000
   93        1.460169   1.000000
   94        1.502473   1.000000
   95        1.685974   1.000000
   96        1.763752   1.000000
   97        1.787459   1.000000
   98        2.119592   1.000191
   99        2.439121   1.035153
  100        2.625236   0.770186
  101        2.681603   0.549208
  102        2.792734   0.131335
  103        2.837043   0.033687
  104        2.899271  -0.027974
  105        3.018589  -0.021837
  106        3.304540  -0.000068
  107        3.364326  -0.000011
  108        3.477061  -0.000000
  109        3.576105  -0.000000
  110        3.606617  -0.000000
  111        3.652984  -0.000000
  112        3.663557  -0.000000
  113        3.750308  -0.000000
  114        3.813261  -0.000000
  115        3.816620  -0.000000
  116        3.885813  -0.000000
  117        3.907259  -0.000000
  118        3.913071  -0.000000
  119        3.985191  -0.000000
  120        4.015064  -0.000000
  121        4.047652  -0.000000
  122        4.096469  -0.000000
  123        4.172421  -0.000000
  124        4.182860  -0.000000
  125        4.204180  -0.000000
  126        4.248910  -0.000000
  127        4.340043  -0.000000
  128        4.372982  -0.000000
  129        4.484457  -0.000000
  130        4.565842  -0.000000
  131        4.701868  -0.000000
  132        4.728379  -0.000000

  0.1111111E+00  0.1111111E+00  0.1262379E-14  0.2469136E-01
    1      -11.313996   1.000000
    2      -10.755022   1.000000
    3      -10.051285   1.000000
    4       -9.390072   1.000000
    5       -8.694694   1.000000
    6       -8.662890   1.000000
    7       -8.585015   1.000000
    8       -8.493257   1.000000
    9       -8.443928   1.000000
   10       -8.249747   1.000000
   11       -8.194089   1.000000
   12       -7.958927   1.000000
   13       -7.823461   1.000000
   14       -7.757955   1.000000
   15       -7.428622   1.000000
   16       -7.355348   1.000000
   17       -7.313925   1.000000
   18       -6.970486   1.000000
   19       -6.901668   1.000000
   20       -6.785120   1.000000
   21       -6.625282   1.000000
   22       -6.286189   1.000000
   23       -6.138008   1.000000
   24       -5.989118   1.000000
   25       -5.961948   1.000000
   26       -5.817790   1.000000
   27       -5.807705   1.000000
   28       -5.602517   1.000000
   29       -5.404328   1.000000
   30       -5.400047   1.000000
   31       -5.218693   1.000000
   32       -4.686438   1.000000
   33       -4.290664   1.000000
   34       -4.165693   1.000000
   35       -4.144252   1.000000
   36       -4.042774   1.000000
   37       -3.873467   1.000000
   38       -3.551495   1.000000
   39       -3.335742   1.000000
   40       -3.271967   1.000000
   41       -3.214186   1.000000
   42       -3.119958   1.000000
   43       -3.032325   1.000000
   44       -2.835367   1.000000
   45       -2.649569   1.000000
   46       -2.574324   1.000000
   47       -2.458066   1.000000
   48       -2.432991   1.000000
   49       -2.311736   1.000000
   50       -2.238783   1.000000
   51       -2.100788   1.000000
   52       -2.061246   1.000000
   53       -2.031493   1.000000
   54       -1.847430   1.000000
   55       -1.818582   1.000000
   56       -1.801422   1.000000
   57       -1.763475   1.000000
   58       -1.752972   1.000000
   59       -1.741734   1.000000
   60       -1.669851   1.000000
   61       -1.548286   1.000000
   62       -1.546746   1.000000
   63       -1.369519   1.000000
   64       -1.345076   1.000000
   65       -1.328676   1.000000
   66       -1.243210   1.000000
   67       -1.189577   1.000000
   68       -1.055553   1.000000
   69       -1.043521   1.000000
   70       -0.957595   1.000000
   71       -0.888785   1.000000
   72       -0.759660   1.000000
   73       -0.684116   1.000000
   74       -0.634006   1.000000
   75       -0.619492   1.000000
   76       -0.456316   1.000000
   77       -0.287671   1.000000
   78       -0.175431   1.000000
   79       -0.163569   1.000000
   80        0.031630   1.000000
   81        0.059709   1.000000
   82        0.079241   1.000000
   83        0.375629   1.000000
   84        0.519923   1.000000
   85        0.529566   1.000000
   86        0.572242   1.000000
   87        0.879828   1.000000
   88        1.050659   1.000000
   89        1.242250   1.000000
   90        1.279464   1.000000
   91        1.319934   1.000000
   92        1.324445   1.000000
   93        1.360911   1.000000
   94        1.434645   1.000000
   95        1.560657   1.000000
   96        1.676354   1.000000
   97        1.933308   1.000001
   98        2.122896   1.000209