   53   53   85    1
  0.1558232E+02  0.6071501E-09  0.6071501E-09  0.2586333E-08  0.5000000E-15
   1.0000000000000000E-004
  CAR 
 Name                                    
    197     41    126

  0.3742002E-15  0.3742002E-15  0.1262379E-14  0.1234568E-01
    1      -12.383072   1.000000
    2      -11.712617   1.000000
    3      -11.011172   1.000000
    4      -10.392738   1.000000
    5       -9.285113   1.000000
    6       -9.188975   1.000000
    7       -9.086591   1.000000
    8       -8.804694   1.000000
    9       -8.678476   1.000000
   10       -8.629120   1.000000
   11       -8.505030   1.000000
   12       -8.488609   1.000000
   13       -8.457810   1.000000
   14       -8.435442   1.000000
   15       -8.377014   1.000000
   16       -8.354500   1.000000
   17       -8.147858   1.000000
   18       -8.123705   1.000000
   19       -7.784702   1.000000
   20       -7.714920   1.000000
   21       -7.599144   1.000000
   22       -7.118163   1.000000
   23       -7.025196   1.000000
   24       -6.921658   1.000000
   25       -6.711205   1.000000
   26       -6.666347   1.000000
   27       -6.371001   1.000000
   28       -5.576865   1.000000
   29       -5.494069   1.000000
   30       -5.474010   1.000000
   31       -4.643626   1.000000
   32       -4.275676   1.000000
   33       -4.224612   1.000000
   34       -4.107590   1.000000
   35       -3.760044   1.000000
   36       -3.596705   1.000000
   37       -3.585393   1.000000
   38       -3.524409   1.000000
   39       -3.513335   1.000000
   40       -3.485293   1.000000
   41       -3.466827   1.000000
   42       -3.369883   1.000000
   43       -3.300667   1.000000
   44       -3.039552   1.000000
   45       -2.976859   1.000000
   46       -2.859743   1.000000
   47       -2.839851   1.000000
   48       -2.836260   1.000000
   49       -2.799198   1.000000
   50       -2.729067   1.000000
   51       -2.713730   1.000000
   52       -2.676282   1.000000
   53       -2.666518   1.000000
   54       -2.432336   1.000000
   55       -2.409005   1.000000
   56       -2.309766   1.000000
   57       -2.270490   1.000000
   58       -2.259912   1.000000
   59       -2.206295   1.000000
   60       -2.165864   1.000000
   61       -2.128206   1.000000
   62       -1.990268   1.000000
   63       -1.963637   1.000000
   64       -1.937278   1.000000
   65       -1.883418   1.000000
   66       -1.848508   1.000000
   67       -1.815643   1.000000
   68       -1.533260   1.000000
   69       -1.520094   1.000000
   70       -1.355218   1.000000
   71       -1.305665   1.000000
   72       -1.085477   1.000000
   73       -0.947745   1.000000
   74       -0.934723   1.000000
   75       -0.729805   1.000000
   76       -0.643088   1.000000
   77        0.029553   1.000000
   78        0.070389   1.000000
   79        0.130625   1.000000
   80        0.278505   1.000000
   81        0.294994   1.000000
   82        0.328899   1.000000
   83        0.461695   1.000000
   84        0.718017   1.000000
   85        0.919295   1.000000
   86        0.929404   1.000000
   87        1.134676   1.000000
   88        1.238286   1.000000
   89        1.356688   1.000000
   90        1.650000   1.000255
   91        1.687059   1.000640
   92        1.721962   1.001419
   93        1.819041   1.008839
   94        1.848896   1.013702
   95        2.031027   1.012858
   96        2.087466   0.931512
   97        2.139276   0.788848
   98        2.246743   0.358431
   99        2.513967  -0.027379
  100        2.576264  -0.013765
  101        2.642520  -0.004800
  102        2.726150  -0.000854
  103        2.753314  -0.000446
  104        2.832451  -0.000053
  105        2.941283  -0.000002
  106        2.964524  -0.000001
  107        3.073112  -0.000000
  108        3.107425  -0.000000
  109        3.125030  -0.000000
  110        3.180312  -0.000000
  111        3.247540  -0.000000
  112        3.302558  -0.000000
  113        3.325073  -0.000000
  114        3.364636  -0.000000
  115        3.385530  -0.000000
  116        3.419416  -0.000000
  117        3.434844  -0.000000
  118        3.443341  -0.000000
  119        3.502250  -0.000000
  120        3.583882  -0.000000
  121        3.590502  -0.000000
  122        3.632908  -0.000000
  123        3.653687  -0.000000
  124        3.747571  -0.000000
  125        3.791528  -0.000000
  126        3.939781  -0.000000

  0.1111111E+00  0.3762813E-15  0.1262379E-14  0.2469136E-01
    1      -12.325127   1.000000
    2      -11.660771   1.000000
    3      -10.971866   1.000000
    4      -10.360988   1.000000
    5       -9.369043   1.000000
    6       -9.201287   1.000000
    7       -9.185879   1.000000
    8       -9.077804   1.000000
    9       -8.983900   1.000000
   10       -8.815295   1.000000
   11       -8.743733   1.000000
   12       -8.725335   1.000000
   13       -8.691161   1.000000
   14       -8.489393   1.000000
   15       -8.267952   1.000000
   16       -8.009707   1.000000
   17       -7.954276   1.000000
   18       -7.651790   1.000000
   19       -7.612345   1.000000
   20       -7.507426   1.000000
   21       -7.328353   1.000000
   22       -7.092531   1.000000
   23       -6.962291   1.000000
   24       -6.783987   1.000000
   25       -6.724975   1.000000
   26       -6.535434   1.000000
   27       -6.289547   1.000000
   28       -5.560270   1.000000
   29       -5.435733   1.000000
   30       -5.264420   1.000000
   31       -4.608102   1.000000
   32       -4.279259   1.000000
   33       -4.264973   1.000000
   34       -4.084559   1.000000
   35       -3.765320   1.000000
   36       -3.659209   1.000000
   37       -3.634545   1.000000
   38       -3.592669   1.000000
   39       -3.532576   1.000000
   40       -3.480148   1.000000
   41       -3.464245   1.000000
   42       -3.385011   1.000000
   43       -3.346067   1.000000
   44       -3.269194   1.000000
   45       -3.255838   1.000000
   46       -3.014575   1.000000
   47       -2.938913   1.000000
   48       -2.860697   1.000000
   49       -2.814874   1.000000
   50       -2.757497   1.000000
   51       -2.691514   1.000000
   52       -2.615050   1.000000
   53       -2.543303   1.000000
   54       -2.426314   1.000000
   55       -2.376758   1.000000
   56       -2.349549   1.000000
   57       -2.311276   1.000000
   58       -2.245099   1.000000
   59       -2.183870   1.000000
   60       -2.139109   1.000000
   61       -2.095141   1.000000
   62       -1.996995   1.000000
   63       -1.987636   1.000000
   64       -1.939158   1.000000
   65       -1.869241   1.000000
   66       -1.772746   1.000000
   67       -1.694791   1.000000
   68       -1.596574   1.000000
   69       -1.545345   1.000000
   70       -1.328176   1.000000
   71       -1.309780   1.000000
   72       -1.235552   1.000000
   73       -1.152369   1.000000
   74       -1.088831   1.000000
   75       -0.736541   1.000000
   76       -0.674557   1.000000
   77       -0.192452   1.000000
   78       -0.090238   1.000000
   79        0.122137   1.000000
   80        0.247433   1.000000
   81        0.260626   1.000000
   82        0.380338   1.000000
   83        0.445408   1.000000
   84        0.624092   1.000000
   85        0.688242   1.000000
   86        0.819894   1.000000
   87        1.277506   1.000000
   88        1.326411   1.000000
   89        1.452735   1.000001
   90        1.658190   1.000314
   91        1.707820   1.001037
   92        1.760513   1.003147
   93        1.841272   1.012325
   94        1.874875   1.019013
   95        1.894741   1.023527
   96        2.046739   0.997339
   97        2.153609   0.738517
   98        2.263883   0.291269
   99        2.499929  -0.030389
  100        2.583895  -0.012383
  101        2.667324  -0.003006
  102        2.718989  -0.001006
  103        2.789870  -0.000175
  104        2.820327  -0.000075
  105        2.860997  -0.000023
  106        2.897342  -0.000007
  107        2.966880  -0.000001
  108        3.016772  -0.000000
  109        3.105114  -0.000000
  110        3.138901  -0.000000
  111        3.159327  -0.000000
  112        3.247904  -0.000000
  113        3.298952  -0.000000
  114        3.331250  -0.000000
  115        3.372243  -0.000000
  116        3.391333  -0.000000
  117        3.442010  -0.000000
  118        3.498474  -0.000000
  119        3.532624  -0.000000
  120        3.556570  -0.000000
  121        3.588545  -0.000000
  122        3.616823  -0.000000
  123        3.694557  -0.000000
  124        3.775754  -0.000000
  125        3.825001  -0.000000
  126        3.933429  -0.000000

  0.2222222E+00  0.3499357E-15  0.1262379E-14  0.2469136E-01
    1      -12.153155   1.000000
    2      -11.507414   1.000000
    3      -10.856765   1.000000
    4      -10.266964   1.000000
    5       -9.865646   1.000000
    6       -9.538390   1.000000
    7       -9.475426   1.000000
    8       -9.232367   1.000000
    9       -9.216844   1.000000
   10       -8.982109   1.000000
   11       -8.945294   1.000000
   12       -8.866465   1.000000
   13       -8.847720   1.000000
   14       -8.790346   1.000000
   15       -8.323796   1.000000
   16       -7.613806   1.000000
   17       -7.521141   1.000000
   18       -7.424473   1.000000
   19       -7.191614   1.000000
   20       -7.063557   1.000000
   21       -6.862122   1.000000
   22       -6.831250   1.000000
   23       -6.710585   1.000000
   24       -6.605285   1.000000
   25       -6.348458   1.000000
   26       -6.247908   1.000000
   27       -6.030774   1.000000
   28       -5.463479   1.000000
   29       -5.295144   1.000000
   30       -4.846913   1.000000
   31       -4.507725   1.000000
   32       -4.389790   1.000000
   33       -4.325978   1.000000
   34       -4.052035   1.000000
   35       -4.015859   1.000000
   36       -3.960809   1.000000
   37       -3.916306   1.000000
   38       -3.872083   1.000000
   39       -3.689889   1.000000
   40       -3.630655   1.000000
   41       -3.534458   1.000000
   42       -3.497446   1.000000
   43       -3.398493   1.000000
   44       -3.342886   1.000000
   45       -3.242923   1.000000
   46       -3.019123   1.000000
   47       -2.975045   1.000000
   48       -2.952540   1.000000
   49       -2.875295   1.000000
   50       -2.860868   1.000000
   51       -2.734728   1.000000
   52       -2.669914   1.000000
   53       -2.621687   1.000000
   54       -2.493877   1.000000
   55       -2.414608   1.000000
   56       -2.380184   1.000000
   57       -2.349488   1.000000
   58       -2.222136   1.000000
   59       -2.184505   1.000000
   60       -2.148254   1.000000
   61       -2.135779   1.000000
   62       -2.086699   1.000000
   63       -2.027419   1.000000
   64       -2.000731   1.000000
   65       -1.891222   1.000000
   66       -1.841243   1.000000
   67       -1.740641   1.000000
   68       -1.666535   1.000000
   69       -1.578021   1.000000
   70       -1.500157   1.000000
   71       -1.377599   1.000000
   72       -1.273366   1.000000
   73       -1.085562   1.000000
   74       -0.966793   1.000000
   75       -0.781752   1.000000
   76       -0.698965   1.000000
   77       -0.585157   1.000000
   78       -0.331070   1.000000
   79       -0.134067   1.000000
   80        0.067942   1.000000
   81        0.193603   1.000000
   82        0.318891   1.000000
   83        0.438402   1.000000
   84        0.579048   1.000000
   85        0.588716   1.000000
   86        0.769903   1.000000
   87        1.013191   1.000000
   88        1.221859   1.000000
   89        1.316432   1.000000
   90        1.417867   1.000000
   91        1.598950   1.000063
   92        1.741622   1.002154
   93        1.850627   1.014027
   94        1.886829   1.021703
   95        1.986983   1.033848
   96        2.144953   0.769407
   97        2.277777   0.240298
   98        2.386303  -0.005414
   99        2.428097  -0.031368
  100        2.472458  -0.034700
  101        2.555824  -0.017882
  102        2.596832  -0.010250
  103        2.648110  -0.004334
  104        2.685789  -0.002070
  105        2.838741  -0.000044
  106        2.852779  -0.000029
  107        2.924151  -0.000003
  108        2.957154  -0.000001
  109        3.063595  -0.000000
  110        3.078649  -0.000000
  111        3.108737  -0.000000
  112        3.149217  -0.000000
  113        3.174449  -0.000000
  114        3.218574  -0.000000
  115        3.312227  -0.000000
  116        3.348236  -0.000000
  117        3.398200  -0.000000
  118        3.452732  -0.000000
  119        3.481748  -0.000000
  120        3.543286  -0.000000
  121        3.635819  -0.000000
  122        3.689113  -0.000000
  123        3.739632  -0.000000
  124        3.780422  -0.000000
  125        3.858086  -0.000000
  126        3.914736  -0.000000

  0.3333333E+00  0.3916643E-15  0.1262379E-14  0.2469136E-01
    1      -11.872585   1.000000
    2      -11.259300   1.000000
    3      -10.675574   1.000000
    4      -10.467099   1.000000
    5      -10.116633   1.000000
    6      -10.025124   1.000000
    7       -9.822739   1.000000
    8       -9.306448   1.000000
    9       -9.289069   1.000000
   10       -9.173201   1.000000
   11       -9.060504   1.000000
   12       -9.041690   1.000000
   13       -8.950417   1.000000
   14       -8.942390   1.000000
   15       -8.379716   1.000000
   16       -7.541461   1.000000
   17       -7.064182   1.000000
   18       -7.040692   1.000000
   19       -6.787915   1.000000
   20       -6.757377   1.000000
   21       -6.678096   1.000000
   22       -6.580159   1.000000
   23       -6.068888   1.000000
   24       -5.953365   1.000000
   25       -5.899159   1.000000
   26       -5.771734   1.000000
   27       -5.594437   1.000000
   28       -5.344417   1.000000
   29       -5.089646   1.000000
   30       -4.713070   1.000000
   31       -4.690412   1.000000
   32       -4.584140   1.000000
   33       -4.504071   1.000000
   34       -4.457076   1.000000
   35       -4.414944   1.000000
   36       -4.310761   1.000000
   37       -4.190549   1.000000
   38       -3.882295   1.000000
   39       -3.739296   1.000000
   40       -3.706578   1.000000
   41       -3.651254   1.000000
   42       -3.555605   1.000000
   43       -3.426381   1.000000
   44       -3.275369   1.000000
   45       -3.206525   1.000000
   46       -3.144174   1.000000
   47       -3.096399   1.000000
   48       -3.077147   1.000000
   49       -3.020135   1.000000
   50       -2.947327   1.000000
   51       -2.847209   1.000000
   52       -2.793729   1.000000
   53       -2.745302   1.000000
   54       -2.636057   1.000000
   55       -2.572511   1.000000
   56       -2.476517   1.000000
   57       -2.432760   1.000000
   58       -2.385180   1.000000
   59       -2.311171   1.000000
   60       -2.220031   1.000000
   61       -2.168401   1.000000
   62       -2.152275   1.000000
   63       -2.075447   1.000000
   64       -2.019392   1.000000
   65       -1.908176   1.000000
   66       -1.830310   1.000000
   67       -1.774800   1.000000
   68       -1.736198   1.000000
   69       -1.600156   1.000000
   70       -1.457003   1.000000
   71       -1.316081   1.000000
   72       -1.213308   1.000000
   73       -1.118993   1.000000
   74       -0.890674   1.000000
   75       -0.764830   1.000000
   76       -0.636337   1.000000
   77       -0.510007   1.000000
   78       -0.423019   1.000000
   79       -0.353706   1.000000
   80       -0.215683   1.000000
   81        0.047318   1.000000
   82        0.179673   1.000000
   83        0.367472   1.000000
   84        0.390353   1.000000
   85        0.688580   1.000000
   86        0.757539   1.000000
   87        0.926107   1.000000
   88        1.016580   1.000000
   89        1.180536   1.000000
   90        1.241678   1.000000
   91        1.415935   1.000000
   92        1.520956   1.000006
   93        1.682345   1.000572
   94        1.797548   1.006206
   95        1.895991   1.023816
   96        1.972521   1.035369
   97        2.063405   0.975131
   98        2.148608   0.756544
   99        2.269837   0.268998
  100        2.334783   0.075471
  101        2.410506  -0.023925
  102        2.516687  -0.026765
  103        2.535225  -0.022494
  104        2.617827  -0.007358
  105        2.728627  -0.000806
  106        2.767722  -0.000311
  107        2.828490  -0.000060
  108        2.883756  -0.000011
  109        2.980129  -0.000000
  110        3.006662  -0.000000
  111        3.037035  -0.000000
  112        3.050090  -0.000000
  113        3.134511  -0.000000
  114        3.187625  -0.000000
  115        3.260508  -0.000000
  116        3.392010  -0.000000
  117        3.503560  -0.000000
  118        3.544909  -0.000000
  119        3.599591  -0.000000
  120        3.680236  -0.000000
  121        3.728767  -0.000000
  122        3.772612  -0.000000
  123        3.797860  -0.000000
  124        3.849850  -0.000000
  125        3.953165  -0.000000
  126        3.997884  -0.000000

  0.4444444E+00  0.3830161E-15  0.1262379E-14  0.2469136E-01
    1      -11.492246   1.000000
    2      -11.033596   1.000000
    3      -10.909911   1.000000
    4      -10.512551   1.000000
    5      -10.418568   1.000000
    6      -10.142545   1.000000
    7       -9.925564   1.000000
    8       -9.461260   1.000000
    9       -9.360206   1.000000
   10       -9.343219   1.000000
   11       -9.096893   1.000000
   12       -9.076581   1.000000
   13       -9.006671   1.000000
   14       -8.985116   1.000000
   15       -8.409237   1.000000
   16       -7.571255   1.000000
   17       -6.785117   1.000000
   18       -6.764380   1.000000
   19       -6.501710   1.000000
   20       -6.436932   1.000000
   21       -6.389595   1.000000
   22       -6.370172   1.000000
   23       -5.564212   1.000000
   24       -5.469816   1.000000
   25       -5.353482   1.000000
   26       -5.264254   1.000000
   27       -5.195729   1.000000
   28       -5.177803   1.000000
   29       -5.130281   1.000000
   30       -5.108684   1.000000
   31       -4.931916   1.000000
   32       -4.846349   1.000000
   33       -4.791673   1.000000
   34       -4.596511   1.000000
   35       -4.568949   1.000000
   36       -4.527002   1.000000
   37       -4.398368   1.000000
   38       -4.291199   1.000000
   39       -3.956392   1.000000
   40       -3.800839   1.000000
   41       -3.650715   1.000000
   42       -3.570134   1.000000
   43       -3.458350   1.000000
   44       -3.388664   1.000000
   45       -3.349755   1.000000
   46       -3.238880   1.000000
   47       -3.117398   1.000000
   48       -3.080120   1.000000
   49       -3.000317   1.000000
   50       -2.959196   1.000000
   51       -2.870612   1.000000
   52       -2.845389   1.000000
   53       -2.753200   1.000000
   54       -2.684968   1.000000
   55       -2.579129   1.000000
   56       -2.546129   1.000000
   57       -2.512479   1.000000
   58       -2.459858   1.000000
   59       -2.441326   1.000000
   60       -2.276576   1.000000
   61       -2.233863   1.000000
   62       -2.224360   1.000000
   63       -2.202508   1.000000
   64       -2.135600   1.000000
   65       -1.900981   1.000000
   66       -1.828025   1.000000
   67       -1.752697   1.000000
   68       -1.691906   1.000000
   69       -1.518723   1.000000
   70       -1.453615   1.000000
   71       -1.285403   1.000000
   72       -1.057271   1.000000
   73       -0.983333   1.000000
   74       -0.888962   1.000000
   75       -0.850210   1.000000
   76       -0.764932   1.000000
   77       -0.614953   1.000000
   78       -0.496405   1.000000
   79       -0.274765   1.000000
   80       -0.076506   1.000000
   81        0.014385   1.000000
   82        0.107547   1.000000
   83        0.242091   1.000000
   84        0.295859   1.000000
   85        0.576360   1.000000
   86        0.778237   1.000000
   87        0.867534   1.000000
   88        1.014371   1.000000
   89        1.121954   1.000000
   90        1.302261   1.000000
   91        1.335919   1.000000
   92        1.371261   1.000000
   93        1.515497   1.000005
   94        1.652370   1.000271
   95        1.721211   1.001396
   96        1.796523   1.006098
   97        1.931445   1.031532
   98        1.987118   1.033824
   99        2.080318   0.945957
  100        2.094809   0.915336
  101        2.163430   0.701808
  102        2.318603   0.114247
  103        2.438354  -0.033820
  104        2.503790  -0.029594
  105        2.555789  -0.017889
  106        2.676788  -0.002489
  107        2.689518  -0.001915
  108        2.776633  -0.000247
  109        2.887832  -0.000010
  110        2.934220  -0.000002
  111        2.964237  -0.000001
  112        3.034407  -0.000000
  113        3.094981  -0.000000
  114        3.308440  -0.000000
  115        3.413870  -0.000000
  116        3.534458  -0.000000
  117        3.603971  -0.000000
  118        3.618227  -0.000000
  119        3.741616  -0.000000
  120        3.803792  -0.000000
  121        3.826007  -0.000000
  122        3.903723  -0.000000
  123        3.945564  -0.000000
  124        3.994459  -0.000000
  125        4.017686  -0.000000
  126        4.059410  -0.000000

  0.3742002E-15  0.1111111E+00  0.1262379E-14  0.2469136E-01
    1      -12.325129   1.000000
    2      -11.660757   1.000000
    3      -10.971855   1.000000
    4      -10.360990   1.000000
    5       -9.368173   1.000000
    6       -9.201345   1.000000
    7       -9.187539   1.000000
    8       -9.079526   1.000000
    9       -8.984465   1.000000
   10       -8.810025   1.000000
   11       -8.741171   1.000000
   12       -8.727579   1.000000
   13       -8.693016   1.000000
   14       -8.489135   1.000000
   15       -8.264126   1.000000
   16       -8.010230   1.000000
   17       -7.956615   1.000000
   18       -7.659019   1.000000
   19       -7.613395   1.000000
   20       -7.509800   1.000000
   21       -7.322124   1.000000
   22       -7.093527   1.000000
   23       -6.956616   1.000000
   24       -6.787175   1.000000
   25       -6.716719   1.000000
   26       -6.536845   1.000000
   27       -6.296812   1.000000
   28       -5.562026   1.000000
   29       -5.431662   1.000000
   30       -5.264424   1.000000
   31       -4.608163   1.000000
   32       -4.278856   1.000000
   33       -4.264086   1.000000
   34       -4.085133   1.000000
   35       -3.767829   1.000000
   36       -3.661616   1.000000
   37       -3.632508   1.000000
   38       -3.586096   1.000000
   39       -3.530879   1.000000
   40       -3.486694   1.000000
   41       -3.467447   1.000000
   42       -3.380111   1.000000
   43       -3.344911   1.000000
   44       -3.272287   1.000000
   45       -3.258305   1.000000
   46       -2.991598   1.000000
   47       -2.961363   1.000000
   48       -2.854785   1.000000
   49       -2.812686   1.000000
   50       -2.747879   1.000000
   51       -2.693100   1.000000
   52       -2.615137   1.000000
   53       -2.551141   1.000000
   54       -2.414609   1.000000
   55       -2.370933   1.000000
   56       -2.345838   1.000000
   57       -2.313405   1.000000
   58       -2.249874   1.000000
   59       -2.194262   1.000000
   60       -2.148626   1.000000
   61       -2.085283   1.000000
   62       -1.998261   1.000000
   63       -1.973613   1.000000
   64       -1.951681   1.000000
   65       -1.868184   1.000000
   66       -1.772969   1.000000
   67       -1.704458   1.000000
   68       -1.611058   1.000000
   69       -1.538774   1.000000
   70       -1.343558   1.000000
   71       -1.304488   1.000000
   72       -1.231402   1.000000
   73       -1.151022   1.000000
   74       -1.079686   1.000000
   75       -0.726261   1.000000
   76       -0.678197   1.000000
   77       -0.188290   1.000000
   78       -0.102116   1.000000
   79        0.122156   1.000000
   80        0.250379   1.000000
   81        0.262953   1.000000
   82        0.377061   1.000000
   83        0.445975   1.000000
   84        0.622319   1.000000
   85        0.688452   1.000000
   86        0.818742   1.000000
   87        1.275061   1.000000
   88        1.328117   1.000000
   89        1.462739   1.000001
   90        1.646234   1.000231
   91        1.707085   1.001019
   92        1.757528   1.002968
   93        1.829896   1.010442
   94        1.880214   1.020201
   95        1.925953   1.030467
   96        2.052220   0.990719
   97        2.126047   0.831420
   98        2.265231   0.286176
   99        2.511546  -0.027919
  100        2.579722  -0.013127
  101        2.662993  -0.003271
  102        2.725981  -0.000857
  103        2.783756  -0.000205
  104        2.820525  -0.000075
  105        2.868251  -0.000018
  106        2.907834  -0.000005
  107        2.956089  -0.000001
  108        3.011524  -0.000000
  109        3.115004  -0.000000
  110        3.140126  -0.000000
  111        3.150782  -0.000000
  112        3.257794  -0.000000
  113        3.284925  -0.000000
  114        3.335845  -0.000000
  115        3.382151  -0.000000
  116        3.400819  -0.000000
  117        3.425837  -0.000000
  118        3.505600  -0.000000
  119        3.527385  -0.000000
  120        3.552028  -0.000000
  121        3.586094  -0.000000
  122        3.635348  -0.000000
  123        3.679701  -0.000000
  124        3.783458  -0.000000
  125        3.820250  -0.000000
  126        3.913376  -0.000000

  0.1111111E+00  0.1111111E+00  0.1262379E-14  0.2469136E-01
    1      -12.210172   1.000000
    2      -11.557967   1.000000
    3      -10.894248   1.000000
    4      -10.299260   1.000000
    5       -9.540199   1.000000
    6       -9.534663   1.000000
    7       -9.340163   1.000000
    8       -9.261596   1.000000
    9       -9.239569   1.000000
   10       -9.184320   1.000000
   11       -9.035072   1.000000
   12       -8.742606   1.000000
   13       -8.548101   1.000000
   14       -8.390235   1.000000
   15       -8.266410   1.000000
   16       -8.228253   1.000000
   17       -7.621487   1.000000
   18       -7.274028   1.000000
   19       -7.201765   1.000000
   20       -7.164072   1.000000
   21       -6.959960   1.000000
   22       -6.948724   1.000000
   23       -6.793293   1.000000
   24       -6.570157   1.000000
   25       -6.553714   1.000000
   26       -6.544412   1.000000
   27       -6.204835   1.000000
   28       -5.472397   1.000000
   29       -5.184573   1.000000
   30       -5.013176   1.000000
   31       -4.526906   1.000000
   32       -4.424023   1.000000
   33       -4.232599   1.000000
   34       -4.047483   1.000000
   35       -4.013250   1.000000
   36       -3.978020   1.000000
   37       -3.729834   1.000000
   38       -3.626694   1.000000
   39       -3.576292   1.000000
   40       -3.543999   1.000000
   41       -3.485556   1.000000
   42       -3.427670   1.000000
   43       -3.403362   1.000000
   44       -3.361620   1.000000
   45       -3.221562   1.000000
   46       -3.188696   1.000000
   47       -2.977577   1.000000
   48       -2.941086   1.000000
   49       -2.879568   1.000000
   50       -2.831715   1.000000
   51       -2.722360   1.000000
   52       -2.697637   1.000000
   53       -2.651911   1.000000
   54       -2.460359   1.000000
   55       -2.400555   1.000000
   56       -2.377501   1.000000
   57       -2.291547   1.000000
   58       -2.252867   1.000000
   59       -2.145170   1.000000
   60       -2.092304   1.000000
   61       -2.075731   1.000000
   62       -2.004655   1.000000
   63       -1.977432   1.000000
   64       -1.944721   1.000000
   65       -1.843246   1.000000
   66       -1.783848   1.000000
   67       -1.732578   1.000000
   68       -1.701346   1.000000
   69       -1.587030   1.000000
   70       -1.484390   1.000000
   71       -1.418982   1.000000
   72       -1.325704   1.000000
   73       -1.142551   1.000000
   74       -1.014925   1.000000
   75       -0.759262   1.000000
   76       -0.697346   1.000000
   77       -0.421775   1.000000
   78       -0.372311   1.000000
   79       -0.067135   1.000000
   80        0.174946   1.000000
   81        0.290870   1.000000
   82        0.316402   1.000000
   83        0.442960   1.000000
   84        0.481483   1.000000
   85        0.668667   1.000000
   86        0.677326   1.000000
   87        1.138367   1.000000
   88        1.238233   1.000000
   89        1.400362   1.000000
   90        1.588741   1.000047
   91        1.664041   1.000364
   92        1.745278   1.002322
   93        1.773199   1.004010
   94        1.894126   1.023385
   95        1.996416   1.031658
   96        2.120794   0.847208
   97        2.317129   0.118108
   98        2.377392   0.004247
   99        2.403613  -0.019715
  100        2.459495  -0.035446
  101        2.517112  -0.026669
  102        2.620941  -0.006988
  103        2.693507  -0.001761
  104        2.780110  -0.000226
  105        2.823201  -0.000070
  106        2.884030  -0.000011
  107        2.976394  -0.000000
  108        3.003843  -0.000000
  109        3.058434  -0.000000
  110        3.117802  -0.000000
  111        3.152859  -0.000000
  112        3.186229  -0.000000
  113        3.249846  -0.000000
  114        3.277096  -0.000000
  115        3.332687  -0.000000
  116        3.356128  -0.000000
  117        3.403081  -0.000000
  118        3.451514  -0.000000
  119        3.515890  -0.000000
  120        3.541926  -0.000000
  121        3.566885  -0.000000
  122        3.606426  -0.000000
  123        3.694859  -0.000000
  124        3.821817  -0.000000
  125        3.848056  -0.000000
  126        3.904225  -0.000000

  0.2222222E+00  0.1111111E+00  0.1262379E-14  0.2469136E-01
    1      -11.983860   1.000000
    2      -11.356872   1.000000
    3      -10.744940   1.000000
    4      -10.182667   1.000000
    5      -10.128344   1.000000
    6       -9.751255   1.000000