 running on   54 total cores
 distrk:  each k-point on   54 cores,    1 groups
 distr:  one band on    9 cores,    6 groups
 using from now: INCAR     
 vasp.5.4.4.18Apr17-6-g9f103f2a35 (build Dec  7 2020 12:43:57) complex           
 POSCAR found type information on POSCAR  Mo V  B  H 
 POSCAR found :  4 types and      53 ions
 scaLAPACK will be used
 LDA part: xc-table for Pade appr. of Perdew
 POSCAR, INCAR and KPOINTS ok, starting setup
 resort distribution
 resort distribution
 resort distribution
 resort distribution
 resort distribution
 resort distribution
 resort distribution
 resort distribution
 resort distribution
 resort distribution
 resort distribution
 resort distribution
 resort distribution
 resort distribution
 resort distribution
 resort distribution
 resort distribution
 resort distribution
 resort distribution
 resort distribution
 resort distribution
 resort distribution
 resort distribution
 resort distribution
 resort distribution
 resort distribution
 resort distribution
 resort distribution
 resort distribution
 resort distribution
 resort distribution
 resort distribution
 resort distribution
 resort distribution
 resort distribution
 resort distribution
 resort distribution
 resort distribution
 resort distribution
 resort distribution
 resort distribution
 resort distribution
 resort distribution
 resort distribution
 resort distribution
 resort distribution
 resort distribution
 resort distribution
 resort distribution
 resort distribution
 resort distribution
 resort distribution
 resort distribution
 resort distribution
 FFT: planning ...
 WAVECAR not read
 augmentation electrons   197.01888719714526     
 soft         electrons   0.0000000000000000     
 augmentation electrons   197.01888719714526     
 soft         electrons   0.0000000000000000     
 augmentation electrons   197.01888719714526     
 soft         electrons   0.0000000000000000     
 augmentation electrons   197.01888719714526     
 soft         electrons   0.0000000000000000     
 augmentation electrons   197.01888719714526     
 soft         electrons   0.0000000000000000     
 augmentation electrons   197.01888719714526     
 soft         electrons   0.0000000000000000     
 augmentation electrons   197.01888719714526     
 soft         electrons   0.0000000000000000     
 augmentation electrons   197.01888719714526     
 soft         electrons   0.0000000000000000     
 augmentation electrons   197.01888719714526     
 soft         electrons   0.0000000000000000     
 augmentation electrons   197.01888719714526     
 soft         electrons   0.0000000000000000     
 augmentation electrons   197.01888719714526     
 soft         electrons   0.0000000000000000     
 augmentation electrons   197.01888719714526     
 soft         electrons   0.0000000000000000     
 augmentation electrons   197.01888719714526     
 soft         electrons   0.0000000000000000     
 augmentation electrons   197.01888719714526     
 soft         electrons   0.0000000000000000     
 augmentation electrons   197.01888719714526     
 soft         electrons   0.0000000000000000     
 augmentation electrons   197.01888719714526     
 soft         electrons   0.0000000000000000     
 augmentation electrons   197.01888719714526     
 soft         electrons   0.0000000000000000     
 augmentation electrons   197.01888719714526     
 soft         electrons   0.0000000000000000     
 augmentation electrons   197.01888719714526     
 soft         electrons   0.0000000000000000     
 augmentation electrons   197.01888719714526     
 soft         electrons   0.0000000000000000     
 augmentation electrons   197.01888719714526     
 soft         electrons   0.0000000000000000     
 augmentation electrons   197.01888719714526     
 soft         electrons   0.0000000000000000     
 augmentation electrons   197.01888719714526     
 soft         electrons   0.0000000000000000     
 augmentation electrons   197.01888719714526     
 soft         electrons   0.0000000000000000     
 augmentation electrons   197.01888719714526     
 soft         electrons   0.0000000000000000     
 augmentation electrons   197.01888719714526     
 soft         electrons   0.0000000000000000     
 augmentation electrons   197.01888719714526     
 soft         electrons   0.0000000000000000     
 augmentation electrons   197.01888719714526     
 soft         electrons   0.0000000000000000     
 augmentation electrons   197.01888719714526     
 soft         electrons   0.0000000000000000     
 augmentation electrons   197.01888719714526     
 soft         electrons   0.0000000000000000     
 augmentation electrons   197.01888719714526     
 soft         electrons   0.0000000000000000     
 augmentation electrons   197.01888719714526     
 soft         electrons   0.0000000000000000     
 augmentation electrons   197.01888719714526     
 soft         electrons   0.0000000000000000     
 augmentation electrons   197.01888719714526     
 soft         electrons   0.0000000000000000     
 augmentation electrons   197.01888719714526     
 soft         electrons   0.0000000000000000     
 augmentation electrons   197.01888719714526     
 soft         electrons   0.0000000000000000     
 augmentation electrons   197.01888719714526     
 soft         electrons   0.0000000000000000     
 augmentation electrons   197.01888719714526     
 soft         electrons   0.0000000000000000     
 augmentation electrons   197.01888719714526     
 soft         electrons   0.0000000000000000     
 augmentation electrons   197.01888719714526     
 soft         electrons   0.0000000000000000     
 augmentation electrons   197.01888719714526     
 soft         electrons   0.0000000000000000     
 augmentation electrons   197.01888719714526     
 soft         electrons   0.0000000000000000     
 augmentation electrons   197.01888719714526     
 soft         electrons   0.0000000000000000     
 augmentation electrons   197.01888719714526     
 soft         electrons   0.0000000000000000     
 augmentation electrons   197.01888719714526     
 soft         electrons   0.0000000000000000     
 augmentation electrons   197.01888719714526     
 soft         electrons   0.0000000000000000     
 augmentation electrons   197.01888719714526     
 soft         electrons   0.0000000000000000     
 augmentation electrons   197.01888719714526     
 soft         electrons   0.0000000000000000     
 augmentation electrons   197.01888719714526     
 soft         electrons   0.0000000000000000     
 augmentation electrons   197.01888719714526     
 soft         electrons   0.0000000000000000     
 augmentation electrons   197.01888719714526     
 soft         electrons   0.0000000000000000     
 augmentation electrons   197.01888719714526     
 soft         electrons   0.0000000000000000     
 augmentation electrons   197.01888719714526     
 soft         electrons   0.0000000000000000     
 total        electrons   197.01888719714526     
 total        electrons   197.01888719714526     
 total        electrons   197.01888719714526     
 total        electrons   197.01888719714526     
 total        electrons   197.01888719714526     
 total        electrons   197.01888719714526     
 total        electrons   197.01888719714526     
 total        electrons   197.01888719714526     
 total        electrons   197.01888719714526     
 total        electrons   197.01888719714526     
 total        electrons   197.01888719714526     
 total        electrons   197.01888719714526     
 total        electrons   197.01888719714526     
 total        electrons   197.01888719714526     
 total        electrons   197.01888719714526     
 augmentation electrons   197.01888719714526     
 soft         electrons   0.0000000000000000     
 total        electrons   197.01888719714526     
 total        electrons   197.01888719714526     
 total        electrons   197.01888719714526     
 total        electrons   197.01888719714526     
 total        electrons   197.01888719714526     
 total        electrons   197.01888719714526     
 total        electrons   197.01888719714526     
 total        electrons   197.01888719714526     
 total        electrons   197.01888719714526     
 total        electrons   197.01888719714526     
 total        electrons   197.01888719714526     
 total        electrons   197.01888719714526     
 total        electrons   197.01888719714526     
 total        electrons   197.01888719714526     
 total        electrons   197.01888719714526     
 total        electrons   197.01888719714526     
 total        electrons   197.01888719714526     
 total        electrons   197.01888719714526     
 total        electrons   197.01888719714526     
 total        electrons   197.01888719714526     
 total        electrons   197.01888719714526     
 total        electrons   197.01888719714526     
 total        electrons   197.01888719714526     
 total        electrons   197.01888719714526     
 total        electrons   197.01888719714526     
 total        electrons   197.01888719714526     
 total        electrons   197.01888719714526     
 total        electrons   197.01888719714526     
 total        electrons   197.01888719714526     
 total        electrons   197.01888719714526     
 total        electrons   197.01888719714526     
 total        electrons   197.01888719714526     
 total        electrons   197.01888719714526     
 total        electrons   197.01888719714526     
 total        electrons   197.01888719714526     
 total        electrons   197.01888719714526     
 total        electrons   197.01888719714526     
 total        electrons   197.01888719714526     
 total        electrons   197.01888719714526     
 augmentation electrons   637.50483029801512     
 soft         electrons   0.0000000000000000     
 augmentation electrons   637.50483029801512     
 soft         electrons   0.0000000000000000     
 augmentation electrons   637.50483029801512     
 soft         electrons   0.0000000000000000     
 augmentation electrons   637.50483029801512     
 soft         electrons   0.0000000000000000     
 augmentation electrons   637.50483029801512     
 soft         electrons   0.0000000000000000     
 augmentation electrons   637.50483029801512     
 soft         electrons   0.0000000000000000     
 augmentation electrons   637.50483029801512     
 soft         electrons   0.0000000000000000     
 augmentation electrons   637.50483029801512     
 soft         electrons   0.0000000000000000     
 augmentation electrons   637.50483029801512     
 soft         electrons   0.0000000000000000     
 augmentation electrons   637.50483029801512     
 soft         electrons   0.0000000000000000     
 augmentation electrons   637.50483029801512     
 soft         electrons   0.0000000000000000     
 augmentation electrons   637.50483029801512     
 soft         electrons   0.0000000000000000     
 augmentation electrons   637.50483029801512     
 soft         electrons   0.0000000000000000     
 augmentation electrons   637.50483029801512     
 soft         electrons   0.0000000000000000     
 augmentation electrons   637.50483029801512     
 soft         electrons   0.0000000000000000     
 augmentation electrons   637.50483029801512     
 soft         electrons   0.0000000000000000     
 augmentation electrons   637.50483029801512     
 soft         electrons   0.0000000000000000     
 augmentation electrons   637.50483029801512     
 soft         electrons   0.0000000000000000     
 augmentation electrons   637.50483029801512     
 soft         electrons   0.0000000000000000     
 augmentation electrons   637.50483029801512     
 soft         electrons   0.0000000000000000     
 augmentation electrons   637.50483029801512     
 soft         electrons   0.0000000000000000     
 augmentation electrons   637.50483029801512     
 soft         electrons   0.0000000000000000     
 augmentation electrons   637.50483029801512     
 soft         electrons   0.0000000000000000     
 augmentation electrons   637.50483029801512     
 soft         electrons   0.0000000000000000     
 augmentation electrons   637.50483029801512     
 soft         electrons   0.0000000000000000     
 augmentation electrons   637.50483029801512     
 soft         electrons   0.0000000000000000     
 augmentation electrons   637.50483029801512     
 soft         electrons   0.0000000000000000     
 augmentation electrons   637.50483029801512     
 soft         electrons   0.0000000000000000     
 augmentation electrons   637.50483029801512     
 soft         electrons   0.0000000000000000     
 augmentation electrons   637.50483029801512     
 soft         electrons   0.0000000000000000     
 augmentation electrons   637.50483029801512     
 soft         electrons   0.0000000000000000     
 augmentation electrons   637.50483029801512     
 soft         electrons   0.0000000000000000     
 augmentation electrons   637.50483029801512     
 soft         electrons   0.0000000000000000     
 augmentation electrons   637.50483029801512     
 soft         electrons   0.0000000000000000     
 augmentation electrons   637.50483029801512     
 soft         electrons   0.0000000000000000     
 augmentation electrons   637.50483029801512     
 soft         electrons   0.0000000000000000     
 augmentation electrons   637.50483029801512     
 soft         electrons   0.0000000000000000     
 augmentation electrons   637.50483029801512     
 soft         electrons   0.0000000000000000     
 augmentation electrons   637.50483029801512     
 soft         electrons   0.0000000000000000     
 augmentation electrons   637.50483029801512     
 soft         electrons   0.0000000000000000     
 augmentation electrons   637.50483029801512     
 soft         electrons   0.0000000000000000     
 augmentation electrons   637.50483029801512     
 soft         electrons   0.0000000000000000     
 augmentation electrons   637.50483029801512     
 soft         electrons   0.0000000000000000     
 augmentation electrons   637.50483029801512     
 soft         electrons   0.0000000000000000     
 augmentation electrons   637.50483029801512     
 soft         electrons   0.0000000000000000     
 augmentation electrons   637.50483029801512     
 soft         electrons   0.0000000000000000     
 augmentation electrons   637.50483029801512     
 soft         electrons   0.0000000000000000     
 augmentation electrons   637.50483029801512     
 soft         electrons   0.0000000000000000     
 augmentation electrons   637.50483029801512     
 soft         electrons   0.0000000000000000     
 augmentation electrons   637.50483029801512     
 soft         electrons   0.0000000000000000     
 augmentation electrons   637.50483029801512     
 soft         electrons   0.0000000000000000     
 augmentation electrons   637.50483029801512     
 soft         electrons   0.0000000000000000     
 augmentation electrons   637.50483029801512     
 soft         electrons   0.0000000000000000     
 augmentation electrons   637.50483029801512     
 soft         electrons   0.0000000000000000     
 total        electrons   637.50483029801512     
 total        electrons   637.50483029801512     
 total        electrons   637.50483029801512     
 total        electrons   637.50483029801512     
 total        electrons   637.50483029801512     
 total        electrons   637.50483029801512     
 total        electrons   637.50483029801512     
 total        electrons   637.50483029801512     
 total        electrons   637.50483029801512     
 total        electrons   637.50483029801512     
 total        electrons   637.50483029801512     
 total        electrons   637.50483029801512     
 total        electrons   637.50483029801512     
 total        electrons   637.50483029801512     
 total        electrons   637.50483029801512     
 total        electrons   637.50483029801512     
 total        electrons   637.50483029801512     
 total        electrons   637.50483029801512     
 total        electrons   637.50483029801512     
 total        electrons   637.50483029801512     
 total        electrons   637.50483029801512     
 total        electrons   637.50483029801512     
 total        electrons   637.50483029801512     
 total        electrons   637.50483029801512     
 total        electrons   637.50483029801512     
 total        electrons   637.50483029801512     
 total        electrons   637.50483029801512     
 total        electrons   637.50483029801512     
 total        electrons   637.50483029801512     
 total        electrons   637.50483029801512     
 total        electrons   637.50483029801512     
 total        electrons   637.50483029801512     
 total        electrons   637.50483029801512     
 total        electrons   637.50483029801512     
 total        electrons   637.50483029801512     
 total        electrons   637.50483029801512     
 total        electrons   637.50483029801512     
 total        electrons   637.50483029801512     
 total        electrons   637.50483029801512     
 total        electrons   637.50483029801512     
 total        electrons   637.50483029801512     
 total        electrons   637.50483029801512     
 total        electrons   637.50483029801512     
 total        electrons   637.50483029801512     
 total        electrons   637.50483029801512     
 total        electrons   637.50483029801512     
 total        electrons   637.50483029801512     
 total        electrons   637.50483029801512     
 total        electrons   637.50483029801512     
 total        electrons   637.50483029801512     
 total        electrons   637.50483029801512     
 total        electrons   637.50483029801512     
 total        electrons   637.50483029801512     
 total        electrons   637.50483029801512     
 entering main loop
       N       E                     dE             d eps       ncg     rms          rms(c)
DAV:   1     0.179989254691E+04    0.17999E+04   -0.73613E+04 10332   0.134E+03
DAV:   2    -0.128125916449E+03   -0.19280E+04   -0.17721E+04 11250   0.345E+02
DAV:   3    -0.454205616870E+03   -0.32608E+03   -0.31147E+03 15192   0.156E+02
DAV:   4    -0.479974920510E+03   -0.25769E+02   -0.24717E+02 16320   0.458E+01
DAV:   5    -0.481475409577E+03   -0.15005E+01   -0.14556E+01 17412   0.974E+00    0.117E+02
RMM:   6    -0.466538857086E+03    0.14937E+02   -0.83603E+02 14638   0.899E+01    0.657E+01
RMM:   7    -0.711034795410E+03   -0.24450E+03   -0.74093E+02 16105   0.108E+02    0.574E+01
RMM:   8    -0.526421690216E+03    0.18461E+03   -0.27582E+02 14755   0.414E+01    0.430E+01
RMM:   9    -0.432320712125E+03    0.94101E+02   -0.71977E+01 13631   0.251E+01    0.308E+01
RMM:  10    -0.409035956055E+03    0.23285E+02   -0.35885E+01 10951   0.245E+01    0.201E+01
RMM:  11    -0.408781789943E+03    0.25417E+00   -0.24807E+01 14151   0.104E+01    0.166E+01
RMM:  12    -0.407147122271E+03    0.16347E+01   -0.31229E+00 13539   0.454E+00    0.142E+01
RMM:  13    -0.408246535546E+03   -0.10994E+01   -0.11725E+00 13759   0.256E+00    0.144E+01
RMM:  14    -0.406986027052E+03    0.12605E+01   -0.14543E+00 10388   0.509E+00    0.110E+01
RMM:  15    -0.406637237715E+03    0.34879E+00   -0.54721E+00 10643   0.876E+00    0.814E+00
RMM:  16    -0.406357586067E+03    0.27965E+00   -0.24966E+00 13584   0.389E+00    0.443E+00
RMM:  17    -0.406300882014E+03    0.56704E-01   -0.74254E-01 12060   0.241E+00    0.417E+00
RMM:  18    -0.406204178977E+03    0.96703E-01   -0.22004E-01 12276   0.128E+00    0.253E+00
RMM:  19    -0.406166331815E+03    0.37847E-01   -0.15231E-01 13514   0.105E+00    0.187E+00
RMM:  20    -0.406142252136E+03    0.24080E-01   -0.10726E-01 10990   0.121E+00    0.986E-01
RMM:  21    -0.406160164360E+03   -0.17912E-01   -0.69356E-02 12769   0.728E-01    0.133E+00
RMM:  22    -0.406143303786E+03    0.16861E-01   -0.20001E-02 12639   0.363E-01    0.742E-01
RMM:  23    -0.406134615606E+03    0.86882E-02   -0.12207E-02 14017   0.253E-01    0.316E-01
RMM:  24    -0.406135006195E+03   -0.39059E-03   -0.64643E-03 12656   0.215E-01    0.257E-01
RMM:  25    -0.406134102278E+03    0.90392E-03   -0.16824E-03 10688   0.155E-01    0.882E-02
RMM:  26    -0.406134587572E+03   -0.48529E-03   -0.14107E-03 12283   0.104E-01    0.161E-01
RMM:  27    -0.406134391500E+03    0.19607E-03   -0.56660E-04 12202   0.579E-02    0.527E-02
RMM:  28    -0.406135130792E+03   -0.73929E-03   -0.43083E-04 13787   0.438E-02    0.113E-01
RMM:  29    -0.406135330570E+03   -0.19978E-03   -0.28379E-04 10426   0.664E-02    0.449E-02
RMM:  30    -0.406135510768E+03   -0.18020E-03   -0.21063E-04 13610   0.199E-02    0.493E-02
RMM:  31    -0.406135917562E+03   -0.40679E-03   -0.91487E-05 13454   0.207E-02    0.283E-02
RMM:  32    -0.406136099282E+03   -0.18172E-03   -0.70962E-05 12427   0.203E-02    0.322E-02
RMM:  33    -0.406136138688E+03   -0.39406E-04   -0.24623E-05  9864   0.141E-02    0.286E-02
RMM:  34    -0.406136253669E+03   -0.11498E-03   -0.14402E-05  9003   0.973E-03    0.119E-02
RMM:  35    -0.406136298266E+03   -0.44597E-04   -0.76886E-06  8854   0.582E-03    0.661E-03
RMM:  36    -0.406136357835E+03   -0.59569E-04   -0.45790E-06  7947   0.526E-03    0.478E-03
RMM:  37    -0.406136425528E+03   -0.67693E-04   -0.73346E-06  8084   0.480E-03    0.258E-03
RMM:  38    -0.406136436335E+03   -0.10807E-04   -0.11585E-06  6421   0.328E-03    0.181E-03
RMM:  39    -0.406136441916E+03   -0.55810E-05   -0.72340E-07  6177   0.254E-03    0.336E-03
RMM:  40    -0.406136445456E+03   -0.35397E-05   -0.54280E-07  5985   0.327E-03    0.154E-03
RMM:  41    -0.406136446030E+03   -0.57393E-06   -0.20763E-07  5076   0.178E-03
   1 F= -.40613645E+03 E0= -.40613848E+03  d E =-.406136E+03
 curvature:   0.00 expect dE= 0.000E+00 dE for cont linesearch  0.000E+00
 trial: gam= 0.00000 g(F)=  0.813E+02 g(S)=  0.000E+00 ort = 0.000E+00 (trialstep = 0.100E+01)
 search vector abs. value=  0.813E+02
 bond charge predicted
       N       E                     dE             d eps       ncg     rms          rms(c)
DAV:   1    -0.399144870068E+03    0.69916E+01   -0.13319E+03 11958   0.853E+01    0.264E+01
RMM:   2    -0.464707760516E+03   -0.65563E+02   -0.10691E+02 14499   0.265E+01    0.421E+01
RMM:   3    -0.430594543632E+03    0.34113E+02   -0.54000E+01 13870   0.218E+01    0.392E+01
RMM:   4    -0.408180724356E+03    0.22414E+02   -0.16001E+01 12507   0.136E+01    0.225E+01
RMM:   5    -0.401845387091E+03    0.63353E+01   -0.12391E+01 11305   0.141E+01    0.167E+01
RMM:   6    -0.399450371666E+03    0.23950E+01   -0.16777E+01 12495   0.130E+01    0.871E+00
RMM:   7    -0.398857826357E+03    0.59255E+00   -0.62395E+00 12544   0.827E+00    0.698E+00
RMM:   8    -0.398420612071E+03    0.43721E+00   -0.18872E+00 11828   0.510E+00    0.440E+00
RMM:   9    -0.398338499008E+03    0.82113E-01   -0.93418E-01 12135   0.326E+00    0.366E+00
RMM:  10    -0.398300160056E+03    0.38339E-01   -0.50688E-01 12000   0.247E+00    0.271E+00
RMM:  11    -0.398223196744E+03    0.76963E-01   -0.21854E-01 13817   0.103E+00    0.124E+00
RMM:  12    -0.398217344357E+03    0.58524E-02   -0.99227E-02 12135   0.100E+00    0.857E-01
RMM:  13    -0.398214143052E+03    0.32013E-02   -0.52994E-02 12959   0.697E-01    0.572E-01
RMM:  14    -0.398212064379E+03    0.20787E-02   -0.31385E-02 13403   0.432E-01    0.296E-01
RMM:  15    -0.398212018795E+03    0.45584E-04   -0.93703E-03 13904   0.204E-01    0.173E-01
RMM:  16    -0.398212160357E+03   -0.14156E-03   -0.39132E-03 14263   0.100E-01    0.792E-02
RMM:  17    -0.398212166790E+03   -0.64324E-05   -0.73806E-04 14204   0.542E-02    0.541E-02
RMM:  18    -0.398212209757E+03   -0.42967E-04   -0.33352E-04 13122   0.443E-02    0.287E-02
RMM:  19    -0.398212239729E+03   -0.29972E-04   -0.86870E-05 12462   0.145E-02    0.158E-02
RMM:  20    -0.398212253951E+03   -0.14222E-04   -0.29170E-05 11351   0.125E-02    0.129E-02
RMM:  21    -0.398212269640E+03   -0.15689E-04   -0.12734E-05  9534   0.100E-02    0.496E-03
RMM:  22    -0.398212287085E+03   -0.17444E-04   -0.43513E-06  8116   0.470E-03    0.441E-03
RMM:  23    -0.398212299638E+03   -0.12553E-04   -0.14236E-06  6672   0.499E-03    0.171E-03
RMM:  24    -0.398212316588E+03   -0.16950E-04   -0.23181E-06  7042   0.350E-03    0.172E-03
RMM:  25    -0.398212325935E+03   -0.93478E-05   -0.11825E-06  6451   0.362E-03    0.162E-03
RMM:  26    -0.398212334590E+03   -0.86548E-05   -0.16844E-06  6568   0.309E-03    0.151E-03
RMM:  27    -0.398212341768E+03   -0.71774E-05   -0.17906E-06  6626   0.326E-03    0.147E-03
RMM:  28    -0.398212343546E+03   -0.17784E-05   -0.68439E-07  5431   0.263E-03    0.614E-04
RMM:  29    -0.398212344280E+03   -0.73440E-06   -0.35833E-07  4892   0.191E-03
   2 F= -.39821234E+03 E0= -.39821637E+03  d E =0.792410E+01
 trial-energy change:    7.924102  1 .order  -15.911605  -81.336299   49.513089
 step:   0.3675(harm=  0.6216)  dis= 0.28440  next Energy=  -419.900122 (dE=-0.138E+02)
 bond charge predicted
       N       E                     dE             d eps       ncg     rms          rms(c)
DAV:   1    -0.412887411390E+03   -0.14675E+02   -0.66235E+02 10758   0.646E+01    0.123E+01
RMM:   2    -0.460267103915E+03   -0.47380E+02   -0.15563E+02 14671   0.409E+01    0.495E+01
RMM:   3    -0.415935026173E+03    0.44332E+02   -0.16680E+01 11800   0.164E+01    0.166E+01
RMM:   4    -0.413524338358E+03    0.24107E+01   -0.81869E+00 13237   0.826E+00    0.123E+01
RMM:   5    -0.412776330840E+03    0.74801E+00   -0.21822E+00 13133   0.426E+00    0.929E+00
RMM:   6    -0.413386083041E+03   -0.60975E+00   -0.29954E+00 11070   0.622E+00    0.118E+01
RMM:   7    -0.412431550358E+03    0.95453E+00   -0.17325E+00 11833   0.488E+00    0.659E+00
RMM:   8    -0.412313634327E+03    0.11792E+00   -0.96241E-01 12030   0.351E+00    0.527E+00
RMM:   9    -0.412199124719E+03    0.11451E+00   -0.48353E-01 11361   0.269E+00    0.425E+00
RMM:  10    -0.412131203091E+03    0.67922E-01   -0.28112E-01 12991   0.146E+00    0.283E+00
RMM:  11    -0.412112410509E+03    0.18793E-01   -0.12157E-01 13842   0.828E-01    0.231E+00
RMM:  12    -0.412106081119E+03    0.63294E-02   -0.66123E-02 13769   0.596E-01    0.190E+00
RMM:  13    -0.412096003426E+03    0.10078E-01   -0.44953E-02 12740   0.634E-01    0.152E+00
RMM:  14    -0.412088488418E+03    0.75150E-02   -0.26288E-02 14231   0.312E-01    0.107E+00
RMM:  15    -0.412088237905E+03    0.25051E-03   -0.53868E-03 14595   0.100E-01    0.850E-01
RMM:  16    -0.412087689275E+03    0.54863E-03   -0.82697E-03 13740   0.212E-01    0.742E-01
RMM:  17    -0.412087360479E+03    0.32880E-03   -0.15372E-03 14078   0.551E-02    0.678E-01
RMM:  18    -0.412086146283E+03    0.12142E-02   -0.17555E-03 13825   0.803E-02    0.457E-01
RMM:  19    -0.412085489178E+03    0.65710E-03   -0.12431E-03 14196   0.654E-02    0.256E-01
RMM:  20    -0.412085266810E+03    0.22237E-03   -0.57424E-04 14296   0.435E-02    0.193E-01
RMM:  21    -0.412085086597E+03    0.18021E-03   -0.42414E-04 14549   0.337E-02    0.583E-02
RMM:  22    -0.412085086941E+03   -0.34491E-06   -0.96287E-05 13542   0.157E-02    0.548E-02
RMM:  23    -0.412085088195E+03   -0.12538E-05   -0.29788E-05 12406   0.115E-02    0.293E-02
RMM:  24    -0.412085088773E+03   -0.57792E-06   -0.16059E-05 10717   0.830E-03    0.766E-03
RMM:  25    -0.412085091475E+03   -0.27017E-05   -0.37554E-06  7613   0.610E-03    0.143E-02
RMM:  26    -0.412085094822E+03   -0.33467E-05   -0.48063E-06  8115   0.535E-03    0.275E-03
RMM:  27    -0.412085096967E+03   -0.21454E-05   -0.89902E-07  6095   0.443E-03    0.642E-03
RMM:  28    -0.412085099780E+03   -0.28127E-05   -0.98342E-07  6097   0.333E-03    0.336E-03
RMM:  29    -0.412085101739E+03   -0.19593E-05   -0.51831E-07  6076   0.371E-03    0.259E-03
RMM:  30    -0.412085102642E+03   -0.90336E-06   -0.29633E-07  5862   0.174E-03
   3 F= -.41208510E+03 E0= -.41208790E+03  d E =-.594866E+01
 curvature:  -0.17 expect dE=-0.775E+00 dE for cont linesearch -0.858E-01
 ZBRENT: interpolating
 opt :   0.3407  next Energy=  -412.170790 (dE=-0.603E+01)
 bond charge predicted
       N       E                     dE             d eps       ncg     rms          rms(c)
DAV:   1    -0.412244370267E+03   -0.15927E+00   -0.19544E+00 11496   0.356E+00    0.567E-01
RMM:   2    -0.412326218478E+03   -0.81848E-01   -0.13198E-01 12904   0.115E+00    0.245E+00
RMM:   3    -0.412249805770E+03    0.76413E-01   -0.25083E-02 11886   0.619E-01    0.592E-01
RMM:   4    -0.412247588096E+03    0.22177E-02   -0.14195E-02 13399   0.313E-01    0.488E-01
RMM:   5    -0.412246392739E+03    0.11954E-02   -0.82843E-03 12613   0.274E-01    0.356E-01
RMM:   6    -0.412245997897E+03    0.39484E-03   -0.54583E-03 11875   0.258E-01    0.322E-01
RMM:   7    -0.412244763454E+03    0.12344E-02   -0.23420E-03 11070   0.198E-01    0.125E-01
RMM:   8    -0.412244678331E+03    0.85123E-04   -0.80641E-04 13386   0.695E-02    0.569E-02
RMM:   9    -0.412244593203E+03    0.85127E-04   -0.27073E-04 13968   0.345E-02    0.281E-02
RMM:  10    -0.412244591805E+03    0.13985E-05   -0.76038E-05 12406   0.229E-02    0.246E-02
RMM:  11    -0.412244588408E+03    0.33971E-05   -0.29831E-05 10031   0.180E-02    0.167E-02
RMM:  12    -0.412244588228E+03    0.17997E-06   -0.21194E-05 10249   0.131E-02    0.121E-02
RMM:  13    -0.412244586610E+03    0.16183E-05   -0.10158E-05  8145   0.996E-03    0.666E-03
RMM:  14    -0.412244586460E+03    0.14938E-06   -0.43795E-06  7714   0.558E-03
   4 F= -.41224459E+03 E0= -.41224758E+03  d E =-.610814E+01
 curvature:  -0.17 expect dE=-0.719E+00 dE for cont linesearch -0.630E-01
 ZBRENT: interpolating
 opt :   0.1894  next Energy=  -412.685873 (dE=-0.655E+01)
 bond charge predicted
       N       E                     dE             d eps       ncg     rms          rms(c)
DAV:   1    -0.412401500568E+03   -0.15691E+00   -0.64809E+01 10332   0.203E+01    0.332E+00
RMM:   2    -0.413909738430E+03   -0.15082E+01   -0.40195E+00 12090   0.657E+00    0.117E+01
RMM:   3    -0.412558094909E+03    0.13516E+01   -0.58622E-01 12015   0.303E+00    0.307E+00
RMM:   4    -0.412635375899E+03   -0.77281E-01   -0.52181E-01 13407   0.197E+00    0.401E+00
RMM:   5    -0.412477561206E+03    0.15781E+00   -0.30295E-01 12193   0.183E+00    0.228E+00
RMM:   6    -0.412451537670E+03    0.26024E-01   -0.20177E-01 11759   0.163E+00    0.192E+00
RMM:   7    -0.412414588233E+03    0.36949E-01   -0.95028E-02 11824   0.115E+00    0.115E+00
RMM:   8    -0.412400585967E+03    0.14002E-01   -0.20670E-02 12374   0.455E-01    0.377E-01
RMM:   9    -0.412398894556E+03    0.16914E-02   -0.98059E-03 13644   0.217E-01    0.266E-01
RMM:  10    -0.412398819093E+03    0.75463E-04   -0.26686E-03 13070   0.141E-01    0.235E-01
RMM:  11    -0.412398650195E+03    0.16890E-03   -0.13614E-03 12097   0.121E-01    0.167E-01
RMM:  12    -0.412398618729E+03    0.31466E-04   -0.11329E-03 13310   0.879E-02    0.130E-01
RMM:  13    -0.412398486314E+03    0.13241E-03   -0.57669E-04 11852   0.772E-02    0.692E-02
RMM:  14    -0.412398453224E+03    0.33090E-04   -0.26008E-04 13798   0.327E-02    0.389E-02
RMM:  15    -0.412398454452E+03   -0.12280E-05   -0.75619E-05 11207   0.108E-02    0.211E-02
RMM:  16    -0.412398454126E+03    0.32603E-06   -0.12452E-05  9586   0.900E-03    0.124E-02
RMM:  17    -0.412398454986E+03   -0.85959E-06   -0.53953E-06  8450   0.603E-03
   5 F= -.41239845E+03 E0= -.41240167E+03  d E =-.626201E+01
 curvature:  -1.19 expect dE=-0.439E+01 dE for cont linesearch -0.540E+00
 ZBRENT: interpolating
 opt :   0.2689  next Energy=  -412.441627 (dE=-0.631E+01)
 bond charge predicted
       N       E                     dE             d eps       ncg     rms          rms(c)
DAV:   1    -0.412522673938E+03   -0.12422E+00   -0.19111E+01 10332   0.111E+01    0.176E+00
RMM:   2    -0.412764252708E+03   -0.24158E+00   -0.88234E-01 13162   0.296E+00    0.385E+00
RMM:   3    -0.412588673950E+03    0.17558E+00   -0.14505E-01 11992   0.151E+00    0.180E+00
RMM:   4    -0.412566602020E+03    0.22072E-01   -0.11447E-01 13032   0.993E-01    0.165E+00
RMM:   5    -0.412555150059E+03    0.11452E-01   -0.11113E-01 12426   0.103E+00    0.152E+00
RMM:   6    -0.412538483529E+03    0.16667E-01   -0.59564E-02 11585   0.923E-01    0.106E+00
RMM:   7    -0.412524172896E+03    0.14311E-01   -0.21671E-02 11991   0.542E-01    0.230E-01
RMM:   8    -0.412523658833E+03    0.51406E-03   -0.48917E-03 13728   0.155E-01    0.131E-01
RMM:   9    -0.412523626253E+03    0.32580E-04   -0.14746E-03 12176   0.118E-01    0.126E-01
RMM:  10    -0.412523541620E+03    0.84633E-04   -0.75358E-04 12740   0.838E-02    0.867E-02
RMM:  11    -0.412523490626E+03    0.50994E-04   -0.44220E-04 12842   0.617E-02    0.478E-02
RMM:  12    -0.412523466379E+03    0.24246E-04   -0.19593E-04 13367   0.366E-02    0.258E-02
RMM:  13    -0.412523462236E+03    0.41434E-05   -0.78529E-05 12180   0.176E-02    0.989E-03
RMM:  14    -0.412523465331E+03   -0.30950E-05   -0.33567E-05 11024   0.131E-02    0.115E-02
RMM:  15    -0.412523463689E+03    0.16423E-05   -0.10372E-05  8678   0.835E-03    0.409E-03
RMM:  16    -0.412523464415E+03   -0.72606E-06   -0.48772E-06  7936   0.474E-03
   6 F= -.41252346E+03 E0= -.41252684E+03  d E =-.638702E+01
 curvature:  -0.43 expect dE=-0.156E+01 dE for cont linesearch -0.197E-01
 ZBRENT: interpolating
 opt :   0.2395  next Energy=  -412.558429 (dE=-0.642E+01)
 bond charge predicted
       N       E                     dE             d eps       ncg     rms          rms(c)
DAV:   1    -0.412548160955E+03   -0.24697E-01   -0.25318E+00 10536   0.402E+00    0.644E-01
RMM:   2    -0.412596745039E+03   -0.48584E-01   -0.12909E-01 12629   0.117E+00    0.202E+00
RMM:   3    -0.412554615378E+03    0.42130E-01   -0.22120E-02 11875   0.596E-01    0.610E-01
RMM:   4    -0.412555702784E+03   -0.10874E-02   -0.18335E-02 13369   0.373E-01    0.702E-01
RMM:   5    -0.412550917516E+03    0.47853E-02   -0.12974E-02 12391   0.359E-01    0.439E-01
RMM:   6    -0.412549838695E+03    0.10788E-02   -0.75810E-03 11884   0.310E-01    0.370E-01
RMM:   7    -0.412548232169E+03    0.16065E-02   -0.30359E-03 11766   0.209E-01    0.138E-01
RMM:   8    -0.412547995578E+03    0.23659E-03   -0.61871E-04 13239   0.642E-02    0.399E-02
RMM:   9    -0.412547999197E+03   -0.36192E-05   -0.25784E-04 13785   0.350E-02    0.417E-02
RMM:  10    -0.412547980450E+03    0.18747E-04   -0.81512E-05 12083   0.297E-02    0.275E-02
RMM:  11    -0.412547976213E+03    0.42377E-05   -0.46558E-05 11959   0.193E-02    0.164E-02
RMM:  12    -0.412547974499E+03    0.17140E-05   -0.21183E-05 10231   0.127E-02    0.854E-03
RMM:  13    -0.412547973867E+03    0.63153E-06   -0.80208E-06  8036   0.717E-03
   7 F= -.41254797E+03 E0= -.41255136E+03  d E =-.641153E+01
 curvature:  -0.77 expect dE=-0.266E+01 dE for cont linesearch -0.120E-02
 trial: gam= 0.03797 g(F)=  0.344E+01 g(S)=  0.000E+00 ort = 0.355E+00 (trialstep = 0.848E+00)
 search vector abs. value=  0.359E+01
 bond charge predicted
       N       E                     dE             d eps       ncg     rms          rms(c)
DAV:   1    -0.413935494069E+03   -0.13875E+01   -0.93718E+01 10332   0.255E+01    0.329E+00
RMM:   2    -0.414160387186E+03   -0.22489E+00   -0.34678E+00 12727   0.563E+00    0.352E+00
RMM:   3    -0.414337091800E+03   -0.17670E+00   -0.65265E-01 12617   0.281E+00    0.424E+00
RMM:   4    -0.414367951672E+03   -0.30860E-01   -0.46625E-01 14048   0.169E+00    0.402E+00
RMM:   5    -0.414177901704E+03    0.19005E+00   -0.34148E-01 12194   0.197E+00    0.282E+00
RMM:   6    -0.414047069762E+03    0.13083E+00   -0.15580E-01 12229   0.127E+00    0.889E-01
RMM:   7    -0.414054287727E+03   -0.72180E-02   -0.63340E-02 11713   0.881E-01    0.115E+00
RMM:   8    -0.414037266141E+03    0.17022E-01   -0.21851E-02 11263   0.572E-01    0.313E-01
RMM:   9    -0.414039637317E+03   -0.23712E-02   -0.15306E-02 13110   0.329E-01    0.455E-01
RMM:  10    -0.414037292156E+03    0.23452E-02   -0.55528E-03 11376   0.266E-01    0.167E-01
RMM:  11    -0.414037219575E+03    0.72581E-04   -0.36796E-03 14005   0.110E-01    0.103E-01
RMM:  12    -0.414037125484E+03    0.94091E-04   -0.90603E-04 13782   0.645E-02    0.529E-02
RMM:  13    -0.414037110979E+03    0.14505E-04   -0.30073E-04 13051   0.455E-02    0.347E-02
RMM:  14    -0.414037125441E+03   -0.14462E-04   -0.15657E-04 12891   0.340E-02    0.289E-02
RMM:  15    -0.414037119912E+03    0.55290E-05   -0.63959E-05 11331   0.206E-02    0.101E-02
RMM:  16    -0.414037127654E+03   -0.77421E-05   -0.33488E-05 10046   0.769E-03    0.637E-03
RMM:  17    -0.414037131858E+03   -0.42032E-05   -0.45714E-06  7850   0.631E-03    0.305E-03
RMM:  18    -0.414037136547E+03   -0.46899E-05   -0.13455E-06  6562   0.355E-03    0.198E-03
RMM:  19    -0.414037139657E+03   -0.31099E-05   -0.54982E-07  6164   0.323E-03    0.111E-03
RMM:  20    -0.414037143565E+03   -0.39074E-05   -0.46851E-07  5869   0.213E-03    0.597E-04
RMM:  21    -0.414037147016E+03   -0.34513E-05   -0.37511E-07  5610   0.194E-03    0.451E-04
RMM:  22    -0.414037149726E+03   -0.27104E-05   -0.30880E-07  5026   0.165E-03    0.344E-04
RMM:  23    -0.414037152491E+03   -0.27647E-05   -0.32972E-07  4717   0.152E-03    0.236E-04
RMM:  24    -0.414037154462E+03   -0.19705E-05   -0.32138E-07  4396   0.151E-03    0.223E-04
RMM:  25    -0.414037155402E+03   -0.94082E-06   -0.26952E-07  4411   0.144E-03
   8 F= -.41403716E+03 E0= -.41404132E+03  d E =-.148918E+01
 trial-energy change:   -1.489182  1 .order   -1.597518   -2.931389   -0.263648
 step:   0.9638(harm=  0.9317)  dis= 0.19670  next Energy=  -414.054897 (dE=-0.151E+01)
 bond charge predicted
       N       E                     dE             d eps       ncg     rms          rms(c)
DAV:   1    -0.414053161691E+03   -0.16007E-01   -0.17274E+00 10512   0.336E+00    0.422E-01
RMM:   2    -0.414056346809E+03   -0.31851E-02   -0.51950E-02 12883   0.696E-01    0.386E-01
RMM:   3    -0.414063629226E+03   -0.72824E-02   -0.11270E-02 13565   0.323E-01    0.644E-01
RMM:   4    -0.414057129140E+03    0.65001E-02   -0.72786E-03 13552   0.236E-01    0.419E-01
RMM:   5    -0.414056576791E+03    0.55235E-03   -0.61934E-03 10962   0.291E-01    0.414E-01
RMM:   6    -0.414054769560E+03    0.18072E-02   -0.22426E-03 11785   0.172E-01    0.919E-02
RMM:   7    -0.414054935903E+03   -0.16634E-03   -0.11579E-03 13302   0.910E-02    0.132E-01
RMM:   8    -0.414054645125E+03    0.29078E-03   -0.39467E-04 11491   0.732E-02    0.510E-02
RMM:   9    -0.414054626953E+03    0.18172E-04   -0.20341E-04 12951   0.379E-02    0.281E-02
RMM:  10    -0.414054627288E+03   -0.33534E-06   -0.90529E-05 12749   0.226E-02    0.221E-02
RMM:  11    -0.414054621617E+03    0.56716E-05   -0.24940E-05 10137   0.140E-02    0.116E-02
RMM:  12    -0.414054621851E+03   -0.23451E-06   -0.12449E-05  8342   0.101E-02    0.943E-03
RMM:  13    -0.414054621486E+03    0.36552E-06   -0.44999E-06  7502   0.858E-03
   9 F= -.41405462E+03 E0= -.41405905E+03  d E =-.150665E+01
 curvature:  -0.41 expect dE=-0.453E+00 dE for cont linesearch -0.401E-05
 trial: gam= 0.29170 g(F)=  0.110E+01 g(S)=  0.000E+00 ort =-0.590E-02 (trialstep = 0.871E+00)
 search vector abs. value=  0.140E+01
 bond charge predicted
       N       E                     dE             d eps       ncg     rms          rms(c)
DAV:   1    -0.414604623948E+03   -0.55000E+00   -0.44047E+01 10332   0.173E+01    0.217E+00
RMM:   2    -0.415020291177E+03   -0.41567E+00   -0.13540E+00 12279   0.421E+00    0.469E+00
RMM:   3    -0.414720200430E+03    0.30009E+00   -0.29713E-01 13426   0.164E+00    0.233E+00
RMM:   4    -0.414749326186E+03   -0.29126E-01   -0.32915E-01 12987   0.156E+00    0.309E+00
RMM:   5    -0.414648940381E+03    0.10039E+00   -0.14811E-01 11626   0.142E+00    0.129E+00
RMM:   6    -0.414623128223E+03    0.25812E-01   -0.66122E-02 12480   0.812E-01    0.770E-01
RMM:   7    -0.414626749772E+03   -0.36215E-02   -0.40272E-02 12305   0.626E-01    0.775E-01
RMM:   8    -0.414617143543E+03    0.96062E-02   -0.12834E-02 11089   0.436E-01    0.255E-01
RMM:   9    -0.414617135112E+03    0.84308E-05   -0.72865E-03 12993   0.231E-01    0.209E-01
RMM:  10    -0.414617075684E+03    0.59428E-04   -0.32500E-03 12082   0.161E-01    0.169E-01
RMM:  11    -0.414616712966E+03    0.36272E-03   -0.14194E-03 13001   0.998E-02    0.900E-02
RMM:  12    -0.414616687437E+03    0.25529E-04   -0.69365E-04 12550   0.735E-02    0.519E-02
RMM:  13    -0.414616680732E+03    0.67052E-05   -0.26805E-04 13538   0.278E-02    0.156E-02
RMM:  14    -0.414616695095E+03   -0.14363E-04   -0.80507E-05 12138   0.122E-02    0.115E-02
RMM:  15    -0.414616703331E+03   -0.82357E-05   -0.14089E-05  9742   0.894E-03    0.508E-03
RMM:  16    -0.414616720722E+03   -0.17392E-04   -0.38095E-06  7796   0.506E-03    0.273E-03
RMM:  17    -0.414616734537E+03   -0.13814E-04   -0.13743E-06  6560   0.417E-03    0.188E-03
RMM:  18    -0.414616748983E+03   -0.14446E-04   -0.14169E-06  6437   0.322E-03    0.149E-03
RMM:  19    -0.414616763632E+03   -0.14649E-04   -0.15816E-06  6587   0.319E-03    0.119E-03
RMM:  20    -0.414616778807E+03   -0.15175E-04   -0.20785E-06  6800   0.313E-03    0.898E-04
RMM:  21    -0.414616785747E+03   -0.69401E-05   -0.99227E-07  6009   0.290E-03    0.599E-04
RMM:  22    -0.414616790702E+03   -0.49554E-05   -0.72269E-07  5562   0.226E-03    0.407E-04
RMM:  23    -0.414616793947E+03   -0.32447E-05   -0.44915E-07  5235   0.208E-03    0.253E-04
RMM:  24    -0.414616795944E+03   -0.19972E-05   -0.29988E-07  4092   0.153E-03    0.210E-04
RMM:  25    -0.414616797161E+03   -0.12165E-05   -0.19907E-07  3974   0.138E-03    0.146E-04
RMM:  26    -0.414616798386E+03   -0.12251E-05   -0.16037E-07  3447   0.112E-03    0.139E-04
RMM:  27    -0.414616798687E+03   -0.30167E-06   -0.99185E-08  3375   0.108E-03
  10 F= -.41461680E+03 E0= -.41462169E+03  d E =-.562177E+00
 trial-energy change:   -0.562177  1 .order   -0.543376   -0.955852   -0.130900
 step:   0.9907(harm=  1.0093)  dis= 0.07952  next Energy=  -414.625835 (dE=-0.571E+00)
 bond charge predicted
       N       E                     dE             d eps       ncg     rms          rms(c)
DAV:   1    -0.414625537698E+03   -0.87393E-02   -0.85559E-01 10728   0.240E+00    0.296E-01
RMM:   2    -0.414628475557E+03   -0.29379E-02   -0.22075E-02 12111   0.540E-01    0.365E-01
RMM:   3    -0.414628738193E+03   -0.26264E-03   -0.58335E-03 13701   0.214E-01    0.388E-01
RMM:   4    -0.414628425159E+03    0.31303E-03   -0.58242E-03 12985   0.208E-01    0.426E-01
RMM:   5    -0.414625976865E+03    0.24483E-02   -0.27868E-03 11595   0.195E-01    0.153E-01
RMM:   6    -0.414625824755E+03    0.15211E-03   -0.13895E-03 12310   0.119E-01    0.121E-01
RMM:   7    -0.414625764962E+03    0.59792E-04   -0.67347E-04 12450   0.778E-02    0.841E-02
RMM:   8    -0.414625644232E+03    0.12073E-03   -0.21410E-04 11880   0.487E-02    0.261E-02
RMM:   9    -0.414625645298E+03   -0.10664E-05   -0.10537E-04 13084   0.248E-02    0.198E-02
RMM:  10    -0.414625639206E+03    0.60924E-05   -0.30657E-05 10038   0.186E-02    0.100E-02
RMM:  11    -0.414625639674E+03   -0.46876E-06   -0.17961E-05  9867   0.847E-03    0.574E-03
RMM:  12    -0.414625640052E+03   -0.37761E-06   -0.45230E-06  7730   0.555E-03
  11 F= -.41462564E+03 E0= -.41463051E+03  d E =-.571019E+00
 curvature:  -0.63 expect dE=-0.151E+00 dE for cont linesearch -0.638E-05
 trial: gam= 0.14907 g(F)=  0.238E+00 g(S)=  0.000E+00 ort =-0.376E-02 (trialstep = 0.895E+00)
 search vector abs. value=  0.268E+00
 bond charge predicted
       N       E                     dE             d eps       ncg     rms          rms(c)
DAV:   1    -0.414748278868E+03   -0.12264E+00   -0.12338E+01 10332   0.885E+00    0.133E+00
RMM:   2    -0.414897062934E+03   -0.14878E+00   -0.49809E-01 12312   0.247E+00    0.298E+00
RMM:   3    -0.414789343775E+03    0.10772E+00   -0.88705E-02 12779   0.105E+00    0.146E+00
RMM:   4    -0.414786554974E+03    0.27888E-02   -0.95686E-02 13674   0.775E-01    0.147E+00
RMM:   5    -0.414768492424E+03    0.18063E-01   -0.55519E-02 12154   0.801E-01    0.880E-01
RMM:   6    -0.414757609347E+03    0.10883E-01   -0.23812E-02 12367   0.491E-01    0.436E-01
RMM:   7    -0.414759882980E+03   -0.22736E-02   -0.15166E-02 12339   0.404E-01    0.526E-01
RMM:   8    -0.414755788595E+03    0.40944E-02   -0.62611E-03 11217   0.312E-01    0.261E-01
RMM:   9    -0.414754949625E+03    0.83897E-03   -0.22086E-03 12474   0.153E-01    0.848E-02
RMM:  10    -0.414755070914E+03   -0.12129E-03   -0.13286E-03 13661   0.786E-02    0.920E-02
RMM:  11    -0.414754953712E+03    0.11720E-03   -0.36397E-04 12811   0.520E-02    0.422E-02
RMM:  12    -0.414754943057E+03    0.10655E-04   -0.17732E-04 12264   0.373E-02    0.238E-02
RMM:  13    -0.414754944745E+03   -0.16876E-05   -0.83861E-05 12966   0.187E-02    0.153E-02
RMM:  14    -0.414754946738E+03   -0.19936E-05   -0.33474E-05 11294   0.947E-03    0.100E-02
RMM:  15    -0.414754947051E+03   -0.31239E-06   -0.61334E-06  8274   0.699E-03
  12 F= -.41475495E+03 E0= -.41476061E+03  d E =-.129307E+00
 trial-energy change:   -0.129307  1 .order   -0.129883   -0.212729   -0.047037
 step:   1.1561(harm=  1.1491)  dis= 0.03926  next Energy=  -414.761794 (dE=-0.136E+00)
 bond charge predicted
       N       E                     dE             d eps       ncg     rms          rms(c)
DAV:   1    -0.414761342337E+03   -0.63956E-02   -0.10498E+00 10416   0.258E+00    0.377E-01
RMM:   2    -0.414770281179E+03   -0.89388E-02   -0.38170E-02 12247   0.689E-01    0.711E-01
RMM:   3    -0.414764964761E+03    0.53164E-02   -0.71190E-03 12815   0.294E-01    0.430E-01
RMM:   4    -0.414764573006E+03    0.39175E-03   -0.74141E-03 13847   0.210E-01    0.412E-01
RMM:   5    -0.414762952508E+03    0.16205E-02   -0.47397E-03 12149   0.234E-01    0.258E-01
RMM:   6    -0.414762040672E+03    0.91184E-03   -0.19367E-03 12356   0.141E-01    0.103E-01
RMM:   7    -0.414762195370E+03   -0.15470E-03   -0.10622E-03 12701   0.100E-01    0.128E-01
RMM:   8    -0.414761931876E+03    0.26349E-03   -0.42197E-04 11327   0.784E-02    0.691E-02
RMM:   9    -0.414761878146E+03    0.53730E-04   -0.16669E-04 12564   0.398E-02    0.203E-02
RMM:  10    -0.414761887863E+03   -0.97173E-05   -0.98209E-05 12940   0.209E-02    0.232E-02
RMM:  11    -0.414761880456E+03    0.74067E-05   -0.25345E-05 10315   0.133E-02    0.108E-02
RMM:  12    -0.414761880290E+03    0.16672E-06   -0.11522E-05  8344   0.994E-03    0.698E-03
RMM:  13    -0.414761880809E+03   -0.51920E-06   -0.46238E-06  7770   0.672E-03
  13 F= -.41476188E+03 E0= -.41476775E+03  d E =-.136241E+00
 curvature:  -0.65 expect dE=-0.719E-01 dE for cont linesearch -0.125E-06
 trial: gam= 0.45065 g(F)=  0.111E+00 g(S)=  0.000E+00 ort = 0.227E-03 (trialstep = 0.947E+00)
 search vector abs. value=  0.166E+00
 bond charge predicted
       N       E                     dE             d eps       ncg     rms          rms(c)
DAV:   1    -0.414827829538E+03   -0.65949E-01   -0.79551E+00 10332   0.716E+00    0.935E-01
RMM:   2    -0.414857530833E+03   -0.29701E-01   -0.19165E-01 11387   0.176E+00    0.124E+00
RMM:   3    -0.414862594109E+03   -0.50633E-02   -0.55312E-02 13420   0.731E-01    0.120E+00
RMM:   4    -0.414865494791E+03   -0.29007E-02   -0.52231E-02 13941   0.546E-01    0.127E+00
RMM:   5    -0.414839925407E+03    0.25569E-01   -0.26518E-02 11843   0.586E-01    0.405E-01
RMM:   6    -0.414840781138E+03   -0.85573E-03   -0.18876E-02 13303   0.332E-01    0.422E-01
RMM:   7    -0.414839568310E+03    0.12128E-02   -0.74756E-03 11388   0.318E-01    0.348E-01
RMM:   8    -0.414838019142E+03    0.15492E-02   -0.21819E-03 11850   0.171E-01    0.876E-02
RMM:   9    -0.414838011520E+03    0.76223E-05   -0.11047E-03 13962   0.659E-02    0.540E-02
RMM:  10    -0.414838003253E+03    0.82668E-05   -0.27188E-04 12399   0.498E-02    0.379E-02
RMM:  11    -0.414837989366E+03    0.13887E-04   -0.13052E-04 13172   0.255E-02    0.222E-02
RMM:  12    -0.414837991639E+03   -0.22731E-05   -0.50990E-05 10813   0.204E-02    0.216E-02
RMM:  13    -0.414837987093E+03    0.45466E-05   -0.19841E-05  9312   0.127E-02    0.753E-03
RMM:  14    -0.414837989847E+03   -0.27544E-05   -0.13658E-05  9137   0.754E-03    0.469E-03
RMM:  15    -0.414837990737E+03   -0.89013E-06   -0.21942E-06  7112   0.508E-03
  14 F= -.41483799E+03 E0= -.41484463E+03  d E =-.761099E-01
 trial-energy change:   -0.076110  1 .order   -0.075950   -0.105267   -0.046634
 step:   1.7006(harm=  1.7006)  dis= 0.04754  next Energy=  -414.856376 (dE=-0.945E-01)
 bond charge predicted
       N       E                     dE             d eps       ncg     rms          rms(c)
DAV:   1    -0.414849839120E+03   -0.11849E-01   -0.50248E+00 10332   0.569E+00    0.726E-01
RMM:   2    -0.414863823714E+03   -0.13985E-01   -0.11628E-01 11364   0.138E+00    0.821E-01
RMM:   3    -0.414872849887E+03   -0.90262E-02   -0.35769E-02 13331   0.598E-01    0.988E-01
RMM:   4    -0.414875144629E+03   -0.22947E-02   -0.30483E-02 14081   0.399E-01    0.101E+00
RMM:   5    -0.414857358660E+03    0.17786E-01   -0.16477E-02 11916   0.455E-01    0.308E-01
RMM:   6    -0.414858051680E+03   -0.69302E-03   -0.12109E-02 13422   0.255E-01    0.331E-01
RMM:   7    -0.414857284197E+03    0.76748E-03   -0.43293E-03 11369   0.241E-01    0.265E-01
RMM:   8    -0.414856372008E+03    0.91219E-03   -0.12578E-03 11845   0.130E-01    0.654E-02
RMM:   9    -0.414856381661E+03   -0.96527E-05   -0.68898E-04 14081   0.496E-02    0.436E-02
RMM:  10    -0.414856373164E+03    0.84971E-05   -0.15878E-04 12113   0.393E-02    0.302E-02
RMM:  11    -0.414856364846E+03    0.83175E-05   -0.80678E-05 12805   0.202E-02    0.184E-02
RMM:  12    -0.414856365447E+03   -0.60090E-06   -0.29708E-05  9942   0.161E-02    0.156E-02
RMM:  13    -0.414856363663E+03    0.17840E-05   -0.11689E-05  8275   0.100E-02    0.651E-03
RMM:  14    -0.414856366011E+03   -0.23476E-05   -0.80664E-06  8439   0.713E-03    0.422E-03
RMM:  15    -0.414856366891E+03   -0.88052E-06   -0.17069E-06  6760   0.463E-03
  15 F= -.41485637E+03 E0= -.41486344E+03  d E =-.944861E-01
 curvature:  -1.27 expect dE=-0.772E-01 dE for cont linesearch -0.411E-05
 trial: gam= 0.53881 g(F)=  0.609E-01 g(S)=  0.000E+00 ort =-0.733E-03 (trialstep = 0.110E+01)
 search vector abs. value=  0.108E+00
 bond charge predicted
       N       E                     dE             d eps       ncg     rms          rms(c)
DAV:   1    -0.414889448639E+03   -0.33083E-01   -0.64961E+00 10332   0.658E+00    0.733E-01
RMM:   2    -0.414910150217E+03   -0.20702E-01   -0.14829E-01 11192   0.162E+00    0.101E+00
RMM:   3    -0.414914914234E+03   -0.47640E-02   -0.48502E-02 13426   0.668E-01    0.916E-01
RMM:   4    -0.414911272492E+03    0.36417E-02   -0.29135E-02 13662   0.439E-01    0.927E-01
RMM:   5    -0.414899677832E+03    0.11595E-01   -0.16079E-02 11574   0.472E-01    0.308E-01
RMM:   6    -0.414900528870E+03   -0.85104E-03   -0.11037E-02 13516   0.231E-01    0.339E-01
RMM:   7    -0.414900044739E+03    0.48413E-03   -0.42474E-03 11266   0.233E-01    0.297E-01
RMM:   8    -0.414898864085E+03    0.11807E-02   -0.14332E-03 12013   0.134E-01    0.734E-02
RMM:   9    -0.414898848896E+03    0.15190E-04   -0.74825E-04 13846   0.592E-02    0.440E-02
RMM:  10    -0.414898844040E+03    0.48554E-05   -0.21937E-04 13560   0.326E-02    0.409E-02
RMM:  11    -0.414898827953E+03    0.16087E-04   -0.74637E-05 11415   0.290E-02    0.192E-02
RMM:  12    -0.414898827504E+03    0.44957E-06   -0.42305E-05 11492   0.148E-02    0.102E-02
RMM:  13    -0.414898829049E+03   -0.15455E-05   -0.17454E-05  9598   0.810E-03    0.476E-03
RMM:  14    -0.414898831233E+03   -0.21843E-05   -0.41195E-06  7768   0.560E-03    0.300E-03
RMM:  15    -0.414898833074E+03   -0.18408E-05   -0.12573E-06  6390   0.456E-03    0.220E-03
RMM:  16    -0.414898834824E+03   -0.17503E-05   -0.76289E-07  6092   0.357E-03    0.139E-03
RMM:  17    -0.414898836954E+03   -0.21297E-05   -0.49146E-07  6044   0.265E-03    0.101E-03
RMM:  18    -0.414898840194E+03   -0.32403E-05   -0.41024E-07  5995   0.236E-03    0.839E-04
RMM:  19    -0.414898842130E+03   -0.19352E-05   -0.29188E-07  5453   0.158E-03    0.466E-04
RMM:  20    -0.414898844766E+03   -0.26368E-05   -0.28020E-07  5202   0.161E-03    0.689E-04
RMM:  21    -0.414898846911E+03   -0.21447E-05   -0.26579E-07  5055   0.143E-03    0.346E-04
RMM:  22    -0.414898848696E+03   -0.17852E-05   -0.26176E-07  4882   0.141E-03    0.419E-04
RMM:  23    -0.414898849241E+03   -0.54513E-06   -0.15328E-07  4230   0.130E-03
  16 F= -.41489885E+03 E0= -.41490594E+03  d E =-.424824E-01
 trial-energy change:   -0.042482  1 .order   -0.042433   -0.066444   -0.018421
 step:   1.5191(harm=  1.5191)  dis= 0.03203  next Energy=  -414.902333 (dE=-0.460E-01)
 bond charge predicted
       N       E                     dE             d eps       ncg     rms          rms(c)
DAV:   1    -0.414901012195E+03   -0.21635E-02   -0.95524E-01 10332   0.252E+00    0.275E-01
RMM:   2    -0.414903622957E+03   -0.26108E-02   -0.21512E-02 11334   0.608E-01    0.352E-01
RMM:   3    -0.414904552240E+03   -0.92928E-03   -0.69759E-03 13254   0.263E-01    0.342E-01
RMM:   4    -0.414904517598E+03    0.34642E-04   -0.41426E-03 13938   0.154E-01    0.375E-01
RMM:   5    -0.414902476996E+03    0.20406E-02   -0.23715E-03 11655   0.179E-01    0.114E-01
RMM:   6    -0.414902568399E+03   -0.91402E-04   -0.16326E-03 13579   0.850E-02    0.119E-01
RMM:   7    -0.414902532172E+03    0.36226E-04   -0.59896E-04 11344   0.874E-02    0.113E-01
RMM:   8    -0.414902363890E+03    0.16828E-03   -0.19998E-04 11773   0.515E-02    0.258E-02
RMM:   9    -0.414902362375E+03    0.15147E-05   -0.95241E-05 12873   0.228E-02    0.146E-02
RMM:  10    -0.414902362889E+03   -0.51399E-06   -0.32372E-05 11166   0.114E-02    0.150E-02
RMM:  11    -0.414902361050E+03    0.18390E-05   -0.96187E-06  8067   0.103E-02    0.831E-03
RMM:  12    -0.414902360714E+03    0.33548E-06   -0.46087E-06  7663   0.739E-03
  17 F= -.41490236E+03 E0= -.41490943E+03  d E =-.459938E-01
 curvature:  -1.36 expect dE=-0.426E-01 dE for cont linesearch -0.532E-06
 trial: gam= 0.48393 g(F)=  0.314E-01 g(S)=  0.000E+00 ort =-0.206E-03 (trialstep = 0.118E+01)
 search vector abs. value=  0.565E-01
 bond charge predicted
       N       E                     dE             d eps       ncg     rms          rms(c)
DAV:   1    -0.414918428178E+03   -0.16067E-01   -0.37638E+00 10332   0.505E+00    0.650E-01
RMM:   2    -0.414935874028E+03   -0.17446E-01   -0.10719E-01 11525   0.131E+00    0.105E+00
RMM:   3    -0.414930079292E+03    0.57947E-02   -0.28377E-02 12420   0.632E-01    0.623E-01
RMM:   4    -0.414942475506E+03   -0.12396E-01   -0.21806E-02 14128   0.345E-01    0.105E+00
RMM:   5    -0.414924588884E+03    0.17887E-01   -0.10909E-02 11962   0.363E-01    0.291E-01
RMM:   6    -0.414924861038E+03   -0.27215E-03   -0.77534E-03 12408   0.266E-01    0.317E-01
RMM:   7    -0.414924116360E+03    0.74468E-03   -0.30928E-03 11857   0.201E-01    0.166E-01
RMM:   8    -0.414923735321E+03    0.38104E-03   -0.13739E-03 12730   0.106E-01    0.780E-02
RMM:   9    -0.414923642965E+03    0.92356E-04   -0.39151E-04 12944   0.545E-02    0.262E-02
RMM:  10    -0.414923657888E+03   -0.14923E-04   -0.23003E-04 14097   0.260E-02    0.251E-02
RMM:  11    -0.414923652130E+03    0.57579E-05   -0.54237E-05 11691   0.201E-02    0.151E-02
RMM:  12    -0.414923653100E+03   -0.96961E-06   -0.23083E-05  9300   0.899E-03    0.115E-02
RMM:  13    -0.414923652787E+03    0.31234E-06   -0.63729E-06  7731   0.890E-03
  18 F= -.41492365E+03 E0= -.41493054E+03  d E =-.212921E-01
 trial-energy change:   -0.021292  1 .order   -0.021279   -0.036958   -0.005600
 step:   1.3932(harm=  1.3932)  dis= 0.02773  next Energy=  -414.924140 (dE=-0.218E-01)
 bond charge predicted
       N       E                     dE             d eps       ncg     rms          rms(c)
DAV:   1    -0.414923995554E+03   -0.34245E-03   -0.11988E-01 10668   0.900E-01    0.116E-01
RMM:   2    -0.414924519914E+03   -0.52436E-03   -0.33275E-03 11406   0.234E-01    0.184E-01
RMM:   3    -0.414924306446E+03    0.21347E-03   -0.91377E-04 12253   0.116E-01    0.104E-01
RMM:   4    -0.414924874528E+03   -0.56808E-03   -0.64767E-04 14210   0.586E-02    0.190E-01
RMM:   5    -0.414924195503E+03    0.67903E-03   -0.32404E-04 12141   0.605E-02    0.539E-02
RMM:   6    -0.414924199068E+03   -0.35653E-05   -0.25312E-04 12267   0.490E-02    0.556E-02
RMM:   7    -0.414924178737E+03    0.20331E-04   -0.98827E-05 11741   0.352E-02    0.294E-02
RMM:   8    -0.414924167667E+03    0.11070E-04   -0.47220E-05 11452   0.183E-02    0.138E-02
RMM:   9    -0.414924164659E+03    0.30088E-05   -0.11418E-05  8357   0.980E-03    0.577E-03
RMM:  10    -0.414924165699E+03   -0.10405E-05   -0.67555E-06  8139   0.683E-03    0.604E-03
RMM:  11    -0.414924166071E+03   -0.37215E-06   -0.24822E-06  7045   0.623E-03
  19 F= -.41492417E+03 E0= -.41493101E+03  d E =-.218054E-01
 curvature:  -1.26 expect dE=-0.217E-01 dE for cont linesearch -0.163E-07
 trial: gam= 0.52385 g(F)=  0.172E-01 g(S)=  0.000E+00 ort = 0.271E-04 (trialstep = 0.122E+01)
 search vector abs. value=  0.327E-01
 bond charge predicted
       N       E                     dE             d eps       ncg     rms          rms(c)
DAV:   1    -0.414933649985E+03   -0.94843E-02   -0.27873E+00 10332   0.428E+00    0.486E-01
RMM:   2    -0.414948895602E+03   -0.15246E-01   -0.67642E-02 10917   0.114E+00    0.902E-01
RMM:   3    -0.414942110595E+03    0.67850E-02   -0.20602E-02 13254   0.483E-01    0.498E-01
RMM:   4    -0.414943614048E+03   -0.15035E-02   -0.12140E-02 13698   0.267E-01    0.659E-01
RMM:   5    -0.414937827355E+03    0.57867E-02   -0.50190E-03 11846   0.249E-01    0.203E-01
RMM:   6    -0.414937994087E+03   -0.16673E-03   -0.37447E-03 12143   0.214E-01    0.210E-01
RMM:   7    -0.414937644404E+03    0.34968E-03   -0.17510E-03 11099   0.167E-01    0.129E-01
RMM:   8    -0.414937462382E+03    0.18202E-03   -0.69137E-04 12286   0.758E-02    0.608E-02
RMM:   9    -0.414937412380E+03    0.50002E-04   -0.29436E-04 13248   0.386E-02    0.203E-02
RMM:  10    -0.414937419353E+03   -0.69730E-05   -0.11013E-04 13604   0.194E-02    0.239E-02
RMM:  11    -0.414937414319E+03    0.50341E-05   -0.31758E-05 10765   0.160E-02    0.147E-02
RMM:  12    -0.414937414094E+03    0.22537E-06   -0.14583E-05  8533   0.113E-02    0.115E-02
RMM:  13    -0.414937413422E+03    0.67225E-06   -0.59893E-06  7670   0.916E-03
  20 F= -.41493741E+03 E0= -.41494428E+03  d E =-.132474E-01
 trial-energy change:   -0.013247  1 .order   -0.013209   -0.021072   -0.005346
 step:   1.6325(harm=  1.6405)  dis= 0.01529  next Energy=  -414.938306 (dE=-0.141E-01)
 bond charge predicted
       N       E                     dE             d eps       ncg     rms          rms(c)
DAV:   1    -0.414937909508E+03   -0.49541E-03   -0.30990E-01 10368   0.143E+00    0.161E-01
RMM:   2    -0.414939522515E+03   -0.16130E-02   -0.74897E-03 10882   0.379E-01    0.293E-01
RMM:   3    -0.414938837394E+03    0.68512E-03   -0.23148E-03 13219   0.163E-01    0.163E-01
RMM:   4    -0.414939031323E+03   -0.19393E-03   -0.12966E-03 13743   0.859E-02    0.217E-01
RMM:   5    -0.414938381660E+03    0.64966E-03   -0.54405E-04 11866   0.817E-02    0.686E-02
RMM:   6    -0.414938405387E+03   -0.23727E-04   -0.43283E-04 11928   0.742E-02    0.749E-02
RMM:   7    -0.414938361584E+03    0.43803E-04   -0.19066E-04 11162   0.549E-02    0.417E-02
RMM:   8    -0.414938342641E+03    0.18943E-04   -0.84150E-05 12118   0.254E-02    0.204E-02
RMM:   9    -0.414938336541E+03    0.61003E-05   -0.30864E-05 10440   0.133E-02    0.624E-03
RMM:  10    -0.414938337795E+03   -0.12539E-05   -0.12494E-05  9324   0.692E-03    0.671E-03
RMM:  11    -0.414938337932E+03   -0.13752E-06   -0.29627E-06  7101   0.671E-03
  21 F= -.41493834E+03 E0= -.41494520E+03  d E =-.141719E-01
 curvature:  -1.56 expect dE=-0.147E-01 dE for cont linesearch -0.208E-06
 trial: gam= 0.52290 g(F)=  0.943E-02 g(S)=  0.000E+00 ort = 0.661E-04 (trialstep = 0.131E+01)
 search vector abs. value=  0.184E-01
 bond charge predicted
       N       E                     dE             d eps       ncg     rms          rms(c)
DAV:   1    -0.414944279858E+03   -0.59421E-02   -0.16888E+00 10332   0.336E+00    0.409E-01
RMM:   2    -0.414957197821E+03   -0.12918E-01   -0.43593E-02 10713   0.931E-01    0.816E-01
RMM:   3    -0.414949351475E+03    0.78463E-02   -0.12043E-02 13325   0.370E-01    0.402E-01
RMM:   4    -0.414949583050E+03   -0.23158E-03   -0.94531E-03 13475   0.247E-01    0.454E-01
RMM:   5    -0.414946514174E+03    0.30689E-02   -0.38372E-03 11623   0.231E-01    0.188E-01
RMM:   6    -0.414947210394E+03   -0.69622E-03   -0.31530E-03 12199   0.180E-01    0.287E-01
RMM:   7    -0.414946441450E+03    0.76894E-03   -0.13864E-03 10911   0.147E-01    0.121E-01
RMM:   8    -0.414946211919E+03    0.22953E-03   -0.41836E-04 12066   0.693E-02    0.424E-02
RMM:   9    -0.414946207839E+03    0.40792E-05   -0.22791E-04 13796   0.295E-02    0.263E-02
RMM:  10    -0.414946206822E+03    0.10177E-05   -0.62754E-05 12390   0.195E-02    0.228E-02
RMM:  11    -0.414946202410E+03    0.44118E-05   -0.23297E-05 10146   0.153E-02    0.108E-02
RMM:  12    -0.414946203350E+03   -0.94037E-06   -0.12294E-05  8697   0.955E-03    0.744E-03
RMM:  13    -0.414946203062E+03    0.28859E-06   -0.58825E-06  7844   0.748E-03
  22 F= -.41494620E+03 E0= -.41495303E+03  d E =-.786513E-02
 trial-energy change:   -0.007865  1 .order   -0.007857   -0.012361   -0.003354
 step:   1.7922(harm=  1.7922)  dis= 0.01189  next Energy=  -414.946820 (dE=-0.848E-02)
 bond charge predicted
       N       E                     dE             d eps       ncg     rms          rms(c)
DAV:   1    -0.414946562921E+03   -0.35957E-03   -0.23428E-01 10380   0.125E+00    0.152E-01
RMM:   2    -0.414948262664E+03   -0.16997E-02   -0.60309E-03 10736   0.345E-01    0.294E-01
RMM:   3    -0.414947281312E+03    0.98135E-03   -0.16889E-03 13363   0.138E-01    0.151E-01
RMM:   4    -0.414947304948E+03   -0.23636E-04   -0.13190E-03 13507   0.919E-02    0.170E-01
RMM:   5    -0.414946871954E+03    0.43299E-03   -0.53430E-04 11592   0.865E-02    0.693E-02
RMM:   6    -0.414946967626E+03   -0.95672E-04   -0.44689E-04 12219   0.673E-02    0.105E-01
RMM:   7    -0.414946864755E+03    0.10287E-03   -0.19083E-04 10876   0.548E-02    0.466E-02
RMM:   8    -0.414946832487E+03    0.32268E-04   -0.59701E-05 11678   0.272E-02    0.157E-02
RMM:   9    -0.414946832347E+03    0.13989E-06   -0.33523E-05 10792   0.111E-02    0.962E-03
RMM:  10    -0.414946832507E+03   -0.16044E-06   -0.82048E-06  7971   0.835E-03
  23 F= -.41494683E+03 E0= -.41495364E+03  d E =-.849458E-02
 curvature:  -1.75 expect dE=-0.115E-01 dE for cont linesearch -0.134E-07
 trial: gam= 0.71288 g(F)=  0.661E-02 g(S)=  0.000E+00 ort =-0.119E-04 (trialstep = 0.140E+01)
 search vector abs. value=  0.160E-01
 bond charge predicted
       N       E                     dE             d eps       ncg     rms          rms(c)
DAV:   1    -0.414951071060E+03   -0.42387E-02   -0.16778E+00 10332   0.335E+00    0.393E-01
RMM:   2    -0.414957281026E+03   -0.62100E-02   -0.37043E-02 10565   0.899E-01    0.618E-01
RMM:   3    -0.414956184373E+03    0.10967E-02   -0.11900E-02 13113   0.387E-01    0.440E-01
RMM:   4    -0.414956939825E+03   -0.75545E-03   -0.74820E-03 14017   0.197E-01    0.478E-01
RMM:   5    -0.414952682095E+03    0.42577E-02   -0.35384E-03 11780   0.209E-01    0.190E-01
RMM:   6    -0.414953148185E+03   -0.46609E-03   -0.27481E-03 11941   0.174E-01    0.262E-01
RMM:   7    -0.414952634280E+03    0.51391E-03   -0.13690E-03 11674   0.132E-01    0.115E-01
RMM:   8    -0.414952401423E+03    0.23286E-03   -0.45800E-04 12330   0.679E-02    0.480E-02
RMM:   9    -0.414952397318E+03    0.41047E-05   -0.21848E-04 13199   0.342E-02    0.333E-02
RMM:  10    -0.414952390283E+03    0.70352E-05   -0.78869E-05 13178   0.201E-02    0.192E-02
RMM:  11    -0.414952389940E+03    0.34274E-06   -0.33448E-05 11802   0.120E-02    0.903E-03
RMM:  12    -0.414952388665E+03    0.12751E-05   -0.90974E-06  8403   0.678E-03    0.698E-03
RMM:  13    -0.414952388862E+03   -0.19673E-06   -0.47290E-06  7545   0.857E-03
  24 F= -.41495239E+03 E0= -.41495903E+03  d E =-.555635E-02
 trial-energy change:   -0.005556  1 .order   -0.005601   -0.009259   -0.001944
 step:   1.7946(harm=  1.7761)  dis= 0.01245  next Energy=  -414.952659 (dE=-0.583E-02)
 bond charge predicted
       N       E                     dE             d eps       ncg     rms          rms(c)
DAV:   1    -0.414952545040E+03   -0.15638E-03   -0.13044E-01 10488   0.933E-01    0.110E-01
RMM:   2    -0.414953009270E+03   -0.46423E-03   -0.28775E-03 10611   0.249E-01    0.168E-01
RMM:   3    -0.414952961562E+03    0.47709E-04   -0.94998E-04 13135   0.108E-01    0.125E-01
RMM:   4    -0.414953011072E+03   -0.49510E-04   -0.58846E-04 14013   0.540E-02    0.135E-01
RMM:   5    -0.414952667367E+03    0.34371E-03   -0.27665E-04 11727   0.589E-02    0.511E-02
RMM:   6    -0.414952709369E+03   -0.42002E-04   -0.21984E-04 12144   0.471E-02    0.740E-02
RMM:   7    -0.414952665288E+03    0.44081E-04   -0.10317E-04 11480   0.371E-02    0.314E-02
RMM:   8    -0.414952649649E+03    0.15639E-04   -0.35498E-05 11479   0.185E-02    0.141E-02
RMM:   9    -0.414952649265E+03    0.38395E-06   -0.15664E-05  8959   0.981E-03    0.934E-03
RMM:  10    -0.414952649099E+03    0.16627E-06   -0.54180E-06  7706   0.737E-03
  25 F= -.41495265E+03 E0= -.41495925E+03  d E =-.581659E-02
 curvature:  -2.14 expect dE=-0.957E-02 dE for cont linesearch -0.493E-06
 trial: gam= 0.68404 g(F)=  0.447E-02 g(S)=  0.000E+00 ort =-0.606E-04 (trialstep = 0.148E+01)
 search vector abs. value=  0.119E-01
 bond charge predicted
       N       E                     dE             d eps       ncg     rms          rms(c)
DAV:   1    -0.414955130773E+03   -0.24815E-02   -0.14503E+00 10332   0.308E+00    0.354E-01
RMM:   2    -0.414959648044E+03   -0.45173E-02   -0.30769E-02 10521   0.823E-01    0.523E-01
RMM:   3    -0.414958416468E+03    0.12316E-02   -0.10453E-02 13011   0.365E-01    0.350E-01
RMM:   4    -0.414961759910E+03   -0.33434E-02   -0.55530E-03 13819   0.189E-01    0.494E-01
RMM:   5    -0.414957169332E+03    0.45906E-02   -0.22834E-03 12203   0.158E-01    0.191E-01
RMM:   6    -0.414957088571E+03    0.80761E-04   -0.24573E-03 12232   0.155E-01    0.191E-01
RMM:   7    -0.414956918339E+03    0.17023E-03   -0.12350E-03 11438   0.129E-01    0.135E-01
RMM:   8    -0.414956699276E+03    0.21906E-03   -0.42843E-04 11137   0.803E-02    0.529E-02
RMM:   9    -0.414956676555E+03    0.22721E-04   -0.16653E-04 12320   0.416E-02    0.302E-02
RMM:  10    -0.414956679683E+03   -0.31278E-05   -0.99518E-05 12913   0.231E-02    0.279E-02
RMM:  11    -0.414956674134E+03    0.55488E-05   -0.44230E-05 10667   0.192E-02    0.130E-02
RMM:  12    -0.414956673875E+03    0.25944E-06   -0.16626E-05  8987   0.789E-03    0.683E-03
RMM:  13    -0.414956673562E+03    0.31284E-06   -0.49565E-06  7749   0.625E-03
  26 F= -.41495667E+03 E0= -.41496315E+03  d E =-.402446E-02
 trial-energy change:   -0.004024  1 .order   -0.004053   -0.006555   -0.001551
 step:   1.9620(harm=  1.9405)  dis= 0.00962  next Energy=  -414.956924 (dE=-0.427E-02)
 bond charge predicted
       N       E                     dE             d eps       ncg     rms          rms(c)
DAV:   1    -0.414956746478E+03   -0.72603E-04   -0.15254E-01 10368   0.999E-01    0.115E-01
RMM:   2    -0.414957211864E+03   -0.46539E-03   -0.32484E-03 10530   0.266E-01    0.168E-01
RMM:   3    -0.414957084799E+03    0.12706E-03   -0.11170E-03 12971   0.119E-01    0.113E-01
RMM:   4    -0.414957402606E+03   -0.31781E-03   -0.55776E-04 13705   0.618E-02    0.153E-01
RMM:   5    -0.414956965833E+03    0.43677E-03   -0.22367E-04 12247   0.492E-02    0.637E-02
RMM:   6    -0.414956951221E+03    0.14612E-04   -0.25715E-04 12256   0.497E-02    0.618E-02
RMM:   7    -0.414956932836E+03    0.18385E-04   -0.12932E-04 11394   0.417E-02    0.438E-02
RMM:   8    -0.414956910495E+03    0.22341E-04   -0.45957E-05 10806   0.263E-02    0.177E-02
RMM:   9    -0.414956908312E+03    0.21826E-05   -0.16995E-05  9284   0.136E-02    0.986E-03
RMM:  10    -0.414956909084E+03   -0.77177E-06   -0.10072E-05  8357   0.833E-03    0.936E-03
RMM:  11    -0.414956909092E+03   -0.83783E-08   -0.47993E-06  7605   0.808E-03
  27 F= -.41495691E+03 E0= -.41496334E+03  d E =-.425999E-02
 curvature:  -2.59 expect dE=-0.992E-02 dE for cont linesearch -0.731E-06
 trial: gam= 0.85236 g(F)=  0.382E-02 g(S)=  0.000E+00 ort =-0.578E-04 (trialstep = 0.152E+01)
 search vector abs. value=  0.123E-01
 bond charge predicted
       N       E                     dE             d eps       ncg     rms          rms(c)
DAV:   1    -0.414957984499E+03   -0.10754E-02   -0.16610E+00 10332   0.325E+00    0.349E-01
RMM:   2    -0.414962273467E+03   -0.42890E-02   -0.33380E-02 10535   0.859E-01    0.508E-01
RMM:   3    -0.414961475910E+03    0.79756E-03   -0.11630E-02 13249   0.362E-01    0.355E-01
RMM:   4    -0.414963701529E+03   -0.22256E-02   -0.52919E-03 13769   0.188E-01    0.439E-01
RMM:   5    -0.414960350826E+03    0.33507E-02   -0.22949E-03 12401   0.154E-01    0.218E-01
RMM:   6    -0.414960190835E+03    0.15999E-03   -0.27039E-03 11734   0.178E-01    0.222E-01
RMM:   7    -0.414959994284E+03    0.19655E-03   -0.15524E-03 11776   0.134E-01    0.154E-01
RMM:   8    -0.414959707227E+03    0.28706E-03   -0.60747E-04 10855   0.961E-02    0.627E-02
RMM:   9    -0.414959673197E+03    0.34030E-04   -0.20957E-04 12459   0.462E-02    0.370E-02
RMM:  10    -0.414959671925E+03    0.12718E-05   -0.12791E-04 12859   0.265E-02    0.292E-02
RMM:  11    -0.414959664691E+03    0.72340E-05   -0.49572E-05 11298   0.197E-02    0.121E-02
RMM:  12    -0.414959665817E+03   -0.11260E-05   -0.22224E-05  9338   0.789E-03    0.796E-03
RMM:  13    -0.414959665239E+03    0.57857E-06   -0.54770E-06  7758   0.736E-03
  28 F= -.41495967E+03 E0= -.41496594E+03  d E =-.275615E-02
 trial-energy change:   -0.002756  1 .order   -0.002790   -0.005721    0.000141
 step:   1.4780(harm=  1.4793)  dis= 0.00905  next Energy=  -414.959667 (dE=-0.276E-02)
 bond charge predicted
       N       E                     dE             d eps       ncg     rms          rms(c)
DAV:   1    -0.414959667315E+03   -0.14981E-05   -0.10313E-03 11904   0.810E-02    0.896E-03
RMM:   2    -0.414959671516E+03   -0.42005E-05   -0.19575E-05 10722   0.193E-02    0.117E-02
RMM:   3    -0.414959671949E+03   -0.43351E-06   -0.51391E-06  8132   0.809E-03    0.113E-02
RMM:   4    -0.414959671830E+03    0.11920E-06   -0.38044E-06  7377   0.723E-03    0.101E-02
RMM:   5    -0.414959671701E+03    0.12876E-06   -0.21980E-06  6758   0.681E-03
  29 F= -.41495967E+03 E0= -.41496594E+03  d E =-.276261E-02
 curvature:  -2.41 expect dE=-0.480E-02 dE for cont linesearch -0.230E-07
 trial: gam= 0.51383 g(F)=  0.199E-02 g(S)=  0.000E+00 ort = 0.108E-04 (trialstep = 0.151E+01)
 search vector abs. value=  0.526E-02
 bond charge predicted
       N       E                     dE             d eps       ncg     rms          rms(c)
DAV:   1    -0.414960745988E+03   -0.10742E-02   -0.81747E-01 10332   0.224E+00    0.221E-01
RMM:   2    -0.414962297588E+03   -0.15516E-02   -0.13917E-02 10617   0.550E-01    0.295E-01
RMM:   3    -0.414961997751E+03    0.29984E-03   -0.49149E-03 13256   0.237E-01    0.203E-01
RMM:   4    -0.414961906226E+03    0.91525E-04   -0.15781E-03 12839   0.123E-01    0.168E-01
RMM:   5    -0.414962126291E+03   -0.22006E-03   -0.10521E-03 12055   0.109E-01    0.167E-01
RMM:   6    -0.414961913709E+03    0.21258E-03   -0.10107E-03 13879   0.659E-02    0.165E-01
RMM:   7    -0.414961645907E+03    0.26780E-03   -0.55007E-04 11509   0.832E-02    0.102E-01
RMM:   8    -0.414961538196E+03    0.10771E-03   -0.29421E-04 11262   0.602E-02    0.450E-02
RMM:   9    -0.414961519496E+03    0.18699E-04   -0.10083E-04 12340   0.322E-02    0.209E-02
RMM:  10    -0.414961522698E+03   -0.32019E-05   -0.57000E-05 11705   0.172E-02    0.203E-02
RMM:  11    -0.414961518036E+03    0.46620E-05   -0.14369E-05  8561   0.106E-02    0.594E-03
RMM:  12    -0.414961518880E+03   -0.84419E-06   -0.69664E-06  8133   0.512E-03
  30 F= -.41496152E+03 E0= -.41496763E+03  d E =-.184718E-02
 trial-energy change:   -0.001847  1 .order   -0.001859   -0.003005   -0.000714
 step:   1.9988(harm=  1.9781)  dis= 0.00839  next Energy=  -414.961635 (dE=-0.196E-02)
 bond charge predicted
       N       E                     dE             d eps       ncg     rms          rms(c)
DAV:   1    -0.414961549850E+03   -0.31814E-04   -0.86496E-02 10344   0.728E-01    0.722E-02
RMM:   2    -0.414961705984E+03   -0.15613E-03   -0.14523E-03 10740   0.174E-01    0.920E-02
RMM:   3    -0.414961686300E+03    0.19684E-04   -0.51884E-04 13225   0.772E-02    0.682E-02
RMM:   4    -0.414961681481E+03    0.48188E-05   -0.17186E-04 12779   0.410E-02    0.571E-02
RMM:   5    -0.414961703017E+03   -0.21536E-04   -0.10869E-04 12366   0.326E-02    0.566E-02
RMM:   6    -0.414961660899E+03    0.42118E-04   -0.10668E-04 13477   0.234E-02    0.479E-02
RMM:   7    -0.414961643336E+03    0.17563E-04   -0.57179E-05 11044   0.273E-02    0.318E-02
RMM:   8    -0.414961633678E+03    0.96582E-05   -0.30422E-05 10118   0.185E-02    0.156E-02
RMM:   9    -0.414961631127E+03    0.25513E-05   -0.82379E-06  7987   0.109E-02    0.638E-03
RMM:  10    -0.414961631780E+03   -0.65339E-06   -0.51292E-06  7672   0.683E-03
  31 F= -.41496163E+03 E0= -.41496768E+03  d E =-.196008E-02
 curvature:  -2.60 expect dE=-0.352E-02 dE for cont linesearch -0.126E-06
 trial: gam= 0.68527 g(F)=  0.135E-02 g(S)=  0.000E+00 ort =-0.160E-04 (trialstep = 0.161E+01)
 search vector abs. value=  0.380E-02
 bond charge predicted
       N       E                     dE             d eps       ncg     rms          rms(c)
DAV:   1    -0.414962032212E+03   -0.40109E-03   -0.65404E-01 10332   0.202E+00    0.190E-01
RMM:   2    -0.414963016546E+03   -0.98433E-03   -0.10592E-02 10666   0.472E-01    0.198E-01
RMM:   3    -0.414963426214E+03   -0.40967E-03   -0.39273E-03 13479   0.204E-01    0.216E-01
RMM:   4    -0.414963579337E+03   -0.15312E-03   -0.15663E-03 13405   0.106E-01    0.224E-01
RMM:   5    -0.414962941296E+03    0.63804E-03   -0.63015E-04 12575   0.747E-02    0.111E-01
RMM:   6    -0.414962912740E+03    0.28557E-04   -0.66235E-04 11812   0.859E-02    0.109E-01
RMM:   7    -0.414962834501E+03    0.78239E-04   -0.39178E-04 12357   0.591E-02    0.656E-02
RMM:   8    -0.414962757929E+03    0.76572E-04   -0.13133E-04 11932   0.380E-02    0.192E-02
RMM:   9    -0.414962761261E+03   -0.33321E-05   -0.72432E-05 12685   0.188E-02    0.186E-02
RMM:  10    -0.414962759475E+03    0.17859E-05   -0.23259E-05  9533   0.144E-02    0.132E-02
RMM:  11    -0.414962758580E+03    0.89485E-06   -0.12709E-05  8565   0.905E-03    0.685E-03
RMM:  12    -0.414962758596E+03   -0.15065E-07   -0.35218E-06  7454   0.632E-03
  32 F= -.41496276E+03 E0= -.41496871E+03  d E =-.112682E-02
 trial-energy change:   -0.001127  1 .order   -0.001126   -0.002152   -0.000100
 step:   1.6847(harm=  1.6847)  dis= 0.00827  next Energy=  -414.962760 (dE=-0.113E-02)
 bond charge predicted
       N       E                     dE             d eps       ncg     rms          rms(c)
DAV:   1    -0.414962759677E+03   -0.10968E-05   -0.15601E-03 11760   0.987E-02    0.102E-02
RMM:   2    -0.414962762363E+03   -0.26862E-05   -0.28085E-05 10705   0.237E-02    0.897E-03
RMM:   3    -0.414962764216E+03   -0.18525E-05   -0.99978E-06  9403   0.109E-02    0.119E-02
RMM:   4    -0.414962763882E+03    0.33351E-06   -0.36122E-06  7163   0.740E-03    0.974E-03
RMM:   5    -0.414962762934E+03    0.94833E-06   -0.16403E-06  6636   0.532E-03
  33 F= -.41496276E+03 E0= -.41496870E+03  d E =-.113115E-02
 curvature:  -2.39 expect dE=-0.188E-02 dE for cont linesearch -0.289E-07
 trial: gam= 0.54236 g(F)=  0.787E-03 g(S)=  0.000E+00 ort = 0.678E-05 (trialstep = 0.162E+01)
 search vector abs. value=  0.191E-02
 bond charge predicted
       N       E                     dE             d eps       ncg     rms          rms(c)
DAV:   1    -0.414963038699E+03   -0.27482E-03   -0.34688E-01 10332   0.146E+00    0.130E-01
RMM:   2    -0.414963644142E+03   -0.60544E-03   -0.55875E-03 11130   0.321E-01    0.154E-01
RMM:   3    -0.414963629224E+03    0.14918E-04   -0.17113E-03 13607   0.130E-01    0.128E-01
RMM:   4    -0.414964054115E+03   -0.42489E-03   -0.97685E-04 13630   0.779E-02    0.206E-01
RMM:   5    -0.414963503779E+03    0.55034E-03   -0.42810E-04 11989   0.696E-02    0.893E-02
RMM:   6    -0.414963417702E+03    0.86077E-04   -0.26851E-04 11602   0.566E-02    0.572E-02
RMM:   7    -0.414963424972E+03   -0.72693E-05   -0.22268E-04 12950   0.381E-02    0.470E-02
RMM:   8    -0.414963381772E+03    0.43200E-04   -0.67367E-05 12657   0.235E-02    0.127E-02
RMM:   9    -0.414963380779E+03    0.99276E-06   -0.23699E-05 10389   0.995E-03    0.573E-03
RMM:  10    -0.414963381667E+03   -0.88795E-06   -0.66720E-06  7831   0.827E-03
  34 F= -.41496338E+03 E0= -.41496928E+03  d E =-.618733E-03
 trial-energy change:   -0.000619  1 .order   -0.000604   -0.001283    0.000076
 step:   1.5371(harm=  1.5317)  dis= 0.00582  next Energy=  -414.963384 (dE=-0.621E-03)
 bond charge predicted
       N       E                     dE             d eps       ncg     rms          rms(c)
DAV:   1    -0.414963381855E+03   -0.10759E-05   -0.94349E-04 11160   0.771E-02    0.734E-03
RMM:   2    -0.414963386078E+03   -0.42223E-05   -0.20350E-05 11007   0.179E-02    0.142E-02
RMM:   3    -0.414963384253E+03    0.18250E-05   -0.38103E-06  7246   0.834E-03    0.776E-03
RMM:   4    -0.414963384473E+03   -0.22027E-06   -0.29135E-06  7024   0.570E-03    0.894E-03
RMM:   5    -0.414963383784E+03    0.68927E-06   -0.13653E-06  6345   0.593E-03
  35 F= -.41496338E+03 E0= -.41496929E+03  d E =-.620849E-03
 curvature:  -1.84 expect dE=-0.968E-03 dE for cont linesearch -0.155E-06
 trial: gam= 0.65448 g(F)=  0.525E-03 g(S)=  0.000E+00 ort = 0.127E-04 (trialstep = 0.161E+01)
 search vector abs. value=  0.136E-02
 bond charge predicted
       N       E                     dE             d eps       ncg     rms          rms(c)
DAV:   1    -0.414963612231E+03   -0.22776E-03   -0.24391E-01 10332   0.121E+00    0.105E-01
RMM:   2    -0.414964130742E+03   -0.51851E-03   -0.40983E-03 11228   0.267E-01    0.170E-01
RMM:   3    -0.414964138198E+03   -0.74554E-05   -0.12765E-03 13432   0.109E-01    0.123E-01
RMM:   4    -0.414964159133E+03   -0.20935E-04   -0.55239E-04 14142   0.488E-02    0.104E-01
RMM:   5    -0.414963906727E+03    0.25241E-03   -0.28610E-04 12251   0.552E-02    0.545E-02
RMM:   6    -0.414963904937E+03    0.17899E-05   -0.16231E-04 11650   0.443E-02    0.585E-02
RMM:   7    -0.414963889437E+03    0.15500E-04   -0.98594E-05 11920   0.328E-02    0.349E-02
RMM:   8    -0.414963874917E+03    0.14519E-04   -0.50701E-05 12129   0.173E-02    0.134E-02
RMM:   9    -0.414963871418E+03    0.34999E-05   -0.13573E-05  8906   0.107E-02    0.676E-03
RMM:  10    -0.414963871753E+03   -0.33595E-06   -0.61028E-06  7719   0.777E-03
  36 F= -.41496387E+03 E0= -.41496971E+03  d E =-.487970E-03
 trial-energy change:   -0.000488  1 .order   -0.000484   -0.000856   -0.000112
 step:   1.8380(harm=  1.8469)  dis= 0.00489  next Energy=  -414.963880 (dE=-0.496E-03)
 bond charge predicted
       N       E                     dE             d eps       ncg     rms          rms(c)
DAV:   1    -0.414963875036E+03   -0.36181E-05   -0.51493E-03 10488   0.177E-01    0.169E-02
RMM:   2    -0.414963890726E+03   -0.15691E-04   -0.10624E-04 11507   0.409E-02    0.303E-02
RMM:   3    -0.414963888974E+03    0.17527E-05   -0.30595E-05 11634   0.180E-02    0.191E-02
RMM:   4    -0.414963888571E+03    0.40298E-06   -0.14768E-05  9829   0.793E-03    0.158E-02
RMM:   5    -0.414963883081E+03    0.54895E-05   -0.63590E-06  7599   0.977E-03    0.908E-03
RMM:   6    -0.414963883160E+03   -0.79379E-07   -0.44463E-06  7478   0.947E-03
  37 F= -.41496388E+03 E0= -.41496972E+03  d E =-.499377E-03
 curvature:  -2.35 expect dE=-0.775E-03 dE for cont linesearch -0.136E-06
 trial: gam= 0.55997 g(F)=  0.329E-03 g(S)=  0.000E+00 ort = 0.885E-05 (trialstep = 0.165E+01)
 search vector abs. value=  0.766E-03
 bond charge predicted
       N       E                     dE             d eps       ncg     rms          rms(c)
DAV:   1    -0.414964005501E+03   -0.12242E-03   -0.13567E-01 10332   0.920E-01    0.872E-02
RMM:   2    -0.414964629299E+03   -0.62380E-03   -0.26366E-03 11466   0.210E-01    0.190E-01
RMM:   3    -0.414964294148E+03    0.33515E-03   -0.76581E-04 13610   0.816E-02    0.790E-02
RMM:   4    -0.414964308608E+03   -0.14461E-04   -0.37999E-04 12881   0.563E-02    0.904E-02
RMM:   5    -0.414964167491E+03    0.14112E-03   -0.17151E-04 12069   0.450E-02    0.226E-02
RMM:   6    -0.414964195988E+03   -0.28498E-04   -0.12164E-04 13609   0.258E-02    0.409E-02
RMM:   7    -0.414964167450E+03    0.28538E-04   -0.42992E-05 10764   0.234E-02    0.184E-02
RMM:   8    -0.414964165484E+03    0.19663E-05   -0.24607E-05 10247   0.118E-02    0.935E-03
RMM:   9    -0.414964165178E+03    0.30639E-06   -0.70844E-06  7934   0.770E-03
  38 F= -.41496417E+03 E0= -.41496995E+03  d E =-.282017E-03
 trial-energy change:   -0.000282  1 .order   -0.000272   -0.000552    0.000009
 step:   1.6283(harm=  1.6257)  dis= 0.00282  next Energy=  -414.964165 (dE=-0.282E-03)
 reached required accuracy - stopping structural energy minimisation
 augmentation electrons   21.123989407903359     
 soft         electrons   175.93608720173819     
 augmentation electrons   21.123989407903359     
 soft         electrons   175.93608720173819     
 augmentation electrons   21.123989407903359     
 augmentation electrons   21.123989407903359     
 soft         electrons   175.93608720173819     
 augmentation electrons   21.123989407903359     
 soft         electrons   175.93608720173819     
 augmentation electrons   21.123989407903359     
 soft         electrons   175.93608720173819     
 augmentation electrons   21.123989407903359     
 soft         electrons   175.93608720173819     
 augmentation electrons   21.123989407903359     
 soft         electrons   175.93608720173819     
 augmentation electrons   21.123989407903359     
 soft         electrons   175.93608720173819     
 augmentation electrons   21.123989407903359     
 soft         electrons   175.93608720173819     
 augmentation electrons   21.123989407903359     
 soft         electrons   175.93608720173819     
 augmentation electrons   21.123989407903359     
 soft         electrons   175.93608720173819     
 augmentation electrons   21.123989407903359     
 soft         electrons   175.93608720173819     
 augmentation electrons   21.123989407903359     
 soft         electrons   175.93608720173819     
 augmentation electrons   21.123989407903359     
 soft         electrons   175.93608720173819     
 augmentation electrons   21.123989407903359     
 soft         electrons   175.93608720173819     
 augmentation electrons   21.123989407903359     
 soft         electrons   175.93608720173819     
 augmentation electrons   21.123989407903359     
 soft         electrons   175.93608720173819     
 augmentation electrons   21.123989407903359     
 soft         electrons   175.93608720173819     
 augmentation electrons   21.123989407903359     
 soft         electrons   175.93608720173819     
 augmentation electrons   21.123989407903359     
 soft         electrons   175.93608720173819     
 augmentation electrons   21.123989407903359     
 soft         electrons   175.93608720173819     
 augmentation electrons   21.123989407903359     
 soft         electrons   175.93608720173819     
 augmentation electrons   21.123989407903359     
 soft         electrons   175.93608720173819     
 augmentation electrons   21.123989407903359     
 soft         electrons   175.93608720173819     
 augmentation electrons   21.123989407903359     
 soft         electrons   175.93608720173819     
 augmentation electrons   21.123989407903359     
 soft         electrons   175.93608720173819     
 augmentation electrons   21.123989407903359     
 soft         electrons   175.93608720173819     
 augmentation electrons   21.123989407903359     
 soft         electrons   175.93608720173819     
 augmentation electrons   21.123989407903359     
 soft         electrons   175.93608720173819     
 augmentation electrons   21.123989407903359     
 soft         electrons   175.93608720173819     
 augmentation electrons   21.123989407903359     
 soft         electrons   175.93608720173819     
 augmentation electrons   21.123989407903359     
 soft         electrons   175.93608720173819     
 augmentation electrons   21.123989407903359     
 soft         electrons   175.93608720173819     
 augmentation electrons   21.123989407903359     
 soft         electrons   175.93608720173819     
 augmentation electrons   21.123989407903359     
 soft         electrons   175.93608720173819     
 augmentation electrons   21.123989407903359     
 soft         electrons   175.93608720173819     
 augmentation electrons   21.123989407903359     
 soft         electrons   175.93608720173819     
 augmentation electrons   21.123989407903359     
 soft         electrons   175.93608720173819     
 augmentation electrons   21.123989407903359     
 soft         electrons   175.93608720173819     
 augmentation electrons   21.123989407903359     
 soft         electrons   175.93608720173819     
 augmentation electrons   21.123989407903359     
 soft         electrons   175.93608720173819     
 augmentation electrons   21.123989407903359     
 soft         electrons   175.93608720173819     
 augmentation electrons   21.123989407903359     
 soft         electrons   175.93608720173819     
 augmentation electrons   21.123989407903359     
 soft         electrons   175.93608720173819     
 augmentation electrons   21.123989407903359     
 soft         electrons   175.93608720173819     
 augmentation electrons   21.123989407903359     
 soft         electrons   175.93608720173819     
 augmentation electrons   21.123989407903359     
 soft         electrons   175.93608720173819     
 augmentation electrons   21.123989407903359     
 soft         electrons   175.93608720173819     
 augmentation electrons   21.123989407903359     
 soft         electrons   175.93608720173819     
 augmentation electrons   21.123989407903359     
 soft         electrons   175.93608720173819     
 augmentation electrons   21.123989407903359     
 soft         electrons   175.93608720173819     
 augmentation electrons   21.123989407903359     
 soft         electrons   175.93608720173819     
 augmentation electrons   21.123989407903359     
 soft         electrons   175.93608720173819     
 soft         electrons   175.93608720173819     
 total        electrons   197.06007660964156     
 total        electrons   197.06007660964156     
 total        electrons   197.06007660964156     
 total        electrons   197.06007660964156     
 total        electrons   197.06007660964156     
 total        electrons   197.06007660964156     
 total        electrons   197.06007660964156     
 total        electrons   197.06007660964156     
 total        electrons   197.06007660964156     
 total        electrons   197.06007660964156     
 total        electrons   197.06007660964156     
 total        electrons   197.06007660964156     
 total        electrons   197.06007660964156     
 total        electrons   197.06007660964156     
 total        electrons   197.06007660964156     
 total        electrons   197.06007660964156     
 total        electrons   197.06007660964156     
 total        electrons   197.06007660964156     
 total        electrons   197.06007660964156     
 total        electrons   197.06007660964156     
 total        electrons   197.06007660964156     
 total        electrons   197.06007660964156     
 total        electrons   197.06007660964156     
 total        electrons   197.06007660964156     
 total        electrons   197.06007660964156     
 total        electrons   197.06007660964156     
 total        electrons   197.06007660964156     
 total        electrons   197.06007660964156     
 total        electrons   197.06007660964156     
 total        electrons   197.06007660964156     
 total        electrons   197.06007660964156     
 total        electrons   197.06007660964156     
 total        electrons   197.06007660964156     
 total        electrons   197.06007660964156     
 total        electrons   197.06007660964156     
 total        electrons   197.06007660964156     
 total        electrons   197.06007660964156     
 total        electrons   197.06007660964156     
 total        electrons   197.06007660964156     
 total        electrons   197.06007660964156     
 total        electrons   197.06007660964156     
 total        electrons   197.06007660964156     
 total        electrons   197.06007660964156     
 total        electrons   197.06007660964156     
 total        electrons   197.06007660964156     
 total        electrons   197.06007660964156     
 total        electrons   197.06007660964156     
 total        electrons   197.06007660964156     
 total        electrons   197.06007660964156     
 total        electrons   197.06007660964156     
 total        electrons   197.06007660964156     
 total        electrons   197.06007660964156     
 total        electrons   197.06007660964156     
 total        electrons   197.06007660964156     
Note: The following floating-point exceptions are signalling: IEEE_OVERFLOW_FLAG
Note: The following floating-point exceptions are signalling: IEEE_OVERFLOW_FLAG
Note: The following floating-point exceptions are signalling: IEEE_OVERFLOW_FLAG
Note: The following floating-point exceptions are signalling: IEEE_OVERFLOW_FLAG
Note: The following floating-point exceptions are signalling: IEEE_OVERFLOW_FLAG
Note: The following floating-point exceptions are signalling: IEEE_OVERFLOW_FLAG
Note: The following floating-point exceptions are signalling: IEEE_OVERFLOW_FLAG
Note: The following floating-point exceptions are signalling: IEEE_OVERFLOW_FLAG
Note: The following floating-point exceptions are signalling: IEEE_OVERFLOW_FLAG
Note: The following floating-point exceptions are signalling: IEEE_OVERFLOW_FLAG
Note: The following floating-point exceptions are signalling: IEEE_OVERFLOW_FLAG
Note: The following floating-point exceptions are signalling: IEEE_OVERFLOW_FLAG
Note: The following floating-point exceptions are signalling: IEEE_OVERFLOW_FLAG
Note: The following floating-point exceptions are signalling: IEEE_OVERFLOW_FLAG
Note: The following floating-point exceptions are signalling: IEEE_OVERFLOW_FLAG
Note: The following floating-point exceptions are signalling: IEEE_OVERFLOW_FLAG
Note: The following floating-point exceptions are signalling: IEEE_OVERFLOW_FLAG
Note: The following floating-point exceptions are signalling: IEEE_OVERFLOW_FLAG
Note: The following floating-point exceptions are signalling: IEEE_OVERFLOW_FLAG
Note: The following floating-point exceptions are signalling: IEEE_OVERFLOW_FLAG
Note: The following floating-point exceptions are signalling: IEEE_OVERFLOW_FLAG
Note: The following floating-point exceptions are signalling: IEEE_OVERFLOW_FLAG
Note: The following floating-point exceptions are signalling: IEEE_INVALID_FLAG IEEE_OVERFLOW_FLAG
Note: The following floating-point exceptions are signalling: IEEE_OVERFLOW_FLAG
Note: The following floating-point exceptions are signalling: IEEE_OVERFLOW_FLAG
Note: The following floating-point exceptions are signalling: IEEE_OVERFLOW_FLAG
Note: The following floating-point exceptions are signalling: IEEE_OVERFLOW_FLAG
Note: The following floating-point exceptions are signalling: IEEE_OVERFLOW_FLAG
Note: The following floating-point exceptions are signalling: IEEE_OVERFLOW_FLAG
Note: The following floating-point exceptions are signalling: IEEE_OVERFLOW_FLAG
Note: The following floating-point exceptions are signalling: IEEE_OVERFLOW_FLAG
Note: The following floating-point exceptions are signalling: IEEE_OVERFLOW_FLAG
Note: The following floating-point exceptions are signalling: IEEE_OVERFLOW_FLAG
Note: The following floating-point exceptions are signalling: IEEE_OVERFLOW_FLAG
Note: The following floating-point exceptions are signalling: IEEE_OVERFLOW_FLAG
Note: The following floating-point exceptions are signalling: IEEE_OVERFLOW_FLAG
Note: The following floating-point exceptions are signalling: IEEE_OVERFLOW_FLAG
Note: The following floating-point exceptions are signalling: IEEE_OVERFLOW_FLAG
Note: The following floating-point exceptions are signalling: IEEE_OVERFLOW_FLAG
Note: The following floating-point exceptions are signalling: IEEE_OVERFLOW_FLAG
Note: The following floating-point exceptions are signalling: IEEE_OVERFLOW_FLAG
Note: The following floating-point exceptions are signalling: IEEE_OVERFLOW_FLAG
Note: The following floating-point exceptions are signalling: IEEE_OVERFLOW_FLAG
Note: The following floating-point exceptions are signalling: IEEE_OVERFLOW_FLAG
Note: The following floating-point exceptions are signalling: IEEE_OVERFLOW_FLAG
Note: The following floating-point exceptions are signalling: IEEE_OVERFLOW_FLAG
Note: The following floating-point exceptions are signalling: IEEE_OVERFLOW_FLAG
Note: The following floating-point exceptions are signalling: IEEE_OVERFLOW_FLAG
Note: The following floating-point exceptions are signalling: IEEE_OVERFLOW_FLAG
Note: The following floating-point exceptions are signalling: IEEE_OVERFLOW_FLAG
Note: The following floating-point exceptions are signalling: IEEE_OVERFLOW_FLAG
Note: The following floating-point exceptions are signalling: IEEE_OVERFLOW_FLAG
Note: The following floating-point exceptions are signalling: IEEE_OVERFLOW_FLAG
Note: The following floating-point exceptions are signalling: IEEE_OVERFLOW_FLAG
