   73   73   40    1
  0.2139262E+02  0.1053953E-08  0.6141200E-09  0.2412750E-08  0.5000000E-15
   1.0000000000000000E-004
  CAR 
 Name                                    
    268     23    176

  0.3742002E-15  0.3742002E-15  0.1262379E-14  0.2222222E-01
    1      -13.864990   1.000000
    2      -12.877282   1.000000
    3      -12.729415   1.000000
    4      -12.377303   1.000000
    5      -11.745938   1.000000
    6      -11.635325   1.000000
    7      -11.552607   1.000000
    8      -11.522590   1.000000
    9      -11.351319   1.000000
   10      -11.114982   1.000000
   11      -10.991606   1.000000
   12      -10.990868   1.000000
   13      -10.751537   1.000000
   14      -10.401103   1.000000
   15      -10.333387   1.000000
   16      -10.223583   1.000000
   17      -10.087129   1.000000
   18      -10.025027   1.000000
   19       -9.797155   1.000000
   20       -9.632627   1.000000
   21       -9.546233   1.000000
   22       -9.442755   1.000000
   23       -9.366253   1.000000
   24       -8.894600   1.000000
   25       -8.870051   1.000000
   26       -8.749025   1.000000
   27       -8.587262   1.000000
   28       -8.532427   1.000000
   29       -8.268569   1.000000
   30       -8.062285   1.000000
   31       -7.978799   1.000000
   32       -7.848600   1.000000
   33       -7.462479   1.000000
   34       -7.445868   1.000000
   35       -7.375294   1.000000
   36       -7.241944   1.000000
   37       -7.074630   1.000000
   38       -6.881982   1.000000
   39       -6.857025   1.000000
   40       -6.832365   1.000000
   41       -6.769623   1.000000
   42       -6.715068   1.000000
   43       -6.600033   1.000000
   44       -6.454765   1.000000
   45       -6.316349   1.000000
   46       -6.243214   1.000000
   47       -6.191456   1.000000
   48       -5.986749   1.000000
   49       -5.948634   1.000000
   50       -5.939992   1.000000
   51       -5.782080   1.000000
   52       -5.693862   1.000000
   53       -5.650268   1.000000
   54       -5.644348   1.000000
   55       -5.568463   1.000000
   56       -5.504204   1.000000
   57       -5.394058   1.000000
   58       -5.362878   1.000000
   59       -5.336267   1.000000
   60       -5.258179   1.000000
   61       -5.124623   1.000000
   62       -5.098047   1.000000
   63       -4.940062   1.000000
   64       -4.936898   1.000000
   65       -4.801054   1.000000
   66       -4.641530   1.000000
   67       -4.590411   1.000000
   68       -4.531356   1.000000
   69       -4.493434   1.000000
   70       -4.455125   1.000000
   71       -4.421203   1.000000
   72       -4.384813   1.000000
   73       -4.295831   1.000000
   74       -4.203297   1.000000
   75       -4.157565   1.000000
   76       -4.139114   1.000000
   77       -4.087790   1.000000
   78       -4.028303   1.000000
   79       -3.941190   1.000000
   80       -3.836716   1.000000
   81       -3.741313   1.000000
   82       -3.652458   1.000000
   83       -3.643311   1.000000
   84       -3.531231   1.000000
   85       -3.521025   1.000000
   86       -3.391214   1.000000
   87       -3.292853   1.000000
   88       -3.284869   1.000000
   89       -3.261622   1.000000
   90       -3.219501   1.000000
   91       -3.193383   1.000000
   92       -3.106417   1.000000
   93       -3.092766   1.000000
   94       -3.020992   1.000000
   95       -2.890390   1.000000
   96       -2.842251   1.000000
   97       -2.789264   1.000000
   98       -2.709100   1.000000
   99       -2.661667   1.000000
  100       -2.580481   1.000000
  101       -2.503881   1.000000
  102       -2.395746   1.000000
  103       -2.338318   1.000000
  104       -2.292197   1.000000
  105       -2.269238   1.000000
  106       -2.114258   1.000000
  107       -2.095322   1.000000
  108       -2.081846   1.000000
  109       -2.062406   1.000000
  110       -1.928680   1.000000
  111       -1.923721   1.000000
  112       -1.786612   1.000000
  113       -1.693100   1.000000
  114       -1.646061   1.000000
  115       -1.403262   1.000000
  116       -1.336801   1.000000
  117       -1.253526   1.000000
  118       -1.227055   1.000000
  119       -1.053270   1.000000
  120       -0.958687   1.000000
  121       -0.856445   1.000000
  122       -0.821297   1.000000
  123       -0.624964   1.000000
  124       -0.511196   1.000004
  125       -0.416432   1.000075
  126       -0.284149   1.001962
  127       -0.250875   1.003804
  128       -0.175459   1.013136
  129       -0.149803   1.018271
  130       -0.102128   1.029053
  131       -0.020562   1.030296
  132        0.066284   0.931310
  133        0.083665   0.890773
  134        0.162811   0.619895
  135        0.184509   0.529431
  136        0.227194   0.351480
  137        0.304954   0.095140
  138        0.368244  -0.008504
  139        0.427742  -0.035150
  140        0.481281  -0.029851
  141        0.552763  -0.014184
  142        0.636601  -0.003608
  143        0.721133  -0.000582
  144        0.742532  -0.000343
  145        0.804076  -0.000065
  146        0.908295  -0.000002
  147        0.954783  -0.000000
  148        1.045483  -0.000000
  149        1.118379  -0.000000
  150        1.164656  -0.000000
  151        1.230237  -0.000000
  152        1.244190  -0.000000
  153        1.260252  -0.000000
  154        1.302976  -0.000000
  155        1.346582  -0.000000
  156        1.355531  -0.000000
  157        1.399385  -0.000000
  158        1.419407  -0.000000
  159        1.450569  -0.000000
  160        1.482053  -0.000000
  161        1.505242  -0.000000
  162        1.544157  -0.000000
  163        1.608380  -0.000000
  164        1.626599  -0.000000
  165        1.655055  -0.000000
  166        1.670653  -0.000000
  167        1.735681  -0.000000
  168        1.772830  -0.000000
  169        1.804307  -0.000000
  170        1.854273  -0.000000
  171        1.892874  -0.000000
  172        1.976867  -0.000000
  173        2.037229  -0.000000
  174        2.079278  -0.000000
  175        2.116181  -0.000000
  176        2.149840  -0.000000

  0.2000000E+00  0.3742002E-15  0.1262379E-14  0.4444444E-01
    1      -13.824507   1.000000
    2      -13.113552   1.000000
    3      -12.636944   1.000000
    4      -12.119896   1.000000
    5      -11.939590   1.000000
    6      -11.737724   1.000000
    7      -11.560258   1.000000
    8      -11.318989   1.000000
    9      -11.239700   1.000000
   10      -11.125484   1.000000
   11      -10.960763   1.000000
   12      -10.890829   1.000000
   13      -10.741039   1.000000
   14      -10.602750   1.000000
   15      -10.451900   1.000000
   16      -10.265416   1.000000
   17      -10.197099   1.000000
   18      -10.091956   1.000000
   19       -9.764688   1.000000
   20       -9.747958   1.000000
   21       -9.450068   1.000000
   22       -9.359192   1.000000
   23       -9.272255   1.000000
   24       -8.994326   1.000000
   25       -8.853944   1.000000
   26       -8.825700   1.000000
   27       -8.450141   1.000000
   28       -8.278177   1.000000
   29       -8.131563   1.000000
   30       -8.023123   1.000000
   31       -7.994524   1.000000
   32       -7.917837   1.000000
   33       -7.533627   1.000000
   34       -7.475072   1.000000
   35       -7.361066   1.000000
   36       -7.289604   1.000000
   37       -7.196449   1.000000
   38       -7.029782   1.000000
   39       -6.955033   1.000000
   40       -6.807912   1.000000
   41       -6.772723   1.000000
   42       -6.675254   1.000000
   43       -6.559916   1.000000
   44       -6.531021   1.000000
   45       -6.409571   1.000000
   46       -6.168054   1.000000
   47       -6.105371   1.000000
   48       -5.940342   1.000000
   49       -5.900461   1.000000
   50       -5.861969   1.000000
   51       -5.823203   1.000000
   52       -5.807893   1.000000
   53       -5.669728   1.000000
   54       -5.659629   1.000000
   55       -5.535875   1.000000
   56       -5.473957   1.000000
   57       -5.359643   1.000000
   58       -5.337047   1.000000
   59       -5.254036   1.000000
   60       -5.241108   1.000000
   61       -5.126169   1.000000
   62       -5.032952   1.000000
   63       -4.987023   1.000000
   64       -4.922354   1.000000
   65       -4.785770   1.000000
   66       -4.703188   1.000000
   67       -4.625299   1.000000
   68       -4.575391   1.000000
   69       -4.461577   1.000000
   70       -4.405878   1.000000
   71       -4.389002   1.000000
   72       -4.329817   1.000000
   73       -4.297222   1.000000
   74       -4.278582   1.000000
   75       -4.158043   1.000000
   76       -4.130542   1.000000
   77       -4.062074   1.000000
   78       -4.005758   1.000000
   79       -3.915739   1.000000
   80       -3.813159   1.000000
   81       -3.791838   1.000000
   82       -3.731011   1.000000
   83       -3.657969   1.000000
   84       -3.549263   1.000000
   85       -3.456007   1.000000
   86       -3.415443   1.000000
   87       -3.357617   1.000000
   88       -3.331774   1.000000
   89       -3.267199   1.000000
   90       -3.247455   1.000000
   91       -3.198452   1.000000
   92       -3.081856   1.000000
   93       -3.057274   1.000000
   94       -2.981926   1.000000
   95       -2.926930   1.000000
   96       -2.910999   1.000000
   97       -2.784704   1.000000
   98       -2.701900   1.000000
   99       -2.675322   1.000000
  100       -2.543717   1.000000
  101       -2.468208   1.000000
  102       -2.459749   1.000000
  103       -2.370224   1.000000
  104       -2.253182   1.000000
  105       -2.190090   1.000000
  106       -2.124263   1.000000
  107       -2.093390   1.000000
  108       -2.000579   1.000000
  109       -1.979156   1.000000
  110       -1.916752   1.000000
  111       -1.887987   1.000000
  112       -1.757627   1.000000
  113       -1.741196   1.000000
  114       -1.590099   1.000000
  115       -1.426699   1.000000
  116       -1.324046   1.000000
  117       -1.269890   1.000000
  118       -1.263109   1.000000
  119       -1.116148   1.000000
  120       -0.998357   1.000000
  121       -0.915132   1.000000
  122       -0.835384   1.000000
  123       -0.674286   1.000000
  124       -0.602072   1.000000
  125       -0.388475   1.000162
  126       -0.305078   1.001250
  127       -0.273713   1.002432
  128       -0.216540   1.007009
  129       -0.184183   1.011610
  130       -0.156429   1.016861
  131       -0.070935   1.034418
  132        0.057621   0.948673
  133        0.092127   0.868287
  134        0.151246   0.666441
  135        0.270644   0.192317
  136        0.284136   0.150700
  137        0.324597   0.052701
  138        0.336555   0.031563
  139        0.456058  -0.034162
  140        0.507122  -0.024072
  141        0.553006  -0.014138
  142        0.639474  -0.003415
  143        0.764819  -0.000193
  144        0.780973  -0.000125
  145        0.880646  -0.000006
  146        0.930879  -0.000001
  147        0.993255  -0.000000
  148        1.081695  -0.000000
  149        1.133514  -0.000000
  150        1.164089  -0.000000
  151        1.183349  -0.000000
  152        1.223273  -0.000000
  153        1.248111  -0.000000
  154        1.319738  -0.000000
  155        1.360377  -0.000000
  156        1.385485  -0.000000
  157        1.425692  -0.000000
  158        1.436587  -0.000000
  159        1.467804  -0.000000
  160        1.504260  -0.000000
  161        1.548487  -0.000000
  162        1.586041  -0.000000
  163        1.591790  -0.000000
  164        1.636555  -0.000000
  165        1.676644  -0.000000
  166        1.689028  -0.000000
  167        1.750460  -0.000000
  168        1.780273  -0.000000
  169        1.808456  -0.000000
  170        1.841525  -0.000000
  171        1.937373  -0.000000
  172        1.981926  -0.000000
  173        2.064216  -0.000000
  174        2.069183  -0.000000
  175        2.098015  -0.000000
  176        2.177600  -0.000000

  0.4000000E+00  0.3742002E-15  0.1262379E-14  0.4444444E-01
    1      -13.723121   1.000000
    2      -13.368060   1.000000
    3      -12.527294   1.000000
    4      -12.196810   1.000000
    5      -11.720522   1.000000
    6      -11.635787   1.000000
    7      -11.608859   1.000000
    8      -11.280554   1.000000
    9      -11.140137   1.000000
   10      -11.109070   1.000000
   11      -11.014428   1.000000
   12      -10.896176   1.000000
   13      -10.727627   1.000000
   14      -10.631121   1.000000
   15      -10.543493   1.000000
   16      -10.504257   1.000000
   17      -10.140427   1.000000
   18      -10.087730   1.000000
   19       -9.962639   1.000000
   20       -9.929973   1.000000
   21       -9.458320   1.000000
   22       -9.298048   1.000000
   23       -9.172249   1.000000
   24       -8.977885   1.000000
   25       -8.774675   1.000000
   26       -8.652489   1.000000
   27       -8.332168   1.000000
   28       -8.237263   1.000000
   29       -7.998469   1.000000
   30       -7.943660   1.000000
   31       -7.786595   1.000000
   32       -7.728520   1.000000
   33       -7.706691   1.000000
   34       -7.631945   1.000000
   35       -7.497628   1.000000
   36       -7.358250   1.000000
   37       -7.303747   1.000000
   38       -7.191515   1.000000
   39       -7.137312   1.000000
   40       -7.024636   1.000000
   41       -6.713789   1.000000
   42       -6.691311   1.000000
   43       -6.491871   1.000000
   44       -6.441887   1.000000
   45       -6.431207   1.000000
   46       -6.097885   1.000000
   47       -6.004471   1.000000
   48       -5.999708   1.000000
   49       -5.959433   1.000000
   50       -5.856011   1.000000
   51       -5.815313   1.000000
   52       -5.797182   1.000000
   53       -5.641006   1.000000
   54       -5.569699   1.000000
   55       -5.536062   1.000000
   56       -5.470642   1.000000
   57       -5.383407   1.000000
   58       -5.349809   1.000000
   59       -5.262735   1.000000
   60       -5.111588   1.000000
   61       -5.090051   1.000000
   62       -5.006964   1.000000
   63       -4.988896   1.000000
   64       -4.867150   1.000000
   65       -4.795952   1.000000
   66       -4.668001   1.000000
   67       -4.648751   1.000000
   68       -4.590893   1.000000
   69       -4.496403   1.000000
   70       -4.464985   1.000000
   71       -4.370775   1.000000
   72       -4.345671   1.000000
   73       -4.240223   1.000000
   74       -4.235278   1.000000
   75       -4.173950   1.000000
   76       -4.070096   1.000000
   77       -4.003038   1.000000
   78       -3.936090   1.000000
   79       -3.890783   1.000000
   80       -3.873523   1.000000
   81       -3.819429   1.000000
   82       -3.778291   1.000000
   83       -3.699234   1.000000
   84       -3.602996   1.000000
   85       -3.505991   1.000000
   86       -3.495652   1.000000
   87       -3.410315   1.000000
   88       -3.374110   1.000000
   89       -3.287914   1.000000
   90       -3.204262   1.000000
   91       -3.157670   1.000000
   92       -3.083516   1.000000
   93       -3.068904   1.000000
   94       -3.046588   1.000000
   95       -2.899353   1.000000
   96       -2.867952   1.000000
   97       -2.849423   1.000000
   98       -2.785198   1.000000
   99       -2.607642   1.000000
  100       -2.567669   1.000000
  101       -2.554570   1.000000
  102       -2.499303   1.000000
  103       -2.216076   1.000000
  104       -2.199912   1.000000
  105       -2.136285   1.000000
  106       -2.053658   1.000000
  107       -1.979872   1.000000
  108       -1.973398   1.000000
  109       -1.920745   1.000000
  110       -1.821101   1.000000
  111       -1.815543   1.000000
  112       -1.781959   1.000000
  113       -1.685017   1.000000
  114       -1.562214   1.000000
  115       -1.488849   1.000000
  116       -1.435591   1.000000
  117       -1.322272   1.000000
  118       -1.311894   1.000000
  119       -1.118280   1.000000
  120       -1.037832   1.000000
  121       -0.952615   1.000000
  122       -0.918735   1.000000
  123       -0.753314   1.000000
  124       -0.741056   1.000000
  125       -0.443343   1.000034
  126       -0.342085   1.000530
  127       -0.318369   1.000927
  128       -0.271055   1.002566
  129       -0.245837   1.004181
  130       -0.202721   1.008771
  131       -0.096177   1.030295
  132        0.012847   1.010186
  133        0.164303   0.613783
  134        0.171476   0.584135
  135        0.255846   0.242614
  136        0.320657   0.060436
  137        0.380192  -0.018242
  138        0.404811  -0.030737
  139        0.507482  -0.023989
  140        0.525988  -0.019757
  141        0.627808  -0.004256
  142        0.642836  -0.003200
  143        0.806049  -0.000062
  144        0.821528  -0.000039
  145        0.871608  -0.000008
  146        0.906339  -0.000003
  147        1.029179  -0.000000
  148        1.137819  -0.000000
  149        1.171623  -0.000000
  150        1.206933  -0.000000
  151        1.237939  -0.000000
  152        1.266975  -0.000000
  153        1.277756  -0.000000
  154        1.340140  -0.000000
  155        1.375921  -0.000000
  156        1.398247  -0.000000
  157        1.406523  -0.000000
  158        1.454987  -0.000000
  159        1.488407  -0.000000
  160        1.535429  -0.000000
  161        1.612992  -0.000000
  162        1.629267  -0.000000
  163        1.654261  -0.000000
  164        1.667018  -0.000000
  165        1.696757  -0.000000
  166        1.726738  -0.000000
  167        1.745620  -0.000000
  168        1.798974  -0.000000
  169        1.871089  -0.000000
  170        1.897047  -0.000000
  171        1.947726  -0.000000
  172        1.968207  -0.000000
  173        2.005160  -0.000000
  174        2.050822  -0.000000
  175        2.114033  -0.000000
  176        2.193802  -0.000000

  0.3742002E-15  0.1111111E+00  0.1262379E-14  0.4444444E-01
    1      -13.819132   1.000000
    2      -12.837938   1.000000
    3      -12.694769   1.000000
    4      -12.344316   1.000000
    5      -11.843776   1.000000
    6      -11.605026   1.000000
    7      -11.559398   1.000000
    8      -11.522265   1.000000
    9      -11.397471   1.000000
   10      -11.141069   1.000000
   11      -11.005637   1.000000
   12      -10.959918   1.000000
   13      -10.780910   1.000000
   14      -10.404186   1.000000
   15      -10.295988   1.000000
   16      -10.233281   1.000000
   17      -10.095094   1.000000
   18      -10.016760   1.000000
   19       -9.764197   1.000000
   20       -9.623851   1.000000
   21       -9.566279   1.000000
   22       -9.453192   1.000000
   23       -9.358485   1.000000
   24       -8.928527   1.000000
   25       -8.880819   1.000000
   26       -8.745558   1.000000
   27       -8.563994   1.000000
   28       -8.546714   1.000000
   29       -8.266049   1.000000
   30       -8.091072   1.000000
   31       -7.875394   1.000000
   32       -7.818749   1.000000
   33       -7.543076   1.000000
   34       -7.478394   1.000000
   35       -7.428693   1.000000
   36       -7.241092   1.000000
   37       -7.167201   1.000000
   38       -6.911801   1.000000
   39       -6.880074   1.000000
   40       -6.804632   1.000000
   41       -6.720774   1.000000
   42       -6.669642   1.000000
   43       -6.571444   1.000000
   44       -6.422682   1.000000
   45       -6.303008   1.000000
   46       -6.229899   1.000000
   47       -6.176050   1.000000
   48       -5.995255   1.000000
   49       -5.950896   1.000000
   50       -5.914140   1.000000
   51       -5.774172   1.000000
   52       -5.703482   1.000000
   53       -5.671821   1.000000
   54       -5.629228   1.000000
   55       -5.592335   1.000000
   56       -5.483450   1.000000
   57       -5.370840   1.000000
   58       -5.320916   1.000000
   59       -5.277208   1.000000
   60       -5.185027   1.000000
   61       -5.150618   1.000000
   62       -5.078690   1.000000
   63       -4.925695   1.000000
   64       -4.898012   1.000000
   65       -4.787481   1.000000
   66       -4.679250   1.000000
   67       -4.589736   1.000000
   68       -4.559844   1.000000
   69       -4.490522   1.000000
   70       -4.466250   1.000000
   71       -4.428094   1.000000
   72       -4.411587   1.000000
   73       -4.280284   1.000000
   74       -4.190325   1.000000
   75       -4.147201   1.000000
   76       -4.131877   1.000000
   77       -4.074803   1.000000
   78       -4.026602   1.000000
   79       -3.913969   1.000000
   80       -3.864937   1.000000
   81       -3.763633   1.000000
   82       -3.733074   1.000000
   83       -3.638313   1.000000
   84       -3.584965   1.000000
   85       -3.531220   1.000000
   86       -3.430637   1.000000
   87       -3.401912   1.000000
   88       -3.325502   1.000000
   89       -3.241206   1.000000
   90       -3.202177   1.000000
   91       -3.188530   1.000000
   92       -3.118480   1.000000
   93       -3.090291   1.000000
   94       -3.004178   1.000000
   95       -2.983921   1.000000
   96       -2.877794   1.000000
   97       -2.814880   1.000000
   98       -2.664820   1.000000
   99       -2.618393   1.000000
  100       -2.575068   1.000000
  101       -2.499195   1.000000
  102       -2.444123   1.000000
  103       -2.333342   1.000000
  104       -2.290685   1.000000
  105       -2.251629   1.000000
  106       -2.224045   1.000000
  107       -2.080240   1.000000
  108       -2.068558   1.000000
  109       -2.013004   1.000000
  110       -1.939449   1.000000
  111       -1.859037   1.000000
  112       -1.775492   1.000000
  113       -1.656255   1.000000
  114       -1.602396   1.000000
  115       -1.412935   1.000000
  116       -1.339640   1.000000
  117       -1.315859   1.000000
  118       -1.214376   1.000000
  119       -1.111982   1.000000
  120       -0.960673   1.000000
  121       -0.849256   1.000000
  122       -0.769811   1.000000
  123       -0.614760   1.000000
  124       -0.564852   1.000001
  125       -0.435098   1.000044
  126       -0.372117   1.000249
  127       -0.254651   1.003541
  128       -0.234244   1.005163
  129       -0.204945   1.008468
  130       -0.139018   1.020663
  131       -0.052047   1.035450
  132        0.051767   0.959354
  133        0.133210   0.735304
  134        0.191001   0.501983
  135        0.231955   0.332522
  136        0.305807   0.093096
  137        0.325727   0.050553
  138        0.404381  -0.030595
  139        0.470683  -0.031915
  140        0.512791  -0.022760
  141        0.599743  -0.006978
  142        0.662468  -0.002159
  143        0.766990  -0.000182
  144        0.796174  -0.000082
  145        0.837159  -0.000025
  146        0.882662  -0.000006
  147        0.965210  -0.000000
  148        1.013127  -0.000000
  149        1.072136  -0.000000
  150        1.168607  -0.000000
  151        1.182982  -0.000000
  152        1.221154  -0.000000
  153        1.241274  -0.000000
  154        1.284809  -0.000000
  155        1.325116  -0.000000
  156        1.364590  -0.000000
  157        1.378273  -0.000000
  158        1.399262  -0.000000
  159        1.436255  -0.000000
  160        1.468540  -0.000000
  161        1.496960  -0.000000
  162        1.547402  -0.000000
  163        1.574543  -0.000000
  164        1.590685  -0.000000
  165        1.649146  -0.000000
  166        1.692817  -0.000000
  167        1.748020  -0.000000
  168        1.771772  -0.000000
  169        1.803895  -0.000000
  170        1.824211  -0.000000
  171        1.903901  -0.000000
  172        1.979272  -0.000000
  173        2.014103  -0.000000
  174        2.055205  -0.000000
  175        2.150184  -0.000000
  176        2.188956  -0.000000

  0.2000000E+00  0.1111111E+00  0.1262379E-14  0.4444444E-01
    1      -13.779026   1.000000
    2      -13.073948   1.000000
    3      -12.599266   1.000000
    4      -12.093517   1.000000
    5      -11.911953   1.000000
    6      -11.824585   1.000000
    7      -11.607077   1.000000
    8      -11.357231   1.000000
    9      -11.218242   1.000000
   10      -11.142272   1.000000
   11      -10.978636   1.000000
   12      -10.865783   1.000000
   13      -10.766206   1.000000
   14      -10.576717   1.000000
   15      -10.452563   1.000000
   16      -10.248530   1.000000
   17      -10.202137   1.000000
   18      -10.098882   1.000000
   19       -9.772704   1.000000
   20       -9.718662   1.000000
   21       -9.451392   1.000000
   22       -9.366686   1.000000
   23       -9.266364   1.000000
   24       -8.995321   1.000000
   25       -8.890173   1.000000
   26       -8.815423   1.000000
   27       -8.463505   1.000000
   28       -8.278685   1.000000
   29       -8.138584   1.000000
   30       -8.052208   1.000000
   31       -7.991221   1.000000
   32       -7.778861   1.000000
   33       -7.612874   1.000000
   34       -7.486977   1.000000
   35       -7.405887   1.000000
   36       -7.282942   1.000000
   37       -7.253412   1.000000
   38       -7.036736   1.000000
   39       -6.922172   1.000000
   40       -6.843049   1.000000
   41       -6.759497   1.000000
   42       -6.655032   1.000000
   43       -6.529507   1.000000
   44       -6.495640   1.000000
   45       -6.371603   1.000000
   46       -6.281427   1.000000
   47       -6.137145   1.000000
   48       -5.955246   1.000000
   49       -5.883489   1.000000
   50       -5.843745   1.000000
   51       -5.770978   1.000000
   52       -5.731729   1.000000
   53       -5.684792   1.000000
   54       -5.623198   1.000000
   55       -5.562665   1.000000
   56       -5.452712   1.000000
   57       -5.384128   1.000000
   58       -5.302985   1.000000
   59       -5.220964   1.000000
   60       -5.158579   1.000000
   61       -5.110787   1.000000
   62       -5.022682   1.000000
   63       -4.962780   1.000000
   64       -4.906409   1.000000
   65       -4.767920   1.000000
   66       -4.688490   1.000000
   67       -4.649847   1.000000
   68       -4.557905   1.000000
   69       -4.504178   1.000000
   70       -4.439853   1.000000
   71       -4.385179   1.000000
   72       -4.328092   1.000000
   73       -4.287253   1.000000
   74       -4.255382   1.000000
   75       -4.194808   1.000000
   76       -4.110175   1.000000
   77       -4.038408   1.000000
   78       -4.005344   1.000000
   79       -3.891289   1.000000
   80       -3.862787   1.000000
   81       -3.804335   1.000000
   82       -3.764670   1.000000
   83       -3.652377   1.000000
   84       -3.588054   1.000000
   85       -3.527184   1.000000
   86       -3.454803   1.000000
   87       -3.405996   1.000000
   88       -3.361222   1.000000
   89       -3.291555   1.000000
   90       -3.212511   1.000000
   91       -3.176969   1.000000
   92       -3.122770   1.000000
   93       -3.066946   1.000000
   94       -3.041943   1.000000
   95       -2.978448   1.000000
   96       -2.927323   1.000000
   97       -2.730862   1.000000
   98       -2.719149   1.000000
   99       -2.637536   1.000000
  100       -2.544664   1.000000
  101       -2.511684   1.000000
  102       -2.398353   1.000000
  103       -2.367948   1.000000
  104       -2.265831   1.000000
  105       -2.223971   1.000000
  106       -2.176935   1.000000
  107       -2.104496   1.000000
  108       -2.012327   1.000000
  109       -1.967936   1.000000
  110       -1.890524   1.000000
  111       -1.848638   1.000000
  112       -1.757140   1.000000
  113       -1.687310   1.000000
  114       -1.619904   1.000000
  115       -1.419025   1.000000
  116       -1.351669   1.000000
  117       -1.308807   1.000000
  118       -1.274913   1.000000
  119       -1.143554   1.000000
  120       -1.033787   1.000000
  121       -0.831107   1.000000
  122       -0.820477   1.000000
  123       -0.676751   1.000000
  124       -0.582804   1.000000
  125       -0.447357   1.000030
  126       -0.373177   1.000242
  127       -0.285723   1.001898
  128       -0.231861   1.005386
  129       -0.188409   1.010914
  130       -0.151421   1.017922
  131       -0.075814   1.033815
  132        0.040850   0.977056
  133        0.129246   0.749693
  134        0.172204   0.581104
  135        0.234360   0.323061
  136        0.296729   0.115801
  137        0.394628  -0.026690
  138        0.428564  -0.035207
  139        0.473808  -0.031337
  140        0.538108  -0.017125
  141        0.589727  -0.008222
  142        0.661211  -0.002216
  143        0.761160  -0.000213
  144        0.833744  -0.000027
  145        0.871089  -0.000008
  146        0.933801  -0.000001
  147        1.007742  -0.000000
  148        1.041053  -0.000000
  149        1.091906  -0.000000
  150        1.180988  -0.000000
  151        1.187728  -0.000000
  152        1.219144  -0.000000
  153        1.259944  -0.000000
  154        1.294764  -0.000000
  155        1.337656  -0.000000
  156        1.360381  -0.000000
  157        1.385058  -0.000000
  158        1.423721  -0.000000
  159        1.447915  -0.000000
  160        1.485049  -0.000000
  161        1.506786  -0.000000
  162        1.553781  -0.000000
  163        1.599286  -0.000000
  164        1.628907  -0.000000
  165        1.691396  -0.000000
  166        1.706672  -0.000000
  167        1.731585  -0.000000
  168        1.757990  -0.000000
  169        1.783917  -0.000000
  170        1.859878  -0.000000
  171        1.917248  -0.000000
  172        1.965839  -0.000000
  173        2.014793  -0.000000
  174        2.069465  -0.000000
  175        2.144582  -0.000000
  176        2.178491  -0.000000

  0.4000000E+00  0.1111111E+00  0.1262379E-14  0.4444444E-01
    1      -13.678423   1.000000
    2      -13.326541   1.000000
    3      -12.489868   1.000000
    4      -12.164079   1.000000
    5      -11.810210   1.000000
    6      -11.674219   1.000000
    7      -11.604374   1.000000
    8      -11.311234   1.000000
    9      -11.162776   1.000000
   10      -11.081769   1.000000
   11      -10.995010   1.000000