 running on   72 total cores
 distrk:  each k-point on   72 cores,    1 groups
 distr:  one band on    9 cores,    8 groups
 using from now: INCAR     
 vasp.5.4.4.18Apr17-6-g9f103f2a35 (build Dec  7 2020 12:43:57) complex           
 POSCAR found type information on POSCAR  Mo V  B  H 
 POSCAR found :  4 types and      73 ions
 scaLAPACK will be used
 LDA part: xc-table for Pade appr. of Perdew
 POSCAR, INCAR and KPOINTS ok, starting setup
 resort distribution
 resort distribution
 resort distribution
 resort distribution
 resort distribution
 resort distribution
 resort distribution
 resort distribution
 resort distribution
 resort distribution
 resort distribution
 resort distribution
 resort distribution
 resort distribution
 resort distribution
 resort distribution
 resort distribution
 resort distribution
 resort distribution
 resort distribution
 resort distribution
 resort distribution
 resort distribution
 resort distribution
 resort distribution
 resort distribution
 resort distribution
 resort distribution
 resort distribution
 resort distribution
 resort distribution
 resort distribution
 resort distribution
 resort distribution
 resort distribution
 resort distribution
 resort distribution
 resort distribution
 resort distribution
 resort distribution
 resort distribution
 resort distribution
 resort distribution
 resort distribution
 resort distribution
 resort distribution
 resort distribution
 resort distribution
 resort distribution
 resort distribution
 resort distribution
 resort distribution
 resort distribution
 resort distribution
 resort distribution
 resort distribution
 resort distribution
 resort distribution
 resort distribution
 resort distribution
 resort distribution
 resort distribution
 resort distribution
 resort distribution
 resort distribution
 resort distribution
 resort distribution
 resort distribution
 resort distribution
 resort distribution
 resort distribution
 resort distribution
 FFT: planning ...
 WAVECAR not read
 augmentation electrons   268.05817887133253     
 soft         electrons   0.0000000000000000     
 augmentation electrons   268.05817887133253     
 soft         electrons   0.0000000000000000     
 augmentation electrons   268.05817887133253     
 soft         electrons   0.0000000000000000     
 augmentation electrons   268.05817887133253     
 soft         electrons   0.0000000000000000     
 augmentation electrons   268.05817887133253     
 soft         electrons   0.0000000000000000     
 augmentation electrons   268.05817887133253     
 soft         electrons   0.0000000000000000     
 augmentation electrons   268.05817887133253     
 soft         electrons   0.0000000000000000     
 augmentation electrons   268.05817887133253     
 soft         electrons   0.0000000000000000     
 augmentation electrons   268.05817887133253     
 soft         electrons   0.0000000000000000     
 augmentation electrons   268.05817887133253     
 soft         electrons   0.0000000000000000     
 augmentation electrons   268.05817887133253     
 soft         electrons   0.0000000000000000     
 augmentation electrons   268.05817887133253     
 soft         electrons   0.0000000000000000     
 augmentation electrons   268.05817887133253     
 soft         electrons   0.0000000000000000     
 augmentation electrons   268.05817887133253     
 soft         electrons   0.0000000000000000     
 augmentation electrons   268.05817887133253     
 soft         electrons   0.0000000000000000     
 augmentation electrons   268.05817887133253     
 soft         electrons   0.0000000000000000     
 augmentation electrons   268.05817887133253     
 soft         electrons   0.0000000000000000     
 augmentation electrons   268.05817887133253     
 soft         electrons   0.0000000000000000     
 augmentation electrons   268.05817887133253     
 soft         electrons   0.0000000000000000     
 augmentation electrons   268.05817887133253     
 soft         electrons   0.0000000000000000     
 augmentation electrons   268.05817887133253     
 soft         electrons   0.0000000000000000     
 augmentation electrons   268.05817887133253     
 soft         electrons   0.0000000000000000     
 augmentation electrons   268.05817887133253     
 soft         electrons   0.0000000000000000     
 augmentation electrons   268.05817887133253     
 soft         electrons   0.0000000000000000     
 augmentation electrons   268.05817887133253     
 soft         electrons   0.0000000000000000     
 augmentation electrons   268.05817887133253     
 soft         electrons   0.0000000000000000     
 augmentation electrons   268.05817887133253     
 soft         electrons   0.0000000000000000     
 augmentation electrons   268.05817887133253     
 soft         electrons   0.0000000000000000     
 augmentation electrons   268.05817887133253     
 soft         electrons   0.0000000000000000     
 augmentation electrons   268.05817887133253     
 soft         electrons   0.0000000000000000     
 augmentation electrons   268.05817887133253     
 soft         electrons   0.0000000000000000     
 augmentation electrons   268.05817887133253     
 soft         electrons   0.0000000000000000     
 augmentation electrons   268.05817887133253     
 soft         electrons   0.0000000000000000     
 augmentation electrons   268.05817887133253     
 soft         electrons   0.0000000000000000     
 augmentation electrons   268.05817887133253     
 soft         electrons   0.0000000000000000     
 augmentation electrons   268.05817887133253     
 soft         electrons   0.0000000000000000     
 augmentation electrons   268.05817887133253     
 soft         electrons   0.0000000000000000     
 augmentation electrons   268.05817887133253     
 soft         electrons   0.0000000000000000     
 augmentation electrons   268.05817887133253     
 soft         electrons   0.0000000000000000     
 augmentation electrons   268.05817887133253     
 soft         electrons   0.0000000000000000     
 augmentation electrons   268.05817887133253     
 soft         electrons   0.0000000000000000     
 augmentation electrons   268.05817887133253     
 soft         electrons   0.0000000000000000     
 augmentation electrons   268.05817887133253     
 soft         electrons   0.0000000000000000     
 augmentation electrons   268.05817887133253     
 soft         electrons   0.0000000000000000     
 augmentation electrons   268.05817887133253     
 soft         electrons   0.0000000000000000     
 augmentation electrons   268.05817887133253     
 soft         electrons   0.0000000000000000     
 augmentation electrons   268.05817887133253     
 soft         electrons   0.0000000000000000     
 augmentation electrons   268.05817887133253     
 soft         electrons   0.0000000000000000     
 augmentation electrons   268.05817887133253     
 soft         electrons   0.0000000000000000     
 augmentation electrons   268.05817887133253     
 soft         electrons   0.0000000000000000     
 augmentation electrons   268.05817887133253     
 soft         electrons   0.0000000000000000     
 augmentation electrons   268.05817887133253     
 soft         electrons   0.0000000000000000     
 augmentation electrons   268.05817887133253     
 soft         electrons   0.0000000000000000     
 augmentation electrons   268.05817887133253     
 soft         electrons   0.0000000000000000     
 augmentation electrons   268.05817887133253     
 soft         electrons   0.0000000000000000     
 augmentation electrons   268.05817887133253     
 soft         electrons   0.0000000000000000     
 augmentation electrons   268.05817887133253     
 soft         electrons   0.0000000000000000     
 augmentation electrons   268.05817887133253     
 soft         electrons   0.0000000000000000     
 augmentation electrons   268.05817887133253     
 soft         electrons   0.0000000000000000     
 augmentation electrons   268.05817887133253     
 soft         electrons   0.0000000000000000     
 augmentation electrons   268.05817887133253     
 soft         electrons   0.0000000000000000     
 augmentation electrons   268.05817887133253     
 soft         electrons   0.0000000000000000     
 augmentation electrons   268.05817887133253     
 soft         electrons   0.0000000000000000     
 augmentation electrons   268.05817887133253     
 soft         electrons   0.0000000000000000     
 augmentation electrons   268.05817887133253     
 soft         electrons   0.0000000000000000     
 augmentation electrons   268.05817887133253     
 soft         electrons   0.0000000000000000     
 augmentation electrons   268.05817887133253     
 soft         electrons   0.0000000000000000     
 augmentation electrons   268.05817887133253     
 soft         electrons   0.0000000000000000     
 augmentation electrons   268.05817887133253     
 soft         electrons   0.0000000000000000     
 augmentation electrons   268.05817887133253     
 soft         electrons   0.0000000000000000     
 augmentation electrons   268.05817887133253     
 soft         electrons   0.0000000000000000     
 augmentation electrons   268.05817887133253     
 soft         electrons   0.0000000000000000     
 total        electrons   268.05817887133253     
 total        electrons   268.05817887133253     
 total        electrons   268.05817887133253     
 total        electrons   268.05817887133253     
 total        electrons   268.05817887133253     
 total        electrons   268.05817887133253     
 total        electrons   268.05817887133253     
 total        electrons   268.05817887133253     
 total        electrons   268.05817887133253     
 total        electrons   268.05817887133253     
 total        electrons   268.05817887133253     
 total        electrons   268.05817887133253     
 total        electrons   268.05817887133253     
 total        electrons   268.05817887133253     
 total        electrons   268.05817887133253     
 total        electrons   268.05817887133253     
 total        electrons   268.05817887133253     
 total        electrons   268.05817887133253     
 total        electrons   268.05817887133253     
 total        electrons   268.05817887133253     
 total        electrons   268.05817887133253     
 total        electrons   268.05817887133253     
 total        electrons   268.05817887133253     
 total        electrons   268.05817887133253     
 total        electrons   268.05817887133253     
 total        electrons   268.05817887133253     
 total        electrons   268.05817887133253     
 total        electrons   268.05817887133253     
 total        electrons   268.05817887133253     
 total        electrons   268.05817887133253     
 total        electrons   268.05817887133253     
 total        electrons   268.05817887133253     
 total        electrons   268.05817887133253     
 total        electrons   268.05817887133253     
 total        electrons   268.05817887133253     
 total        electrons   268.05817887133253     
 total        electrons   268.05817887133253     
 total        electrons   268.05817887133253     
 total        electrons   268.05817887133253     
 total        electrons   268.05817887133253     
 total        electrons   268.05817887133253     
 total        electrons   268.05817887133253     
 total        electrons   268.05817887133253     
 total        electrons   268.05817887133253     
 total        electrons   268.05817887133253     
 total        electrons   268.05817887133253     
 total        electrons   268.05817887133253     
 total        electrons   268.05817887133253     
 total        electrons   268.05817887133253     
 total        electrons   268.05817887133253     
 total        electrons   268.05817887133253     
 total        electrons   268.05817887133253     
 total        electrons   268.05817887133253     
 total        electrons   268.05817887133253     
 total        electrons   268.05817887133253     
 total        electrons   268.05817887133253     
 total        electrons   268.05817887133253     
 total        electrons   268.05817887133253     
 total        electrons   268.05817887133253     
 total        electrons   268.05817887133253     
 total        electrons   268.05817887133253     
 total        electrons   268.05817887133253     
 total        electrons   268.05817887133253     
 total        electrons   268.05817887133253     
 total        electrons   268.05817887133253     
 total        electrons   268.05817887133253     
 total        electrons   268.05817887133253     
 total        electrons   268.05817887133253     
 total        electrons   268.05817887133253     
 total        electrons   268.05817887133253     
 total        electrons   268.05817887133253     
 total        electrons   268.05817887133253     
 augmentation electrons   1134.5113766423656     
 soft         electrons   0.0000000000000000     
 augmentation electrons   1134.5113766423656     
 augmentation electrons   1134.5113766423656     
 soft         electrons   0.0000000000000000     
 augmentation electrons   1134.5113766423656     
 soft         electrons   0.0000000000000000     
 augmentation electrons   1134.5113766423656     
 soft         electrons   0.0000000000000000     
 augmentation electrons   1134.5113766423656     
 soft         electrons   0.0000000000000000     
 augmentation electrons   1134.5113766423656     
 soft         electrons   0.0000000000000000     
 augmentation electrons   1134.5113766423656     
 soft         electrons   0.0000000000000000     
 augmentation electrons   1134.5113766423656     
 soft         electrons   0.0000000000000000     
 augmentation electrons   1134.5113766423656     
 soft         electrons   0.0000000000000000     
 augmentation electrons   1134.5113766423656     
 soft         electrons   0.0000000000000000     
 augmentation electrons   1134.5113766423656     
 soft         electrons   0.0000000000000000     
 augmentation electrons   1134.5113766423656     
 soft         electrons   0.0000000000000000     
 augmentation electrons   1134.5113766423656     
 soft         electrons   0.0000000000000000     
 augmentation electrons   1134.5113766423656     
 soft         electrons   0.0000000000000000     
 augmentation electrons   1134.5113766423656     
 soft         electrons   0.0000000000000000     
 augmentation electrons   1134.5113766423656     
 soft         electrons   0.0000000000000000     
 augmentation electrons   1134.5113766423656     
 soft         electrons   0.0000000000000000     
 augmentation electrons   1134.5113766423656     
 soft         electrons   0.0000000000000000     
 augmentation electrons   1134.5113766423656     
 soft         electrons   0.0000000000000000     
 augmentation electrons   1134.5113766423656     
 soft         electrons   0.0000000000000000     
 augmentation electrons   1134.5113766423656     
 soft         electrons   0.0000000000000000     
 augmentation electrons   1134.5113766423656     
 soft         electrons   0.0000000000000000     
 augmentation electrons   1134.5113766423656     
 soft         electrons   0.0000000000000000     
 augmentation electrons   1134.5113766423656     
 soft         electrons   0.0000000000000000     
 augmentation electrons   1134.5113766423656     
 soft         electrons   0.0000000000000000     
 augmentation electrons   1134.5113766423656     
 soft         electrons   0.0000000000000000     
 augmentation electrons   1134.5113766423656     
 soft         electrons   0.0000000000000000     
 augmentation electrons   1134.5113766423656     
 soft         electrons   0.0000000000000000     
 augmentation electrons   1134.5113766423656     
 soft         electrons   0.0000000000000000     
 augmentation electrons   1134.5113766423656     
 soft         electrons   0.0000000000000000     
 augmentation electrons   1134.5113766423656     
 soft         electrons   0.0000000000000000     
 augmentation electrons   1134.5113766423656     
 soft         electrons   0.0000000000000000     
 augmentation electrons   1134.5113766423656     
 soft         electrons   0.0000000000000000     
 augmentation electrons   1134.5113766423656     
 soft         electrons   0.0000000000000000     
 augmentation electrons   1134.5113766423656     
 soft         electrons   0.0000000000000000     
 augmentation electrons   1134.5113766423656     
 soft         electrons   0.0000000000000000     
 augmentation electrons   1134.5113766423656     
 soft         electrons   0.0000000000000000     
 augmentation electrons   1134.5113766423656     
 soft         electrons   0.0000000000000000     
 augmentation electrons   1134.5113766423656     
 soft         electrons   0.0000000000000000     
 augmentation electrons   1134.5113766423656     
 soft         electrons   0.0000000000000000     
 augmentation electrons   1134.5113766423656     
 soft         electrons   0.0000000000000000     
 augmentation electrons   1134.5113766423656     
 soft         electrons   0.0000000000000000     
 augmentation electrons   1134.5113766423656     
 soft         electrons   0.0000000000000000     
 augmentation electrons   1134.5113766423656     
 soft         electrons   0.0000000000000000     
 augmentation electrons   1134.5113766423656     
 soft         electrons   0.0000000000000000     
 augmentation electrons   1134.5113766423656     
 soft         electrons   0.0000000000000000     
 augmentation electrons   1134.5113766423656     
 soft         electrons   0.0000000000000000     
 augmentation electrons   1134.5113766423656     
 soft         electrons   0.0000000000000000     
 augmentation electrons   1134.5113766423656     
 soft         electrons   0.0000000000000000     
 augmentation electrons   1134.5113766423656     
 soft         electrons   0.0000000000000000     
 augmentation electrons   1134.5113766423656     
 soft         electrons   0.0000000000000000     
 augmentation electrons   1134.5113766423656     
 soft         electrons   0.0000000000000000     
 augmentation electrons   1134.5113766423656     
 soft         electrons   0.0000000000000000     
 augmentation electrons   1134.5113766423656     
 soft         electrons   0.0000000000000000     
 augmentation electrons   1134.5113766423656     
 soft         electrons   0.0000000000000000     
 augmentation electrons   1134.5113766423656     
 soft         electrons   0.0000000000000000     
 augmentation electrons   1134.5113766423656     
 soft         electrons   0.0000000000000000     
 augmentation electrons   1134.5113766423656     
 soft         electrons   0.0000000000000000     
 augmentation electrons   1134.5113766423656     
 soft         electrons   0.0000000000000000     
 augmentation electrons   1134.5113766423656     
 soft         electrons   0.0000000000000000     
 augmentation electrons   1134.5113766423656     
 soft         electrons   0.0000000000000000     
 augmentation electrons   1134.5113766423656     
 soft         electrons   0.0000000000000000     
 augmentation electrons   1134.5113766423656     
 soft         electrons   0.0000000000000000     
 augmentation electrons   1134.5113766423656     
 soft         electrons   0.0000000000000000     
 augmentation electrons   1134.5113766423656     
 soft         electrons   0.0000000000000000     
 augmentation electrons   1134.5113766423656     
 soft         electrons   0.0000000000000000     
 augmentation electrons   1134.5113766423656     
 soft         electrons   0.0000000000000000     
 augmentation electrons   1134.5113766423656     
 soft         electrons   0.0000000000000000     
 augmentation electrons   1134.5113766423656     
 soft         electrons   0.0000000000000000     
 augmentation electrons   1134.5113766423656     
 soft         electrons   0.0000000000000000     
 augmentation electrons   1134.5113766423656     
 soft         electrons   0.0000000000000000     
 soft         electrons   0.0000000000000000     
 total        electrons   1134.5113766423656     
 total        electrons   1134.5113766423656     
 total        electrons   1134.5113766423656     
 total        electrons   1134.5113766423656     
 total        electrons   1134.5113766423656     
 total        electrons   1134.5113766423656     
 total        electrons   1134.5113766423656     
 total        electrons   1134.5113766423656     
 total        electrons   1134.5113766423656     
 total        electrons   1134.5113766423656     
 total        electrons   1134.5113766423656     
 total        electrons   1134.5113766423656     
 total        electrons   1134.5113766423656     
 total        electrons   1134.5113766423656     
 total        electrons   1134.5113766423656     
 total        electrons   1134.5113766423656     
 total        electrons   1134.5113766423656     
 total        electrons   1134.5113766423656     
 total        electrons   1134.5113766423656     
 total        electrons   1134.5113766423656     
 total        electrons   1134.5113766423656     
 total        electrons   1134.5113766423656     
 total        electrons   1134.5113766423656     
 total        electrons   1134.5113766423656     
 total        electrons   1134.5113766423656     
 total        electrons   1134.5113766423656     
 total        electrons   1134.5113766423656     
 total        electrons   1134.5113766423656     
 total        electrons   1134.5113766423656     
 total        electrons   1134.5113766423656     
 total        electrons   1134.5113766423656     
 total        electrons   1134.5113766423656     
 total        electrons   1134.5113766423656     
 total        electrons   1134.5113766423656     
 total        electrons   1134.5113766423656     
 total        electrons   1134.5113766423656     
 total        electrons   1134.5113766423656     
 total        electrons   1134.5113766423656     
 total        electrons   1134.5113766423656     
 total        electrons   1134.5113766423656     
 total        electrons   1134.5113766423656     
 total        electrons   1134.5113766423656     
 total        electrons   1134.5113766423656     
 total        electrons   1134.5113766423656     
 total        electrons   1134.5113766423656     
 total        electrons   1134.5113766423656     
 total        electrons   1134.5113766423656     
 total        electrons   1134.5113766423656     
 total        electrons   1134.5113766423656     
 total        electrons   1134.5113766423656     
 total        electrons   1134.5113766423656     
 total        electrons   1134.5113766423656     
 total        electrons   1134.5113766423656     
 total        electrons   1134.5113766423656     
 total        electrons   1134.5113766423656     
 total        electrons   1134.5113766423656     
 total        electrons   1134.5113766423656     
 total        electrons   1134.5113766423656     
 total        electrons   1134.5113766423656     
 total        electrons   1134.5113766423656     
 total        electrons   1134.5113766423656     
 total        electrons   1134.5113766423656     
 total        electrons   1134.5113766423656     
 total        electrons   1134.5113766423656     
 total        electrons   1134.5113766423656     
 total        electrons   1134.5113766423656     
 total        electrons   1134.5113766423656     
 total        electrons   1134.5113766423656     
 total        electrons   1134.5113766423656     
 total        electrons   1134.5113766423656     
 total        electrons   1134.5113766423656     
 total        electrons   1134.5113766423656     
 entering main loop
       N       E                     dE             d eps       ncg     rms          rms(c)
DAV:   1     0.229915249337E+04    0.22992E+04   -0.96036E+04  8096   0.124E+03
DAV:   2    -0.219635389292E+03   -0.25188E+04   -0.23401E+04  9376   0.303E+02
DAV:   3    -0.629452436633E+03   -0.40982E+03   -0.38999E+03 11408   0.142E+02
DAV:   4    -0.663321861549E+03   -0.33869E+02   -0.32397E+02 13112   0.457E+01
DAV:   5    -0.665337841465E+03   -0.20160E+01   -0.19436E+01 13736   0.107E+01    0.137E+02
RMM:   6    -0.616352512763E+03    0.48985E+02   -0.11471E+03 11392   0.896E+01    0.732E+01
RMM:   7    -0.679721932259E+03   -0.63369E+02   -0.41150E+02 10488   0.596E+01    0.504E+01
RMM:   8    -0.587159315641E+03    0.92563E+02   -0.10890E+02 10677   0.242E+01    0.351E+01
RMM:   9    -0.579242177906E+03    0.79171E+01   -0.51266E+01  9602   0.187E+01    0.287E+01
RMM:  10    -0.563967249798E+03    0.15275E+02   -0.20755E+01 10715   0.107E+01    0.219E+01
RMM:  11    -0.560633718116E+03    0.33335E+01   -0.79324E+00  8337   0.974E+00    0.174E+01
RMM:  12    -0.560682713536E+03   -0.48995E-01   -0.47276E+00 11012   0.274E+00    0.161E+01
RMM:  13    -0.560503726008E+03    0.17899E+00   -0.57327E-01  9218   0.180E+00    0.153E+01
RMM:  14    -0.560117992398E+03    0.38573E+00   -0.37452E-01  8871   0.178E+00    0.138E+01
RMM:  15    -0.559636319013E+03    0.48167E+00   -0.27870E+00  8515   0.537E+00    0.944E+00
RMM:  16    -0.558780466867E+03    0.85585E+00   -0.19376E+00  8144   0.485E+00    0.383E+00
RMM:  17    -0.558765968723E+03    0.14498E-01   -0.10637E+00 10991   0.163E+00    0.230E+00
RMM:  18    -0.558734419028E+03    0.31550E-01   -0.31507E-01 10822   0.106E+00    0.186E+00
RMM:  19    -0.558730801417E+03    0.36176E-02   -0.15475E-01  9326   0.112E+00    0.169E+00
RMM:  20    -0.558697158895E+03    0.33643E-01   -0.55861E-02  9149   0.718E-01    0.599E-01
RMM:  21    -0.558697055605E+03    0.10329E-03   -0.41596E-02 11028   0.320E-01    0.396E-01
RMM:  22    -0.558697428255E+03   -0.37265E-03   -0.13035E-02  9912   0.256E-01    0.374E-01
RMM:  23    -0.558696859657E+03    0.56860E-03   -0.47011E-03  8888   0.196E-01    0.237E-01
RMM:  24    -0.558697531998E+03   -0.67234E-03   -0.36455E-03 10720   0.111E-01    0.170E-01
RMM:  25    -0.558698626256E+03   -0.10943E-02   -0.17526E-03 10618   0.855E-02    0.880E-02
RMM:  26    -0.558699448678E+03   -0.82242E-03   -0.78108E-04 10468   0.568E-02    0.853E-02
RMM:  27    -0.558699981030E+03   -0.53235E-03   -0.35739E-04  9797   0.475E-02    0.582E-02
RMM:  28    -0.558700962644E+03   -0.98161E-03   -0.33789E-04 10001   0.295E-02    0.501E-02
RMM:  29    -0.558701710641E+03   -0.74800E-03   -0.36378E-04 10420   0.359E-02    0.414E-02
RMM:  30    -0.558702072167E+03   -0.36153E-03   -0.14760E-04  9879   0.184E-02    0.377E-02
RMM:  31    -0.558702179107E+03   -0.10694E-03   -0.44772E-05  9206   0.144E-02    0.267E-02
RMM:  32    -0.558702288642E+03   -0.10954E-03   -0.57841E-05 10280   0.142E-02    0.118E-02
RMM:  33    -0.558702343390E+03   -0.54748E-04   -0.22227E-05  7315   0.832E-03    0.732E-03
RMM:  34    -0.558702475836E+03   -0.13245E-03   -0.95682E-06  6666   0.913E-03    0.138E-02
RMM:  35    -0.558702586829E+03   -0.11099E-03   -0.95116E-06  6538   0.982E-03    0.699E-03
RMM:  36    -0.558702702437E+03   -0.11561E-03   -0.97690E-06  6486   0.685E-03    0.788E-03
RMM:  37    -0.558702761166E+03   -0.58729E-04   -0.50094E-06  6147   0.521E-03    0.444E-03
RMM:  38    -0.558702812382E+03   -0.51216E-04   -0.52103E-06  6106   0.421E-03    0.417E-03
RMM:  39    -0.558702823483E+03   -0.11101E-04   -0.14700E-06  5253   0.417E-03    0.260E-03
RMM:  40    -0.558702833547E+03   -0.10064E-04   -0.13220E-06  5221   0.304E-03    0.183E-03
RMM:  41    -0.558702838117E+03   -0.45705E-05   -0.70532E-07  4726   0.199E-03    0.750E-04
RMM:  42    -0.558702839461E+03   -0.13442E-05   -0.28760E-07  3980   0.146E-03    0.566E-04
RMM:  43    -0.558702840841E+03   -0.13793E-05   -0.20781E-07  3476   0.104E-03    0.298E-04
RMM:  44    -0.558702841714E+03   -0.87375E-06   -0.15322E-07  3159   0.933E-04
   1 F= -.55870284E+03 E0= -.55869954E+03  d E =-.558703E+03
 curvature:   0.00 expect dE= 0.000E+00 dE for cont linesearch  0.000E+00
 trial: gam= 0.00000 g(F)=  0.743E-01 g(S)=  0.000E+00 ort = 0.000E+00 (trialstep = 0.100E+01)
 search vector abs. value=  0.743E-01
 bond charge predicted
       N       E                     dE             d eps       ncg     rms          rms(c)
DAV:   1    -0.558758249658E+03   -0.55409E-01   -0.12481E+00  9136   0.236E+00    0.372E-01
RMM:   2    -0.558758420560E+03   -0.17090E-03   -0.25900E-02  9735   0.405E-01    0.234E-01
RMM:   3    -0.558766190357E+03   -0.77698E-02   -0.98521E-03  9777   0.299E-01    0.747E-01
RMM:   4    -0.558758258184E+03    0.79322E-02   -0.42904E-03  9703   0.202E-01    0.207E-01
RMM:   5    -0.558758046455E+03    0.21173E-03   -0.18459E-03  9042   0.133E-01    0.160E-01
RMM:   6    -0.558757912398E+03    0.13406E-03   -0.99914E-04  9687   0.820E-02    0.107E-01
RMM:   7    -0.558757810351E+03    0.10205E-03   -0.36637E-04  8707   0.583E-02    0.795E-02
RMM:   8    -0.558757770385E+03    0.39966E-04   -0.19359E-04  9891   0.349E-02    0.494E-02
RMM:   9    -0.558757770051E+03    0.33428E-06   -0.88519E-05  8792   0.269E-02    0.430E-02
RMM:  10    -0.558757750426E+03    0.19625E-04   -0.33798E-05  8436   0.178E-02    0.146E-02
RMM:  11    -0.558757751538E+03   -0.11123E-05   -0.23453E-05  7861   0.883E-03    0.110E-02
RMM:  12    -0.558757749642E+03    0.18963E-05   -0.66157E-06  6330   0.671E-03    0.623E-03
RMM:  13    -0.558757750121E+03   -0.47898E-06   -0.30693E-06  5714   0.526E-03
   2 F= -.55875775E+03 E0= -.55875450E+03  d E =-.549084E-01
 trial-energy change:   -0.054908  1 .order   -0.054203   -0.074331   -0.034075
 step:   1.7170(harm=  1.8465)  dis= 0.00000  next Energy=  -558.770227 (dE=-0.674E-01)
 bond charge predicted
       N       E                     dE             d eps       ncg     rms          rms(c)
DAV:   1    -0.558770706559E+03   -0.12957E-01   -0.65594E-01  8536   0.171E+00    0.285E-01
RMM:   2    -0.558770690098E+03    0.16461E-04   -0.14127E-02  9689   0.303E-01    0.184E-01
RMM:   3    -0.558775335784E+03   -0.46457E-02   -0.55861E-03  9694   0.230E-01    0.579E-01
RMM:   4    -0.558770567167E+03    0.47686E-02   -0.25332E-03  9649   0.156E-01    0.160E-01
RMM:   5    -0.558770442240E+03    0.12493E-03   -0.10636E-03  9037   0.103E-01    0.124E-01
RMM:   6    -0.558770371410E+03    0.70830E-04   -0.57063E-04  9677   0.629E-02    0.910E-02
RMM:   7    -0.558770309097E+03    0.62313E-04   -0.22869E-04  8571   0.470E-02    0.696E-02
RMM:   8    -0.558770273152E+03    0.35945E-04   -0.11586E-04  9778   0.276E-02    0.353E-02
RMM:   9    -0.558770271815E+03    0.13370E-05   -0.51306E-05  8600   0.207E-02    0.288E-02
RMM:  10    -0.558770263111E+03    0.87041E-05   -0.18956E-05  7829   0.130E-02    0.112E-02
RMM:  11    -0.558770263863E+03   -0.75238E-06   -0.12648E-05  6976   0.716E-03    0.833E-03
RMM:  12    -0.558770262924E+03    0.93884E-06   -0.34737E-06  5830   0.583E-03
   3 F= -.55877026E+03 E0= -.55876705E+03  d E =-.674212E-01
 curvature:  -0.90 expect dE=-0.116E-02 dE for cont linesearch -0.323E-07
 trial: gam= 0.01799 g(F)=  0.129E-02 g(S)=  0.000E+00 ort =-0.516E-04 (trialstep = 0.114E+01)
 search vector abs. value=  0.131E-02
 bond charge predicted
       N       E                     dE             d eps       ncg     rms          rms(c)
DAV:   1    -0.558771577259E+03   -0.13134E-02   -0.27512E-02  8696   0.360E-01    0.547E-02
RMM:   2    -0.558771586598E+03   -0.93391E-05   -0.41064E-04  9948   0.605E-02    0.406E-02
RMM:   3    -0.558771725088E+03   -0.13849E-03   -0.17705E-04  9655   0.412E-02    0.101E-01
RMM:   4    -0.558771606970E+03    0.11812E-03   -0.10113E-04  9513   0.293E-02    0.497E-02
RMM:   5    -0.558771580217E+03    0.26753E-04   -0.45568E-05  8367   0.242E-02    0.217E-02
RMM:   6    -0.558771580012E+03    0.20515E-06   -0.21681E-05  8272   0.117E-02    0.209E-02
RMM:   7    -0.558771577121E+03    0.28905E-05   -0.80549E-06  6170   0.938E-03    0.119E-02
RMM:   8    -0.558771575905E+03    0.12158E-05   -0.31102E-06  5694   0.589E-03    0.492E-03
RMM:   9    -0.558771576011E+03   -0.10601E-06   -0.14538E-06  5152   0.450E-03
   4 F= -.55877158E+03 E0= -.55876835E+03  d E =-.131309E-02
 trial-energy change:   -0.001313  1 .order   -0.001309   -0.001469   -0.001149
 step:   4.2990(harm=  5.2517)  dis= 0.02157  next Energy=  -558.773251 (dE=-0.299E-02)
 bond charge predicted
       N       E                     dE             d eps       ncg     rms          rms(c)
DAV:   1    -0.558773601823E+03   -0.20259E-02   -0.20981E-01  8424   0.994E-01    0.148E-01
RMM:   2    -0.558773630206E+03   -0.28383E-04   -0.30762E-03 10112   0.162E-01    0.100E-01
RMM:   3    -0.558774711366E+03   -0.10812E-02   -0.14160E-03 11042   0.888E-02    0.259E-01
RMM:   4    -0.558773714151E+03    0.99722E-03   -0.76876E-04  9413   0.807E-02    0.110E-01
RMM:   5    -0.558773617000E+03    0.97151E-04   -0.34522E-04  9759   0.515E-02    0.658E-02
RMM:   6    -0.558773578538E+03    0.38462E-04   -0.14534E-04  9449   0.335E-02    0.388E-02
RMM:   7    -0.558773576269E+03    0.22687E-05   -0.70091E-05  9353   0.215E-02    0.379E-02
RMM:   8    -0.558773563409E+03    0.12861E-04   -0.27416E-05  8132   0.148E-02    0.172E-02
RMM:   9    -0.558773561361E+03    0.20473E-05   -0.13005E-05  7428   0.938E-03    0.806E-03
RMM:  10    -0.558773561127E+03    0.23389E-06   -0.53158E-06  6207   0.537E-03
   5 F= -.55877356E+03 E0= -.55877029E+03  d E =-.329820E-02
 curvature:  -2.53 expect dE=-0.305E-02 dE for cont linesearch -0.118E-03
 ZBRENT: extrapolating
 opt :   5.3287  next Energy=  -558.773688 (dE=-0.343E-02)
 bond charge predicted
       N       E                     dE             d eps       ncg     rms          rms(c)
DAV:   1    -0.558773693322E+03   -0.13196E-03   -0.22337E-02  8744   0.325E-01    0.488E-02
RMM:   2    -0.558773700305E+03   -0.69829E-05   -0.34318E-04  9989   0.551E-02    0.342E-02
RMM:   3    -0.558773806405E+03   -0.10610E-03   -0.14747E-04 10903   0.291E-02    0.824E-02
RMM:   4    -0.558773713748E+03    0.92656E-04   -0.94236E-05  9368   0.281E-02    0.438E-02
RMM:   5    -0.558773696827E+03    0.16922E-04   -0.43581E-05  9027   0.200E-02    0.241E-02
RMM:   6    -0.558773694506E+03    0.23208E-05   -0.17881E-05  7637   0.123E-02    0.194E-02
RMM:   7    -0.558773691945E+03    0.25612E-05   -0.86361E-06  6423   0.859E-03    0.112E-02
RMM:   8    -0.558773691336E+03    0.60888E-06   -0.36848E-06  5789   0.689E-03
   6 F= -.55877369E+03 E0= -.55877040E+03  d E =-.342841E-02
 curvature:  -2.72 expect dE=-0.482E-02 dE for cont linesearch -0.653E-08
 trial: gam= 1.38485 g(F)=  0.177E-02 g(S)=  0.000E+00 ort =-0.177E-05 (trialstep = 0.606E+00)
 search vector abs. value=  0.427E-02
 bond charge predicted
       N       E                     dE             d eps       ncg     rms          rms(c)
DAV:   1    -0.558774627930E+03   -0.93599E-03   -0.24858E-02  8424   0.344E-01    0.488E-02
RMM:   2    -0.558774649219E+03   -0.21289E-04   -0.34539E-04  9932   0.554E-02    0.323E-02
RMM:   3    -0.558774756801E+03   -0.10758E-03   -0.15151E-04 10750   0.297E-02    0.813E-02
RMM:   4    -0.558774669114E+03    0.87687E-04   -0.81010E-05  9300   0.266E-02    0.410E-02
RMM:   5    -0.558774651234E+03    0.17880E-04   -0.37540E-05  9023   0.180E-02    0.198E-02
RMM:   6    -0.558774649066E+03    0.21683E-05   -0.16894E-05  7375   0.105E-02    0.132E-02
RMM:   7    -0.558774649434E+03   -0.36878E-06   -0.72016E-06  6204   0.795E-03
   7 F= -.55877465E+03 E0= -.55877135E+03  d E =-.958098E-03
 trial-energy change:   -0.000958  1 .order   -0.000952   -0.001072   -0.000833
 step:   2.0148(harm=  2.7147)  dis= 0.01645  next Energy=  -558.775692 (dE=-0.200E-02)
 bond charge predicted
       N       E                     dE             d eps       ncg     rms          rms(c)
DAV:   1    -0.558775863442E+03   -0.12144E-02   -0.13454E-01  8288   0.799E-01    0.113E-01
RMM:   2    -0.558775982289E+03   -0.11885E-03   -0.18476E-03 10117   0.125E-01    0.785E-02
RMM:   3    -0.558776655515E+03   -0.67323E-03   -0.81521E-04 10670   0.716E-02    0.209E-01
RMM:   4    -0.558776072598E+03    0.58292E-03   -0.49860E-04  9286   0.675E-02    0.943E-02
RMM:   5    -0.558775974423E+03    0.98175E-04   -0.20174E-04  9165   0.445E-02    0.460E-02
RMM:   6    -0.558775970133E+03    0.42897E-05   -0.89533E-05  9605   0.237E-02    0.383E-02
RMM:   7    -0.558775960517E+03    0.96165E-05   -0.37801E-05  8453   0.161E-02    0.193E-02
RMM:   8    -0.558775957233E+03    0.32843E-05   -0.13667E-05  7177   0.966E-03    0.101E-02
RMM:   9    -0.558775956771E+03    0.46194E-06   -0.59853E-06  6284   0.702E-03
   8 F= -.55877596E+03 E0= -.55877259E+03  d E =-.226543E-02
 curvature:  -2.92 expect dE=-0.472E-03 dE for cont linesearch -0.148E-03
 ZBRENT: increasing intervall
 opt :   4.8325  next Energy=  -558.774708 (dE=-0.102E-02)
 bond charge predicted
       N       E                     dE             d eps       ncg     rms          rms(c)
DAV:   1    -0.558774389148E+03    0.15681E-02   -0.53889E-01  8144   0.160E+00    0.229E-01
RMM:   2    -0.558774840542E+03   -0.45139E-03   -0.74012E-03 10116   0.249E-01    0.161E-01
RMM:   3    -0.558777458649E+03   -0.26181E-02   -0.31234E-03 10546   0.146E-01    0.414E-01
RMM:   4    -0.558775176502E+03    0.22821E-02   -0.19359E-03  9369   0.132E-01    0.182E-01
RMM:   5    -0.558774848978E+03    0.32752E-03   -0.81102E-04  9476   0.858E-02    0.105E-01
RMM:   6    -0.558774748378E+03    0.10060E-03   -0.33286E-04  9489   0.505E-02    0.520E-02
RMM:   7    -0.558774761463E+03   -0.13085E-04   -0.16707E-04  9726   0.317E-02    0.613E-02
RMM:   8    -0.558774727137E+03    0.34326E-04   -0.56626E-05  8693   0.219E-02    0.223E-02
RMM:   9    -0.558774724275E+03    0.28620E-05   -0.29031E-05  8566   0.123E-02    0.104E-02
RMM:  10    -0.558774724749E+03   -0.47365E-06   -0.10700E-05  7263   0.672E-03    0.732E-03
RMM:  11    -0.558774725228E+03   -0.47909E-06   -0.33446E-06  5777   0.605E-03
   9 F= -.55877473E+03 E0= -.55877127E+03  d E =-.103389E-02
 curvature:  24.64 expect dE= 0.234E-01 dE for cont linesearch  0.106E-01
 ZBRENT: bracketing found
 ZBRENT: interpolating
 opt :   2.7336  next Energy=  -558.776124 (dE=-0.243E-02)
 bond charge predicted
       N       E                     dE             d eps       ncg     rms          rms(c)
DAV:   1    -0.558775946676E+03   -0.12219E-02   -0.29834E-01  8160   0.119E+00    0.171E-01
RMM:   2    -0.558776203363E+03   -0.25669E-03   -0.40970E-03 10125   0.186E-01    0.121E-01
RMM:   3    -0.558777704725E+03   -0.15014E-02   -0.17247E-03 10555   0.108E-01    0.314E-01
RMM:   4    -0.558776409678E+03    0.12950E-02   -0.11196E-03  9338   0.100E-01    0.141E-01
RMM:   5    -0.558776196342E+03    0.21334E-03   -0.44146E-04  9374   0.648E-02    0.728E-02
RMM:   6    -0.558776157433E+03    0.38908E-04   -0.18153E-04  9603   0.367E-02    0.459E-02
RMM:   7    -0.558776154529E+03    0.29048E-05   -0.86480E-05  9326   0.238E-02    0.398E-02
RMM:   8    -0.558776140782E+03    0.13747E-04   -0.31436E-05  8205   0.164E-02    0.177E-02
RMM:   9    -0.558776137640E+03    0.31418E-05   -0.14951E-05  7453   0.938E-03    0.728E-03
RMM:  10    -0.558776137999E+03   -0.35850E-06   -0.56117E-06  6290   0.572E-03
  10 F= -.55877614E+03 E0= -.55877276E+03  d E =-.244666E-02
 curvature:  -0.39 expect dE=-0.124E-04 dE for cont linesearch -0.335E-07
 ZBRENT: interpolating
 opt :   2.7642  next Energy=  -558.776138 (dE=-0.245E-02)
 bond charge predicted
       N       E                     dE             d eps       ncg     rms          rms(c)
DAV:   1    -0.558776138072E+03   -0.43194E-06   -0.64228E-05 11136   0.215E-02    0.518E-03
RMM:   2    -0.558776140304E+03   -0.22324E-05   -0.66008E-06  6451   0.852E-03    0.127E-02
RMM:   3    -0.558776138238E+03    0.20660E-05   -0.17459E-06  5216   0.677E-03    0.290E-03
RMM:   4    -0.558776138566E+03   -0.32742E-06   -0.60085E-07  4402   0.283E-03    0.564E-03
RMM:   5    -0.558776138482E+03    0.84307E-07   -0.44022E-07  4288   0.304E-03
  11 F= -.55877614E+03 E0= -.55877275E+03  d E =-.244715E-02
 curvature:  -3.44 expect dE=-0.110E-03 dE for cont linesearch -0.662E-07
 ZBRENT: interpolating
 opt :   2.7544  next Energy=  -558.776139 (dE=-0.245E-02)
 bond charge predicted
       N       E                     dE             d eps       ncg     rms          rms(c)
DAV:   1    -0.558776138497E+03    0.68683E-07   -0.69577E-06  7664   0.719E-03    0.231E-03
RMM:   2    -0.558776140404E+03   -0.19065E-05   -0.21489E-06  5466   0.511E-03    0.133E-02
RMM:   3    -0.558776138563E+03    0.18410E-05   -0.80363E-07  4575   0.433E-03    0.196E-03
RMM:   4    -0.558776138555E+03    0.73778E-08   -0.12798E-07  3872   0.113E-03    0.102E-03
RMM:   5    -0.558776138569E+03   -0.13217E-07   -0.56907E-08  3281   0.955E-04
  12 F= -.55877614E+03 E0= -.55877275E+03  d E =-.244723E-02
 curvature:  -2.31 expect dE=-0.743E-04 dE for cont linesearch -0.993E-09
 trial: gam=-0.01276 g(F)=  0.322E-04 g(S)=  0.000E+00 ort =-0.136E-05 (trialstep = 0.104E+01)
 search vector abs. value=  0.329E-04
 bond charge predicted
       N       E                     dE             d eps       ncg     rms          rms(c)
DAV:   1    -0.558776163034E+03   -0.24479E-04   -0.60846E-04  8472   0.518E-02    0.882E-03
RMM:   2    -0.558776162647E+03    0.38772E-06   -0.12351E-05  7234   0.100E-02    0.585E-03
RMM:   3    -0.558776165596E+03   -0.29498E-05   -0.51606E-06  6290   0.746E-03    0.166E-02
RMM:   4    -0.558776162844E+03    0.27519E-05   -0.24192E-06  5357   0.643E-03    0.594E-03
RMM:   5    -0.558776162772E+03    0.71981E-07   -0.13915E-06  4915   0.420E-03
  13 F= -.55877616E+03 E0= -.55877278E+03  d E =-.242038E-04
 trial-energy change:   -0.000024  1 .order   -0.000024   -0.000033   -0.000014
 step:   1.7753(harm=  1.7753)  dis= 0.00014  next Energy=  -558.776167 (dE=-0.286E-04)
 reached required accuracy - stopping structural energy minimisation
 augmentation electrons   27.874706121335407     
 soft         electrons   240.24587065635166     
 augmentation electrons   27.874706121335407     
 soft         electrons   240.24587065635166     
 augmentation electrons   27.874706121335407     
 soft         electrons   240.24587065635166     
 augmentation electrons   27.874706121335407     
 soft         electrons   240.24587065635166     
 augmentation electrons   27.874706121335407     
 soft         electrons   240.24587065635166     
 augmentation electrons   27.874706121335407     
 soft         electrons   240.24587065635166     
 augmentation electrons   27.874706121335407     
 soft         electrons   240.24587065635166     
 augmentation electrons   27.874706121335407     
 soft         electrons   240.24587065635166     
 augmentation electrons   27.874706121335407     
 soft         electrons   240.24587065635166     
 augmentation electrons   27.874706121335407     
 soft         electrons   240.24587065635166     
 augmentation electrons   27.874706121335407     
 soft         electrons   240.24587065635166     
 augmentation electrons   27.874706121335407     
 soft         electrons   240.24587065635166     
 augmentation electrons   27.874706121335407     
 soft         electrons   240.24587065635166     
 augmentation electrons   27.874706121335407     
 soft         electrons   240.24587065635166     
 augmentation electrons   27.874706121335407     
 soft         electrons   240.24587065635166     
 augmentation electrons   27.874706121335407     
 soft         electrons   240.24587065635166     
 augmentation electrons   27.874706121335407     
 soft         electrons   240.24587065635166     
 augmentation electrons   27.874706121335407     
 soft         electrons   240.24587065635166     
 augmentation electrons   27.874706121335407     
 soft         electrons   240.24587065635166     
 augmentation electrons   27.874706121335407     
 soft         electrons   240.24587065635166     
 augmentation electrons   27.874706121335407     
 soft         electrons   240.24587065635166     
 augmentation electrons   27.874706121335407     
 soft         electrons   240.24587065635166     
 augmentation electrons   27.874706121335407     
 soft         electrons   240.24587065635166     
 augmentation electrons   27.874706121335407     
 soft         electrons   240.24587065635166     
 augmentation electrons   27.874706121335407     
 soft         electrons   240.24587065635166     
 augmentation electrons   27.874706121335407     
 soft         electrons   240.24587065635166     
 augmentation electrons   27.874706121335407     
 soft         electrons   240.24587065635166     
 augmentation electrons   27.874706121335407     
 soft         electrons   240.24587065635166     
 augmentation electrons   27.874706121335407     
 soft         electrons   240.24587065635166     
 augmentation electrons   27.874706121335407     
 soft         electrons   240.24587065635166     
 augmentation electrons   27.874706121335407     
 soft         electrons   240.24587065635166     
 augmentation electrons   27.874706121335407     
 soft         electrons   240.24587065635166     
 augmentation electrons   27.874706121335407     
 soft         electrons   240.24587065635166     
 augmentation electrons   27.874706121335407     
 soft         electrons   240.24587065635166     
 augmentation electrons   27.874706121335407     
 soft         electrons   240.24587065635166     
 augmentation electrons   27.874706121335407     
 soft         electrons   240.24587065635166     
 augmentation electrons   27.874706121335407     
 soft         electrons   240.24587065635166     
 augmentation electrons   27.874706121335407     
 soft         electrons   240.24587065635166     
 augmentation electrons   27.874706121335407     
 soft         electrons   240.24587065635166     
 augmentation electrons   27.874706121335407     
 soft         electrons   240.24587065635166     
 augmentation electrons   27.874706121335407     
 soft         electrons   240.24587065635166     
 augmentation electrons   27.874706121335407     
 soft         electrons   240.24587065635166     
 augmentation electrons   27.874706121335407     
 soft         electrons   240.24587065635166     
 augmentation electrons   27.874706121335407     
 soft         electrons   240.24587065635166     
 augmentation electrons   27.874706121335407     
 soft         electrons   240.24587065635166     
 augmentation electrons   27.874706121335407     
 soft         electrons   240.24587065635166     
 augmentation electrons   27.874706121335407     
 soft         electrons   240.24587065635166     
 augmentation electrons   27.874706121335407     
 soft         electrons   240.24587065635166     
 augmentation electrons   27.874706121335407     
 soft         electrons   240.24587065635166     
 augmentation electrons   27.874706121335407     
 soft         electrons   240.24587065635166     
 augmentation electrons   27.874706121335407     
 soft         electrons   240.24587065635166     
 augmentation electrons   27.874706121335407     
 soft         electrons   240.24587065635166     
 augmentation electrons   27.874706121335407     
 soft         electrons   240.24587065635166     
 augmentation electrons   27.874706121335407     
 soft         electrons   240.24587065635166     
 augmentation electrons   27.874706121335407     
 soft         electrons   240.24587065635166     
 augmentation electrons   27.874706121335407     
 augmentation electrons   27.874706121335407     
 soft         electrons   240.24587065635166     
 augmentation electrons   27.874706121335407     
 soft         electrons   240.24587065635166     
 augmentation electrons   27.874706121335407     
 soft         electrons   240.24587065635166     
 augmentation electrons   27.874706121335407     
 soft         electrons   240.24587065635166     
 augmentation electrons   27.874706121335407     
 soft         electrons   240.24587065635166     
 augmentation electrons   27.874706121335407     
 soft         electrons   240.24587065635166     
 augmentation electrons   27.874706121335407     
 soft         electrons   240.24587065635166     
 augmentation electrons   27.874706121335407     
 soft         electrons   240.24587065635166     
 augmentation electrons   27.874706121335407     
 soft         electrons   240.24587065635166     
 augmentation electrons   27.874706121335407     
 soft         electrons   240.24587065635166     
 augmentation electrons   27.874706121335407     
 soft         electrons   240.24587065635166     
 augmentation electrons   27.874706121335407     
 soft         electrons   240.24587065635166     
 augmentation electrons   27.874706121335407     
 soft         electrons   240.24587065635166     
 augmentation electrons   27.874706121335407     
 soft         electrons   240.24587065635166     
 augmentation electrons   27.874706121335407     
 soft         electrons   240.24587065635166     
 augmentation electrons   27.874706121335407     
 soft         electrons   240.24587065635166     
 soft         electrons   240.24587065635166     
 total        electrons   268.12057677768706     
 total        electrons   268.12057677768706     
 total        electrons   268.12057677768706     
 total        electrons   268.12057677768706     
 total        electrons   268.12057677768706     
 total        electrons   268.12057677768706     
 total        electrons   268.12057677768706     
 total        electrons   268.12057677768706     
 total        electrons   268.12057677768706     
 total        electrons   268.12057677768706     
 total        electrons   268.12057677768706     
 total        electrons   268.12057677768706     
 total        electrons   268.12057677768706     
 total        electrons   268.12057677768706     
 total        electrons   268.12057677768706     
 total        electrons   268.12057677768706     
 total        electrons   268.12057677768706     
 total        electrons   268.12057677768706     
 total        electrons   268.12057677768706     
 total        electrons   268.12057677768706     
 total        electrons   268.12057677768706     
 total        electrons   268.12057677768706     
 total        electrons   268.12057677768706     
 total        electrons   268.12057677768706     
 total        electrons   268.12057677768706     
 total        electrons   268.12057677768706     
 total        electrons   268.12057677768706     
 total        electrons   268.12057677768706     
 total        electrons   268.12057677768706     
 total        electrons   268.12057677768706     
 total        electrons   268.12057677768706     
 total        electrons   268.12057677768706     
 total        electrons   268.12057677768706     
 total        electrons   268.12057677768706     
 total        electrons   268.12057677768706     
 total        electrons   268.12057677768706     
 total        electrons   268.12057677768706     
 total        electrons   268.12057677768706     
 total        electrons   268.12057677768706     
 total        electrons   268.12057677768706     
 total        electrons   268.12057677768706     
 total        electrons   268.12057677768706     
 total        electrons   268.12057677768706     
 total        electrons   268.12057677768706     
 total        electrons   268.12057677768706     
 total        electrons   268.12057677768706     
 total        electrons   268.12057677768706     
 total        electrons   268.12057677768706     
 total        electrons   268.12057677768706     
 total        electrons   268.12057677768706     
 total        electrons   268.12057677768706     
 total        electrons   268.12057677768706     
 total        electrons   268.12057677768706     
 total        electrons   268.12057677768706     
 total        electrons   268.12057677768706     
 total        electrons   268.12057677768706     
 total        electrons   268.12057677768706     
 total        electrons   268.12057677768706     
 total        electrons   268.12057677768706     
 total        electrons   268.12057677768706     
 total        electrons   268.12057677768706     
 total        electrons   268.12057677768706     
 total        electrons   268.12057677768706     
 total        electrons   268.12057677768706     
 total        electrons   268.12057677768706     
 total        electrons   268.12057677768706     
 total        electrons   268.12057677768706     
 total        electrons   268.12057677768706     
 total        electrons   268.12057677768706     
 total        electrons   268.12057677768706     
 total        electrons   268.12057677768706     
 total        electrons   268.12057677768706     
Note: The following floating-point exceptions are signalling: IEEE_OVERFLOW_FLAG
Note: The following floating-point exceptions are signalling: IEEE_OVERFLOW_FLAG
Note: The following floating-point exceptions are signalling: IEEE_OVERFLOW_FLAG
Note: The following floating-point exceptions are signalling: IEEE_OVERFLOW_FLAG
Note: The following floating-point exceptions are signalling: IEEE_OVERFLOW_FLAG
Note: The following floating-point exceptions are signalling: IEEE_OVERFLOW_FLAG
Note: The following floating-point exceptions are signalling: IEEE_OVERFLOW_FLAG
Note: The following floating-point exceptions are signalling: IEEE_OVERFLOW_FLAG
Note: The following floating-point exceptions are signalling: IEEE_OVERFLOW_FLAG
Note: The following floating-point exceptions are signalling: IEEE_OVERFLOW_FLAG
Note: The following floating-point exceptions are signalling: IEEE_OVERFLOW_FLAG
Note: The following floating-point exceptions are signalling: IEEE_OVERFLOW_FLAG
Note: The following floating-point exceptions are signalling: IEEE_OVERFLOW_FLAG
Note: The following floating-point exceptions are signalling: IEEE_OVERFLOW_FLAG
Note: The following floating-point exceptions are signalling: IEEE_OVERFLOW_FLAG
Note: The following floating-point exceptions are signalling: IEEE_OVERFLOW_FLAG
Note: The following floating-point exceptions are signalling: IEEE_OVERFLOW_FLAG
Note: The following floating-point exceptions are signalling: IEEE_OVERFLOW_FLAG
Note: The following floating-point exceptions are signalling: IEEE_OVERFLOW_FLAG
Note: The following floating-point exceptions are signalling: IEEE_OVERFLOW_FLAG
Note: The following floating-point exceptions are signalling: IEEE_OVERFLOW_FLAG
Note: The following floating-point exceptions are signalling: IEEE_OVERFLOW_FLAG
Note: The following floating-point exceptions are signalling: IEEE_INVALID_FLAG IEEE_OVERFLOW_FLAG
Note: The following floating-point exceptions are signalling: IEEE_OVERFLOW_FLAG
Note: The following floating-point exceptions are signalling: IEEE_OVERFLOW_FLAG
Note: The following floating-point exceptions are signalling: IEEE_OVERFLOW_FLAG
Note: The following floating-point exceptions are signalling: IEEE_OVERFLOW_FLAG
Note: The following floating-point exceptions are signalling: IEEE_OVERFLOW_FLAG
Note: The following floating-point exceptions are signalling: IEEE_OVERFLOW_FLAG
Note: The following floating-point exceptions are signalling: IEEE_OVERFLOW_FLAG
Note: The following floating-point exceptions are signalling: IEEE_OVERFLOW_FLAG
Note: The following floating-point exceptions are signalling: IEEE_OVERFLOW_FLAG
Note: The following floating-point exceptions are signalling: IEEE_OVERFLOW_FLAG
Note: The following floating-point exceptions are signalling: IEEE_OVERFLOW_FLAG
Note: The following floating-point exceptions are signalling: IEEE_OVERFLOW_FLAG
Note: The following floating-point exceptions are signalling: IEEE_OVERFLOW_FLAG
Note: The following floating-point exceptions are signalling: IEEE_OVERFLOW_FLAG
Note: The following floating-point exceptions are signalling: IEEE_OVERFLOW_FLAG
Note: The following floating-point exceptions are signalling: IEEE_OVERFLOW_FLAG
Note: The following floating-point exceptions are signalling: IEEE_OVERFLOW_FLAG
Note: The following floating-point exceptions are signalling: IEEE_OVERFLOW_FLAG
Note: The following floating-point exceptions are signalling: IEEE_OVERFLOW_FLAG
Note: The following floating-point exceptions are signalling: IEEE_OVERFLOW_FLAG
Note: The following floating-point exceptions are signalling: IEEE_OVERFLOW_FLAG
Note: The following floating-point exceptions are signalling: IEEE_OVERFLOW_FLAG
Note: The following floating-point exceptions are signalling: IEEE_OVERFLOW_FLAG
Note: The following floating-point exceptions are signalling: IEEE_OVERFLOW_FLAG
Note: The following floating-point exceptions are signalling: IEEE_OVERFLOW_FLAG
Note: The following floating-point exceptions are signalling: IEEE_OVERFLOW_FLAG
Note: The following floating-point exceptions are signalling: IEEE_OVERFLOW_FLAG
Note: The following floating-point exceptions are signalling: IEEE_OVERFLOW_FLAG
Note: The following floating-point exceptions are signalling: IEEE_OVERFLOW_FLAG
Note: The following floating-point exceptions are signalling: IEEE_OVERFLOW_FLAG
Note: The following floating-point exceptions are signalling: IEEE_OVERFLOW_FLAG
Note: The following floating-point exceptions are signalling: IEEE_OVERFLOW_FLAG
Note: The following floating-point exceptions are signalling: IEEE_OVERFLOW_FLAG
Note: The following floating-point exceptions are signalling: IEEE_OVERFLOW_FLAG
Note: The following floating-point exceptions are signalling: IEEE_OVERFLOW_FLAG
Note: The following floating-point exceptions are signalling: IEEE_OVERFLOW_FLAG
Note: The following floating-point exceptions are signalling: IEEE_OVERFLOW_FLAG
Note: The following floating-point exceptions are signalling: IEEE_OVERFLOW_FLAG
Note: The following floating-point exceptions are signalling: IEEE_OVERFLOW_FLAG
Note: The following floating-point exceptions are signalling: IEEE_OVERFLOW_FLAG
Note: The following floating-point exceptions are signalling: IEEE_OVERFLOW_FLAG
Note: The following floating-point exceptions are signalling: IEEE_OVERFLOW_FLAG
Note: The following floating-point exceptions are signalling: IEEE_OVERFLOW_FLAG
Note: The following floating-point exceptions are signalling: IEEE_OVERFLOW_FLAG
Note: The following floating-point exceptions are signalling: IEEE_OVERFLOW_FLAG
Note: The following floating-point exceptions are signalling: IEEE_OVERFLOW_FLAG
Note: The following floating-point exceptions are signalling: IEEE_OVERFLOW_FLAG
Note: The following floating-point exceptions are signalling: IEEE_OVERFLOW_FLAG
Note: The following floating-point exceptions are signalling: IEEE_OVERFLOW_FLAG
