    3    3    1    1
  0.7840870E+01  0.2996330E-09  0.2996330E-09  0.3025349E-09  0.5000000E-15
   1.0000000000000000E-004
  CAR 
 Name                                    
     11    216     10

  0.3742002E-15  0.3742002E-15  0.3742002E-15  0.2962963E-03
    1       -5.697077   1.000000
    2        5.137352   1.000000
    3        5.137354   1.000000
    4        5.856820   1.000000
    5        6.550576   1.000000
    6        9.415725  -0.000000
    7        9.415726  -0.000000
    8       11.898426   0.000000
    9       11.898428   0.000000
   10       14.025556   0.000000

  0.6666667E-01  0.3735550E-15  0.3742002E-15  0.1777778E-02
    1       -5.611445   1.000000
    2        4.913502   1.000000
    3        5.136062   1.000000
    4        5.883568   1.000000
    5        6.425607   1.000000
    6        9.395874  -0.000000
    7        9.629898  -0.000000
    8       11.485877  -0.000000
    9       11.520025  -0.000000
   10       14.454678   0.000000

  0.1333333E+00  0.3761975E-15  0.3742002E-15  0.1777778E-02
    1       -5.356997   1.000000
    2        4.292731   1.000000
    3        5.125526   1.000000
    4        5.953765   1.000000
    5        6.143465   1.000000
    6        9.340191  -0.000015
    7       10.167315  -0.000000
    8       10.792386  -0.000000
    9       10.916584  -0.000000
   10       15.112021   0.000000

  0.2000000E+00  0.3748230E-15  0.3742002E-15  0.1777778E-02
    1       -4.940904   1.000000
    2        3.402331   1.000000
    3        5.091222   1.000000
    4        5.837553   1.000000
    5        6.009753   1.000000
    6        9.259430  -0.001168
    7       10.258039  -0.000000
    8       10.445510  -0.000000
    9       10.853578  -0.000000
   10       15.603139   0.000000

  0.2666667E+00  0.3561396E-15  0.3742002E-15  0.1777778E-02
    1       -4.374267   1.000000
    2        2.365068   1.000000
    3        5.025479   1.000000
    4        5.576310   1.000000
    5        5.978115   1.000000
    6        9.168438  -0.023616
    7       10.035887  -0.000000
    8       10.164986  -0.000000
    9       11.540196  -0.000000
   10       15.960448   0.000000

  0.3333333E+00  0.3865122E-15  0.3742002E-15  0.1777778E-02
    1       -3.671195   1.000000
    2        1.266651   1.000000
    3        4.939186   1.000000
    4        5.382982   1.000000
    5        5.849610   1.000000
    6        9.083109   0.028557
    7       10.046780  -0.000000
    8       10.121964  -0.000000
    9       12.078953   0.000000
   10       15.634292   0.000000

  0.4000000E+00  0.3886199E-15  0.3742002E-15  0.1777778E-02
    1       -2.848000   1.000000
    2        0.163415   1.000000
    3        4.858401   1.000000
    4        5.259699   1.000000
    5        5.696033   1.000000
    6        9.017524   0.433402
    7       10.026514  -0.000000
    8       10.369188  -0.000000
    9       12.360846   0.000000
   10       15.463350   0.000000

  0.4666667E+00  0.3837633E-15  0.3742002E-15  0.1777778E-02
    1       -1.924675   1.000000
    2       -0.904213   1.000000
    3        4.810058   1.000000
    4        5.200734   1.000000
    5        5.597894   1.000000
    6        8.982023   0.724036
    7       10.037173  -0.000000
    8       10.571326  -0.000000
    9       12.438321   0.000000
   10       15.479641   0.000000

  0.6666667E-01  0.6666667E-01  0.3742002E-15  0.1777778E-02
    1       -5.441381   1.000000
    2        4.518825   1.000000
    3        5.082371   1.000000
    4        5.952605   1.000000
    5        6.226818   1.000000
    6        9.347815  -0.000009
    7       10.011669  -0.000000
    8       11.001643  -0.000000
    9       11.040990  -0.000000
   10       15.088443   0.000000

  0.1333333E+00  0.6666667E-01  0.3742002E-15  0.3555556E-02
    1       -5.106053   1.000000
    2        3.810840   1.000000
    3        4.936302   1.000000
    4        5.948931   1.000000
    5        6.096313   1.000000
    6        9.251004  -0.001687
    7       10.414817  -0.000000
    8       10.585606  -0.000000
    9       10.639471  -0.000000
   10       15.680428   0.000000

  0.2000000E+00  0.6666667E-01  0.3742002E-15  0.3555556E-02
    1       -4.614547   1.000000
    2        2.883978   1.000000
    3        4.733342   1.000000
    4        5.687248   1.000000
    5        6.240533   1.000000
    6        9.122604  -0.033881
    7        9.983045  -0.000000
    8       10.324818  -0.000000
    9       11.359067  -0.000000
   10       16.061208   0.000000

  0.2666667E+00  0.6666667E-01  0.3742002E-15  0.3555556E-02
    1       -3.979376   1.000000
    2        1.838884   1.000000
    3        4.509306   1.000000
    4        5.483160   1.000000
    5        6.308177   1.000000
    6        8.982925   0.717289
    7        9.803143  -0.000000
    8       10.264104  -0.000000
    9       12.026950   0.000000
   10       15.792867   0.000000

  0.3333333E+00  0.6666667E-01  0.3742002E-15  0.3555556E-02
    1       -3.215727   1.000000
    2        0.749926   1.000000
    3        4.308107   1.000000
    4        5.346082   1.000000
    5        6.286370   1.000000
    6        8.855563   1.025809
    7        9.833749  -0.000000
    8       10.346139  -0.000000
    9       12.493208   0.000000
   10       15.476587   0.000000

  0.4000000E+00  0.6666667E-01  0.3742002E-15  0.3555556E-02
    1       -2.341063   1.000000
    2       -0.331244   1.000000
    3        4.169984   1.000000
    4        5.270349   1.000000
    5        6.232096   1.000000
    6        8.765309   1.001487
    7        9.932055  -0.000000
    8       10.479162  -0.000000
    9       12.695441   0.000000
   10       15.438580   0.000000

  0.4666667E+00  0.6666667E-01  0.3742002E-15  0.1777778E-02
    1       -1.428613   1.000000
    2       -1.314264   1.000000
    3        4.121018   1.000000
    4        5.246539   1.000000
    5        6.206416   1.000000
    6        8.732521   1.000317
    7        9.977483  -0.000000
    8       10.544845  -0.000000
    9       12.736709   0.000000
   10       15.469473   0.000000

  0.1333333E+00  0.1333333E+00  0.3742002E-15  0.1777778E-02
    1       -4.695179   1.000000
    2        3.162362   1.000000
    3        4.472203   1.000000
    4        5.738030   1.000000
    5        6.394486   1.000000
    6        9.063825   0.107725
    7        9.963835  -0.000000
    8       10.389828  -0.000000
    9       11.329899  -0.000000
   10       16.514711   0.000000

  0.2000000E+00  0.1333333E+00  0.3742002E-15  0.3555556E-02
    1       -4.134753   1.000000
    2        2.336765   1.000000
    3        3.966339   1.000000
    4        5.570563   1.000000
    5        6.711861   1.000000
    6        8.816054   1.009785
    7        9.608042  -0.000000
    8       10.362986  -0.000000
    9       12.097542   0.000000
   10       15.898986   0.000000

  0.2666667E+00  0.1333333E+00  0.3742002E-15  0.3555556E-02
    1       -3.438345   1.000000
    2        1.366030   1.000000
    3        3.556251   1.000000
    4        5.466632   1.000000
    5        6.938725   1.000000
    6        8.552725   1.000000
    7        9.479827  -0.000000
    8       10.409099  -0.000000
    9       12.789744   0.000000
   10       15.479751   0.000000

  0.3333333E+00  0.1333333E+00  0.3742002E-15  0.3555556E-02
    1       -2.622267   1.000000
    2        0.327184   1.000000
    3        3.278748   1.000000
    4        5.419049   1.000000
    5        7.028799   1.000000
    6        8.327284   1.000000
    7        9.590326  -0.000000
    8       10.430253  -0.000000
    9       13.237922   0.000000
   10       15.346218   0.000000

  0.4000000E+00  0.1333333E+00  0.3742002E-15  0.3555556E-02
    1       -1.705795   1.000000
    2       -0.711850   1.000000
    3        3.139329   1.000000
    4        5.405350   1.000000
    5        7.039593   1.000000
    6        8.195371   1.000000
    7        9.776602  -0.000000
    8       10.390470  -0.000000
    9       13.402870   0.000000
   10       15.400438   0.000000

  0.2000000E+00  0.2000000E+00  0.3742002E-15  0.1777778E-02
    1       -3.512856   1.000000
    2        1.726752   1.000000
    3        3.143963   1.000000
    4        5.525617   1.000000
    5        7.216607   1.000000
    6        8.412627   1.000000
    7        9.298278  -0.000174
    8       10.435793  -0.000000
    9       12.927721   0.000000
   10       15.479202   0.000000

  0.2666667E+00  0.2000000E+00  0.3742002E-15  0.3555556E-02
    1       -2.763724   1.000000
    2        0.950409   1.000000
    3        2.525795   1.000000
    4        5.555066   1.000000
    5        7.618480   1.000000
    6        7.999237   1.000000
    7        9.197378  -0.011635
    8       10.423968  -0.000000
    9       13.671815   0.000000
   10       15.237936   0.000000

  0.3333333E+00  0.2000000E+00  0.3742002E-15  0.3555556E-02
    1       -1.906741   1.000000
    2        0.014326   1.000000
    3        2.195557   1.000000
    4        5.623948   1.000000
    5        7.674309   1.000000
    6        7.800683   1.000000
    7        9.383671  -0.000001
    8       10.269211  -0.000000
    9       14.099854   0.000000
   10       15.251378   0.000000

  0.4000000E+00  0.2000000E+00  0.3742002E-15  0.1777778E-02
    1       -1.016942   1.000000
    2       -0.914641   1.000000
    3        2.095019   1.000000
    4        5.662003   1.000000
    5        7.546600   1.000000
    6        7.834103   1.000000
    7        9.592283  -0.000000
    8       10.104693  -0.000000
    9       14.197851   0.000000
   10       15.335392   0.000000

  0.2666667E+00  0.2666667E+00  0.3742002E-15  0.1777778E-02
    1       -1.974195   1.000000
    2        0.505347   1.000000
    3        1.629373   1.000000
    4        5.745524   1.000000
    5        7.441960   1.000000
    6        8.246669   1.000000
    7        9.047846   0.201271
    8       10.232639  -0.000000
    9       14.470554   0.000000
   10       15.102381   0.000000

  0.3333333E+00  0.2666667E+00  0.3742002E-15  0.3555556E-02
    1       -1.106537   1.000000
    2       -0.188928   1.000000
    3        1.170525   1.000000
    4        5.966483   1.000000
    5        7.021614   1.000000
    6        8.556319   1.000000
    7        9.246721  -0.002021
    8        9.864820  -0.000000
    9       14.829614   0.000000
   10       15.193233   0.000000

  0.3333333E+00  0.3333333E+00  0.3742002E-15  0.5925926E-03
    1       -0.413477   1.000000
    2       -0.413475   1.000000
    3        0.556360   1.000000
    4        6.439259   1.000000
    5        6.439260   1.000000
    6        9.187352  -0.015322
    7        9.187352  -0.015322
    8        9.357446  -0.000005
    9       15.151388   0.000000
   10       15.151389   0.000000

  0.3742002E-15  0.3742002E-15  0.6666667E-01  0.5925926E-03
    1       -5.631910   1.000000
    2        5.191228   1.000000
    3        5.191229   1.000000
    4        5.282426   1.000000
    5        7.020201   1.000000
    6        9.263206  -0.000985
    7        9.263207  -0.000985
    8       11.790928   0.000000
    9       11.790929   0.000000
   10       14.261287   0.000000

  0.6666667E-01  0.3735550E-15  0.6666667E-01  0.3555556E-02
    1       -5.546961   1.000000
    2        4.962303   1.000000
    3        5.184328   1.000000
    4        5.297867   1.000000
    5        6.888450   1.000000
    6        9.234305  -0.003328
    7        9.478752  -0.000000
    8       11.469919  -0.000000
    9       11.505116  -0.000000
   10       14.607922   0.000000

  0.1333333E+00  0.3761975E-15  0.6666667E-01  0.3555556E-02
    1       -5.294600   1.000000
    2        4.330366   1.000000
    3        5.156444   1.000000
    4        5.326947   1.000000
    5        6.628136   1.000000
    6        9.163322  -0.025979
    7        9.933457  -0.000000
    8       10.954677  -0.000000
    9       11.015573  -0.000000
   10       15.170821   0.000000

  0.2000000E+00  0.3748230E-15  0.6666667E-01  0.3555556E-02
    1       -4.882015   1.000000
    2        3.427620   1.000000
    3        5.093752   1.000000
    4        5.330327   1.000000
    5        6.378315   1.000000
    6        9.092169   0.003733
    7       10.075300  -0.000000
    8       10.611286  -0.000000
    9       10.997057  -0.000000
   10       15.590198   0.000000

  0.2666667E+00  0.3561396E-15  0.6666667E-01  0.3555556E-02
    1       -4.320280   1.000000
    2        2.382177   1.000000
    3        4.993552   1.000000
    4        5.291932   1.000000
    5        6.148074   1.000000
    6        9.062183   0.116191
    7        9.974224  -0.000000
    8       10.333704  -0.000000
    9       11.544599  -0.000000
   10       15.706735   0.000000

  0.3333333E+00  0.3865122E-15  0.6666667E-01  0.3555556E-02
    1       -3.623354   1.000000
    2        1.281361   1.000000
    3        4.874878   1.000000
    4        5.236583   1.000000
    5        5.918986   1.000000
    6        9.078437   0.044354
    7       10.068815  -0.000000
    8       10.164784  -0.000000
    9       12.032712   0.000000
   10       15.340775   0.000000

  0.4000000E+00  0.3886199E-15  0.6666667E-01  0.3555556E-02
    1       -2.807052   1.000000
    2        0.180319   1.000000
    3        4.770479   1.000000
    4        5.193514   1.000000
    5        5.720465   1.000000
    6        9.111788  -0.027227
    7       10.080334  -0.000000
    8       10.291245  -0.000000
    9       12.316514   0.000000
   10       15.069575   0.000000

  0.4666667E+00  0.3837633E-15  0.6666667E-01  0.3555556E-02
    1       -1.889041   1.000000
    2       -0.883974   1.000000
    3        4.710063   1.000000
    4        5.173159   1.000000
    5        5.604050   1.000000
    6        9.133475  -0.035429
    7       10.051165  -0.000000
    8       10.466513  -0.000000
    9       12.424702   0.000000
   10       14.950375   0.000000

  0.6666667E-01  0.6666667E-01  0.6666667E-01  0.3555556E-02
    1       -5.378296   1.000000
    2        4.560474   1.000000
    3        5.114858   1.000000
    4        5.330816   1.000000
    5        6.717219   1.000000
    6        9.157651  -0.028524
    7        9.837652  -0.000000
    8       11.067553  -0.000000
    9       11.142189  -0.000000
   10       15.169771   0.000000

  0.1333333E+00  0.6666667E-01  0.6666667E-01  0.7111111E-02
    1       -5.045771   1.000000
    2        3.842158   1.000000
    3        4.950551   1.000000
    4        5.351512   1.000000
    5        6.566783   1.000000
    6        9.019686   0.415350
    7       10.213095  -0.000000
    8       10.637306  -0.000000
    9       10.929315  -0.000000
   10       15.706940   0.000000

  0.2000000E+00  0.6666667E-01  0.6666667E-01  0.7111111E-02
    1       -4.558493   1.000000
    2        2.905098   1.000000
    3        4.726080   1.000000
    4        5.329191   1.000000
    5        6.486846   1.000000
    6        8.893871   1.034697
    7       10.092191  -0.000000
    8       10.388379  -0.000000
    9       11.378023  -0.000000
   10       15.941656   0.000000

  0.2666667E+00  0.6666667E-01  0.6666667E-01  0.7111111E-02
    1       -3.928930   1.000000
    2        1.854311   1.000000
    3        4.484684   1.000000
    4        5.283894   1.000000
    5        6.400886   1.000000
    6        8.846416   1.021588
    7        9.980397  -0.000000
    8       10.271787  -0.000000
    9       11.971560   0.000000
   10       15.550791   0.000000

  0.3333333E+00  0.6666667E-01  0.6666667E-01  0.7111111E-02
    1       -3.172006   1.000000
    2        0.765211   1.000000
    3        4.274097   1.000000
    4        5.245313   1.000000
    5        6.276144   1.000000
    6        8.870599   1.032121
    7        9.959370  -0.000000
    8       10.308498  -0.000000
    9       12.413312   0.000000
   10       15.181992   0.000000

  0.4000000E+00  0.6666667E-01  0.6666667E-01  0.7111111E-02
    1       -2.304422   1.000000
    2       -0.312236   1.000000
    3        4.132225   1.000000
    4        5.225370   1.000000
    5        6.161956   1.000000
    6        8.900260   1.032316
    7        9.977824  -0.000000
    8       10.422055  -0.000000
    9       12.637516   0.000000
   10       15.005122   0.000000

  0.4666667E+00  0.6666667E-01  0.6666667E-01  0.3555556E-02
    1       -1.364923   1.000000
    2       -1.323285   1.000000
    3        4.082354   1.000000
    4        5.220210   1.000000
    5        6.116404   1.000000
    6        8.909036   1.025731
    7        9.992312  -0.000000
    8       10.480105  -0.000000
    9       12.698847   0.000000
   10       14.955388   0.000000

  0.1333333E+00  0.1333333E+00  0.6666667E-01  0.3555556E-02
    1       -4.638455   1.000000
    2        3.187918   1.000000
    3        4.469438   1.000000
    4        5.346022   1.000000
    5        6.705613   1.000000
    6        8.741624   1.000499
    7       10.242547  -0.000000
    8       10.333440  -0.000000
    9       11.345335  -0.000000
   10       16.326151   0.000000

  0.2000000E+00  0.1333333E+00  0.6666667E-01  0.7111111E-02
    1       -4.083042   1.000000
    2        2.355409   1.000000
    3        3.953735   1.000000
    4        5.326868   1.000000
    5        6.904719   1.000000
    6        8.483060   1.000000
    7        9.940882  -0.000000
    8       10.351094  -0.000000
    9       12.020246   0.000000
   10       15.754441   0.000000

  0.2666667E+00  0.1333333E+00  0.6666667E-01  0.7111111E-02
    1       -3.393039   1.000000
    2        1.380556   1.000000
    3        3.544644   1.000000
    4        5.322985   1.000000
    5        6.974853   1.000000
    6        8.390324   1.000000
    7        9.758881  -0.000000
    8       10.392801  -0.000000
    9       12.662617   0.000000
   10       15.308123   0.000000

  0.3333333E+00  0.1333333E+00  0.6666667E-01  0.7111111E-02
    1       -2.584515   1.000000
    2        0.343374   1.000000
    3        3.270627   1.000000
    4        5.341131   1.000000
    5        6.887685   1.000000
    6        8.438298   1.000000
    7        9.736439  -0.000000
    8       10.410873  -0.000000
    9       13.112907   0.000000
   10       15.069909   0.000000

  0.4000000E+00  0.1333333E+00  0.6666667E-01  0.7111111E-02
    1       -1.676306   1.000000
    2       -0.689697   1.000000
    3        3.133422   1.000000
    4        5.363052   1.000000
    5        6.792041   1.000000
    6        8.475753   1.000000
    7        9.823666  -0.000000
    8       10.380846  -0.000000
    9       13.314608   0.000000
   10       14.999572   0.000000

  0.2000000E+00  0.2000000E+00  0.6666667E-01  0.3555556E-02
    1       -3.467039   1.000000
    2        1.741938   1.000000
    3        3.136805   1.000000
    4        5.360107   1.000000
    5        7.389205   1.000000
    6        8.039054   1.000000
    7        9.670534  -0.000000
    8       10.425323  -0.000000
    9       12.778777   0.000000
   10       15.369820   0.000000

  0.2666667E+00  0.2000000E+00  0.6666667E-01  0.7111111E-02
    1       -2.725360   1.000000
    2        0.962664   1.000000
    3        2.530844   1.000000
    4        5.442876   1.000000
    5        7.471848   1.000000
    6        7.996278   1.000000
    7        9.494512  -0.000000
    8       10.415490  -0.000000
    9       13.481983   0.000000
   10       15.104443   0.000000

  0.3333333E+00  0.2000000E+00  0.6666667E-01  0.7111111E-02
    1       -1.877609   1.000000
    2        0.030778   1.000000
    3        2.208316   1.000000
    4        5.549767   1.000000
    5        7.169941   1.000000
    6        8.272776   1.000000
    7        9.526914  -0.000000
    8       10.275423  -0.000000
    9       13.946768   0.000000
   10       15.009607   0.000000

  0.4000000E+00  0.2000000E+00  0.6666667E-01  0.3555556E-02
    1       -1.022584   1.000000
    2       -0.864504   1.000000
    3        2.109941   1.000000
    4        5.604835   1.000000
    5        7.039515   1.000000
    6        8.356126   1.000000
    7        9.652182  -0.000000
    8       10.135094  -0.000000
    9       14.087807   0.000000
   10       15.015708   0.000000

  0.2666667E+00  0.2666667E+00  0.6666667E-01  0.3555556E-02
    1       -1.945001   1.000000
    2        0.512618   1.000000
    3        1.654816   1.000000
    4        5.647989   1.000000
    5        7.190222   1.000000
    6        8.367684   1.000000
    7        9.316686  -0.000063
    8       10.239909  -0.000000
    9       14.240086   0.000000
   10       14.983246   0.000000

  0.3333333E+00  0.2666667E+00  0.6666667E-01  0.7111111E-02
    1       -1.091012   1.000000
    2       -0.175437   1.000000
    3        1.206747   1.000000
    4        5.877275   1.000000
    5        6.806277   1.000000
    6        8.744336   1.000569
    7        9.383778  -0.000001
    8        9.902713  -0.000000
    9       14.668295   0.000000
   10       14.984246   0.000000

  0.3333333E+00  0.3333333E+00  0.6666667E-01  0.1185185E-02
    1       -0.413280   1.000000
    2       -0.413279   1.000000
    3        0.623472   1.000000
    4        6.311209   1.000000
    5        6.311210   1.000000
    6        9.331266  -0.000026
    7        9.331266  -0.000026
    8        9.389514  -0.000001
    9       14.973380   0.000000
   10       14.973380   0.000000

  0.3742002E-15  0.3742002E-15  0.1333333E+00  0.5925926E-03
    1       -5.439635   1.000000
    2        4.379165   1.000000
    3        5.352179   1.000000
    4        5.352181   1.000000
    5        7.638201   1.000000
    6        8.890209   1.035308
    7        8.890210   1.035308
    8       11.480878  -0.000000
    9       11.480879  -0.000000
   10       14.879108   0.000000

  0.6666667E-01  0.3735550E-15  0.1333333E+00  0.3555556E-02
    1       -5.356828   1.000000
    2        4.411026   1.000000
    3        5.107102   1.000000
    4        5.326685   1.000000
    5        7.421961   1.000000
    6        8.854447   1.025295
    7        9.151204  -0.031182
    8       11.323543  -0.000000
    9       11.371074  -0.000000
   10       15.065028   0.000000

  0.1333333E+00  0.3761975E-15  0.1333333E+00  0.3555556E-02
    1       -5.110905   1.000000
    2        4.419620   1.000000
    3        4.517158   1.000000
    4        5.243232   1.000000
    5        7.056923   1.000000
    6        8.792134   1.004364
    7        9.564987  -0.000000
    8       11.093781  -0.000000
    9       11.140241  -0.000000
   10       15.376912   0.000000

  0.2000000E+00  0.3748230E-15  0.1333333E+00  0.3555556E-02
    1       -4.709170   1.000000
    2        3.494265   1.000000
    3        4.629719   1.000000
    4        5.095293   1.000000
    5        6.701828   1.000000
    6        8.790155   1.004055
    7        9.748900  -0.000000
    8       10.898519  -0.000000
    9       11.200099  -0.000000
   10       15.508517   0.000000

  0.2666667E+00  0.3561396E-15  0.1333333E+00  0.3555556E-02
    1       -4.162677   1.000000
    2        2.429278   1.000000
    3        4.768758   1.000000
    4        4.900752   1.000000
    5        6.354695   1.000000
    6        8.896155   1.034051
    7        9.786793  -0.000000
    8       10.673019  -0.000000
    9       11.600761  -0.000000
   10       15.225343   0.000000

  0.3333333E+00  0.3865122E-15  0.1333333E+00  0.3555556E-02
    1       -3.485045   1.000000
    2        1.325617   1.000000
    3        4.701819   1.000000
    4        4.902480   1.000000
    5        6.027773   1.000000
    6        9.094778  -0.002076
    7        9.901497  -0.000000
    8       10.461573  -0.000000
    9       11.997878   0.000000
   10       14.779447   0.000000

  0.4000000E+00  0.3886199E-15  0.1333333E+00  0.3555556E-02
    1       -2.691434   1.000000
    2        0.234849   1.000000
    3        4.542974   1.000000
    4        5.017723   1.000000
    5        5.760643   1.000000
    6        9.333037  -0.000024
    7       10.077184  -0.000000
    8       10.262358  -0.000000
    9       12.271144   0.000000
   10       14.420062   0.000000

  0.4666667E+00  0.3837633E-15  0.1333333E+00  0.3555556E-02
    1       -1.799784   1.000000
    2       -0.808500   1.000000
    3        4.455848   1.000000
    4        5.095553   1.000000
    5        5.600155   1.000000
    6        9.529497  -0.000000
    7       10.102033  -0.000000
    8       10.202698  -0.000000
    9       12.418991   0.000000
   10       14.207219   0.000000

  0.6666667E-01  0.6666667E-01  0.1333333E+00  0.3555556E-02
    1       -5.192454   1.000000
    2        4.470338   1.000000
    3        4.682291   1.000000
    4        5.222979   1.000000
    5        7.193567   1.000000
    6        8.741596   1.000498
    7        9.517969  -0.000000
    8       11.094625  -0.000000
    9       11.236363  -0.000000
   10       15.440776   0.000000

  0.1333333E+00  0.6666667E-01  0.1333333E+00  0.7111111E-02
    1       -4.868619   1.000000
    2        3.929589   1.000000
    3        4.575456   1.000000
    4        4.989491   1.000000
    5        6.995296   1.000000
    6        8.581748   1.000000
    7        9.875365  -0.000000
    8       10.865762  -0.000000
    9       11.177391  -0.000000
   10       15.780806   0.000000

  0.2000000E+00  0.6666667E-01  0.1333333E+00  0.7111111E-02
    1       -4.394447   1.000000
    2        2.962845   1.000000
    3        4.658399   1.000000
    4        4.747981   1.000000
    5        6.788442   1.000000
    6        8.542830   1.000000
    7        9.973255  -0.000000
    8       10.698087  -0.000000
    9       11.456022  -0.000000
   10       15.584890   0.000000

  0.2666667E+00  0.6666667E-01  0.1333333E+00  0.7111111E-02
    1       -3.782343   1.000000
    2        1.898703   1.000000
    3        4.403855   1.000000
    4        4.857235   1.000000
    5        6.513365   1.000000
    6        8.686136   1.000024
    7       10.026588  -0.000000
    8       10.512303  -0.000000
    9       11.908123   0.000000
   10       15.076343   0.000000

  0.3333333E+00  0.6666667E-01  0.1333333E+00  0.7111111E-02
    1       -3.046774   1.000000
    2        0.812662   1.000000
    3        4.171000   1.000000
    4        4.989221   1.000000
    5        6.223079   1.000000
    6        8.946167   0.934938
    7       10.147003  -0.000000
    8       10.316509  -0.000000
    9       12.291949   0.000000
   10       14.630906   0.000000

  0.4000000E+00  0.6666667E-01  0.1333333E+00  0.7111111E-02
    1       -2.204073   1.000000
    2       -0.249039   1.000000
    3        4.018491   1.000000
    4        5.099202   1.000000
    5        5.996935   1.000000
    6        9.212212  -0.007347
    7       10.128363  -0.000000
    8       10.278019  -0.000000
    9       12.540204   0.000000
   10       14.329218   0.000000

  0.4666667E+00  0.6666667E-01  0.1333333E+00  0.3555556E-02
    1       -1.348997   1.000000
    2       -1.178351   1.000000
    3        3.965589   1.000000
    4        5.147055   1.000000
    5        5.907438   1.000000
    6        9.340782  -0.000015
    7       10.034253  -0.000000
    8       10.331380  -0.000000
    9       12.633057   0.000000
   10       14.212637   0.000000

  0.1333333E+00  0.1333333E+00  0.1333333E+00  0.3555556E-02
    1       -4.472293   1.000000
    2        3.261409   1.000000
    3        4.420479   1.000000
    4        4.715105   1.000000
    5        7.158833   1.000000
    6        8.203884   1.000000
    7       10.164697  -0.000000
    8       10.626078  -0.000000
    9       11.422038  -0.000000
   10       15.968400   0.000000

  0.2000000E+00  0.1333333E+00  0.1333333E+00  0.7111111E-02
    1       -3.932429   1.000000
    2        2.408379   1.000000
    3        3.903493   1.000000
    4        4.838797   1.000000
    5        7.203241   1.000000
    6        8.045708   1.000000
    7       10.246305  -0.000000
    8       10.463220  -0.000000
    9       11.897316   0.000000
   10       15.438872   0.000000

  0.2666667E+00  0.1333333E+00  0.1333333E+00  0.7111111E-02
    1       -3.262397   1.000000
    2        1.423411   1.000000
    3        3.506551   1.000000
    4        4.986215   1.000000
    5        6.902729   1.000000
    6        8.321769   1.000000
    7       10.234745  -0.000000
    8       10.351716  -0.000000
    9       12.422336   0.000000
   10       14.936212   0.000000

  0.3333333E+00  0.1333333E+00  0.1333333E+00  0.7111111E-02
    1       -2.478150   1.000000
    2        0.394171   1.000000
    3        3.243939   1.000000
    4        5.135705   1.000000
    5        6.563805   1.000000
    6        8.707611   1.000083
    7       10.095495  -0.000000
    8       10.356874  -0.000000
    9       12.854509   0.000000
   10       14.559625   0.000000

  0.4000000E+00  0.1333333E+00  0.1333333E+00  0.7111111E-02
    1       -1.603011   1.000000
    2       -0.612267   1.000000
    3        3.112662   1.000000
    4        5.246702   1.000000
    5        6.345751   1.000000
    6        8.993680   0.633072
    7        9.958344  -0.000000
    8       10.372472  -0.000000
    9       13.116870   0.000000
   10       14.334140   0.000000

  0.2000000E+00  0.2000000E+00  0.1333333E+00  0.3555556E-02
    1       -3.334642   1.000000
    2        1.785327   1.000000
    3        3.112744   1.000000
    4        4.988001   1.000000
    5        7.451833   1.000000
    6        7.784168   1.000000
    7       10.239269  -0.000000
    8       10.384578  -0.000000
    9       12.484619   0.000000
   10       15.106848   0.000000

  0.2666667E+00  0.2000000E+00  0.1333333E+00  0.7111111E-02
    1       -2.616168   1.000000
    2        0.998579   1.000000
    3        2.545535   1.000000
    4        5.168400   1.000000
    5        6.995004   1.000000
    6        8.289053   1.000000
    7       10.045942  -0.000000
    8       10.389101  -0.000000
    9       13.087524   0.000000
   10       14.793822   0.000000
