 running on    4 total cores
 distrk:  each k-point on    4 cores,    1 groups
 distr:  one band on    2 cores,    2 groups
 using from now: INCAR     
 vasp.5.4.4.18Apr17-6-g9f103f2a35 (build Dec  7 2020 12:43:57) complex           
 POSCAR found type information on POSCAR  V  B 
 POSCAR found :  2 types and       3 ions
 scaLAPACK will be used
 LDA part: xc-table for Pade appr. of Perdew
 POSCAR, INCAR and KPOINTS ok, starting setup
 FFT: planning ...
 WAVECAR not read
 augmentation electrons   11.007017471142273     
 soft         electrons   0.0000000000000000     
 augmentation electrons   11.007017471142273     
 soft         electrons   0.0000000000000000     
 augmentation electrons   11.007017471142273     
 soft         electrons   0.0000000000000000     
 augmentation electrons   11.007017471142273     
 soft         electrons   0.0000000000000000     
 total        electrons   11.007017471142273     
 total        electrons   11.007017471142273     
 total        electrons   11.007017471142273     
 total        electrons   11.007017471142273     
 augmentation electrons   34.481181691938062     
 soft         electrons   0.0000000000000000     
 augmentation electrons   34.481181691938062     
 soft         electrons   0.0000000000000000     
 augmentation electrons   34.481181691938062     
 soft         electrons   0.0000000000000000     
 augmentation electrons   34.481181691938062     
 soft         electrons   0.0000000000000000     
 total        electrons   34.481181691938062     
 total        electrons   34.481181691938062     
 total        electrons   34.481181691938062     
 total        electrons   34.481181691938062     
 entering main loop
       N       E                     dE             d eps       ncg     rms          rms(c)
DAV:   1     0.322469789934E+02    0.32247E+02   -0.47056E+03  4440   0.109E+03
DAV:   2    -0.261962052410E+02   -0.58443E+02   -0.54362E+02  4452   0.187E+02
DAV:   3    -0.303613593359E+02   -0.41652E+01   -0.39845E+01  6112   0.590E+01
DAV:   4    -0.304679139196E+02   -0.10655E+00   -0.10463E+00  6452   0.793E+00
DAV:   5    -0.304688891422E+02   -0.97522E-03   -0.97431E-03  5968   0.545E-01    0.260E+01
DAV:   6    -0.257499974568E+02    0.47189E+01   -0.57806E+01  6364   0.101E+02    0.741E+00
DAV:   7    -0.246779861357E+02    0.10720E+01   -0.11910E+01  6334   0.604E+01    0.490E+00
DAV:   8    -0.245518638393E+02    0.12612E+00   -0.59337E-01  6558   0.120E+01    0.117E+00
DAV:   9    -0.245439433635E+02    0.79205E-02   -0.10606E-02  4918   0.108E+00    0.178E-01
DAV:  10    -0.245435114095E+02    0.43195E-03   -0.18760E-03  5614   0.752E-01    0.449E-02
DAV:  11    -0.245435085974E+02    0.28121E-05   -0.11084E-04  5524   0.944E-02    0.190E-02
DAV:  12    -0.245435060642E+02    0.25332E-05   -0.56073E-06  5856   0.341E-02    0.569E-03
DAV:  13    -0.245435047489E+02    0.13154E-05   -0.31834E-06  3900   0.290E-02    0.519E-04
DAV:  14    -0.245435047284E+02    0.20407E-07   -0.17819E-07  2424   0.403E-03
   1 F= -.24543505E+02 E0= -.24543712E+02  d E =0.621625E-03
 writing wavefunctions
 augmentation electrons   1.8547727271858618     
 soft         electrons   9.1551952060227979     
 augmentation electrons   1.8547727271858618     
 soft         electrons   9.1551952060227979     
 augmentation electrons   1.8547727271858618     
 soft         electrons   9.1551952060227979     
 augmentation electrons   1.8547727271858618     
 soft         electrons   9.1551952060227979     
 total        electrons   11.009967933208660     
 total        electrons   11.009967933208660     
 total        electrons   11.009967933208660     
 total        electrons   11.009967933208660     
