   74   74   85    1
  0.2110353E+02  0.1053953E-08  0.6141200E-09  0.2412750E-08  0.5000000E-15
   1.0000000000000000E-004
  CAR 
 Name                                    
    284     23    184

  0.3742002E-15  0.3742002E-15  0.1262379E-14  0.2222222E-01
    1      -13.953962   1.000000
    2      -12.859554   1.000000
    3      -12.752827   1.000000
    4      -12.733736   1.000000
    5      -11.779403   1.000000
    6      -11.766199   1.000000
    7      -11.608947   1.000000
    8      -11.559645   1.000000
    9      -11.394028   1.000000
   10      -11.243786   1.000000
   11      -11.226944   1.000000
   12      -11.053367   1.000000
   13      -11.021615   1.000000
   14      -10.754551   1.000000
   15      -10.701147   1.000000
   16      -10.482605   1.000000
   17      -10.189961   1.000000
   18      -10.157673   1.000000
   19      -10.125368   1.000000
   20       -9.808548   1.000000
   21       -9.750506   1.000000
   22       -9.636497   1.000000
   23       -9.553460   1.000000
   24       -9.412935   1.000000
   25       -9.012575   1.000000
   26       -8.868489   1.000000
   27       -8.676605   1.000000
   28       -8.574300   1.000000
   29       -8.487251   1.000000
   30       -8.356566   1.000000
   31       -8.173297   1.000000
   32       -7.845191   1.000000
   33       -7.841827   1.000000
   34       -7.766537   1.000000
   35       -7.316747   1.000000
   36       -7.206369   1.000000
   37       -7.090712   1.000000
   38       -6.997284   1.000000
   39       -6.931135   1.000000
   40       -6.782234   1.000000
   41       -6.742673   1.000000
   42       -6.624095   1.000000
   43       -6.621197   1.000000
   44       -6.620411   1.000000
   45       -6.526777   1.000000
   46       -6.453447   1.000000
   47       -6.441463   1.000000
   48       -6.227936   1.000000
   49       -6.168894   1.000000
   50       -6.102674   1.000000
   51       -6.066651   1.000000
   52       -5.878501   1.000000
   53       -5.771530   1.000000
   54       -5.740749   1.000000
   55       -5.719014   1.000000
   56       -5.627015   1.000000
   57       -5.579072   1.000000
   58       -5.478451   1.000000
   59       -5.373887   1.000000
   60       -5.328819   1.000000
   61       -5.307153   1.000000
   62       -5.219469   1.000000
   63       -4.982763   1.000000
   64       -4.860300   1.000000
   65       -4.732126   1.000000
   66       -4.681546   1.000000
   67       -4.648167   1.000000
   68       -4.606734   1.000000
   69       -4.604311   1.000000
   70       -4.452644   1.000000
   71       -4.395556   1.000000
   72       -4.242199   1.000000
   73       -4.216338   1.000000
   74       -4.201822   1.000000
   75       -4.185593   1.000000
   76       -4.152955   1.000000
   77       -4.118059   1.000000
   78       -4.049646   1.000000
   79       -3.980986   1.000000
   80       -3.953736   1.000000
   81       -3.913726   1.000000
   82       -3.880397   1.000000
   83       -3.830252   1.000000
   84       -3.813373   1.000000
   85       -3.732743   1.000000
   86       -3.703264   1.000000
   87       -3.686961   1.000000
   88       -3.640222   1.000000
   89       -3.546109   1.000000
   90       -3.534030   1.000000
   91       -3.410723   1.000000
   92       -3.344775   1.000000
   93       -3.322561   1.000000
   94       -3.166101   1.000000
   95       -3.115975   1.000000
   96       -2.992882   1.000000
   97       -2.948381   1.000000
   98       -2.829596   1.000000
   99       -2.779323   1.000000
  100       -2.671350   1.000000
  101       -2.568731   1.000000
  102       -2.564940   1.000000
  103       -2.416387   1.000000
  104       -2.379803   1.000000
  105       -2.362320   1.000000
  106       -2.311900   1.000000
  107       -2.229509   1.000000
  108       -2.197818   1.000000
  109       -2.080513   1.000000
  110       -2.053636   1.000000
  111       -1.982959   1.000000
  112       -1.888900   1.000000
  113       -1.851075   1.000000
  114       -1.823006   1.000000
  115       -1.820597   1.000000
  116       -1.804436   1.000000
  117       -1.713286   1.000000
  118       -1.693769   1.000000
  119       -1.693460   1.000000
  120       -1.661528   1.000000
  121       -1.495804   1.000000
  122       -1.022026   1.000000
  123       -1.015126   1.000000
  124       -0.999436   1.000000
  125       -0.871763   1.000000
  126       -0.753706   1.000000
  127       -0.727592   1.000000
  128       -0.553920   1.000000
  129       -0.523230   1.000000
  130       -0.406715   1.000000
  131       -0.207717   1.000000
  132       -0.191688   1.000000
  133       -0.185509   1.000000
  134       -0.010707   1.000000
  135        0.201408   1.000739
  136        0.203000   1.000796
  137        0.212572   1.001230
  138        0.298367   1.021749
  139        0.314106   1.028915
  140        0.361080   1.025277
  141        0.361454   1.024889
  142        0.420494   0.815036
  143        0.479214   0.350467
  144        0.580532  -0.035296
  145        0.580963  -0.035338
  146        0.593274  -0.034222
  147        0.657732  -0.008935
  148        0.664081  -0.007282
  149        0.799364  -0.000009
  150        0.825171  -0.000002
  151        1.009995  -0.000000
  152        1.046946  -0.000000
  153        1.166246  -0.000000
  154        1.175389  -0.000000
  155        1.243684  -0.000000
  156        1.254767  -0.000000
  157        1.326709  -0.000000
  158        1.331273  -0.000000
  159        1.351092  -0.000000
  160        1.385334  -0.000000
  161        1.436895  -0.000000
  162        1.437271  -0.000000
  163        1.492148  -0.000000
  164        1.497174  -0.000000
  165        1.575996  -0.000000
  166        1.666058  -0.000000
  167        1.704239  -0.000000
  168        1.727618  -0.000000
  169        1.733177  -0.000000
  170        1.758993  -0.000000
  171        1.779555  -0.000000
  172        1.791260  -0.000000
  173        1.877848  -0.000000
  174        1.912965  -0.000000
  175        1.950767  -0.000000
  176        1.980817  -0.000000
  177        2.034587  -0.000000
  178        2.206003  -0.000000
  179        2.223481  -0.000000
  180        2.276891  -0.000000
  181        2.333936  -0.000000
  182        2.415366  -0.000000
  183        2.522658  -0.000000
  184        2.613232  -0.000000

  0.2000000E+00  0.3742002E-15  0.1262379E-14  0.4444444E-01
    1      -13.905668   1.000000
    2      -13.203387   1.000000
    3      -12.713603   1.000000
    4      -12.316510   1.000000
    5      -12.054601   1.000000
    6      -11.769066   1.000000
    7      -11.612433   1.000000
    8      -11.345364   1.000000
    9      -11.321890   1.000000
   10      -11.240146   1.000000
   11      -11.110807   1.000000
   12      -11.098038   1.000000
   13      -10.943501   1.000000
   14      -10.793151   1.000000
   15      -10.726253   1.000000
   16      -10.646613   1.000000
   17      -10.547433   1.000000
   18      -10.280080   1.000000
   19      -10.092315   1.000000
   20       -9.690559   1.000000
   21       -9.671720   1.000000
   22       -9.536947   1.000000
   23       -9.417126   1.000000
   24       -9.391088   1.000000
   25       -9.262198   1.000000
   26       -8.882749   1.000000
   27       -8.526555   1.000000
   28       -8.517983   1.000000
   29       -8.332269   1.000000
   30       -8.217462   1.000000
   31       -8.140897   1.000000
   32       -8.107215   1.000000
   33       -7.736509   1.000000
   34       -7.648994   1.000000
   35       -7.505172   1.000000
   36       -7.332435   1.000000
   37       -7.200796   1.000000
   38       -7.121617   1.000000
   39       -7.003836   1.000000
   40       -6.830715   1.000000
   41       -6.738295   1.000000
   42       -6.711682   1.000000
   43       -6.680356   1.000000
   44       -6.599548   1.000000
   45       -6.536253   1.000000
   46       -6.398031   1.000000
   47       -6.207289   1.000000
   48       -6.190372   1.000000
   49       -6.161951   1.000000
   50       -6.053298   1.000000
   51       -6.020580   1.000000
   52       -5.883131   1.000000
   53       -5.780551   1.000000
   54       -5.687174   1.000000
   55       -5.602021   1.000000
   56       -5.561580   1.000000
   57       -5.482239   1.000000
   58       -5.462981   1.000000
   59       -5.369034   1.000000
   60       -5.368165   1.000000
   61       -5.323630   1.000000
   62       -5.213516   1.000000
   63       -5.135988   1.000000
   64       -4.875380   1.000000
   65       -4.780364   1.000000
   66       -4.678176   1.000000
   67       -4.674781   1.000000
   68       -4.657425   1.000000
   69       -4.590647   1.000000
   70       -4.408783   1.000000
   71       -4.361373   1.000000
   72       -4.276702   1.000000
   73       -4.217357   1.000000
   74       -4.199066   1.000000
   75       -4.181327   1.000000
   76       -4.162343   1.000000
   77       -4.069325   1.000000
   78       -4.029302   1.000000
   79       -3.966927   1.000000
   80       -3.961731   1.000000
   81       -3.935623   1.000000
   82       -3.934501   1.000000
   83       -3.846404   1.000000
   84       -3.781886   1.000000
   85       -3.713290   1.000000
   86       -3.676593   1.000000
   87       -3.629259   1.000000
   88       -3.594626   1.000000
   89       -3.585969   1.000000
   90       -3.524699   1.000000
   91       -3.514771   1.000000
   92       -3.326937   1.000000
   93       -3.323486   1.000000
   94       -3.214247   1.000000
   95       -3.164737   1.000000
   96       -3.014840   1.000000
   97       -2.999958   1.000000
   98       -2.887471   1.000000
   99       -2.771868   1.000000
  100       -2.737958   1.000000
  101       -2.703609   1.000000
  102       -2.422859   1.000000
  103       -2.382894   1.000000
  104       -2.325400   1.000000
  105       -2.316341   1.000000
  106       -2.270328   1.000000
  107       -2.218635   1.000000
  108       -2.143971   1.000000
  109       -2.074766   1.000000
  110       -2.027865   1.000000
  111       -1.979378   1.000000
  112       -1.924808   1.000000
  113       -1.898922   1.000000
  114       -1.766521   1.000000
  115       -1.731025   1.000000
  116       -1.720003   1.000000
  117       -1.713842   1.000000
  118       -1.649068   1.000000
  119       -1.614497   1.000000
  120       -1.526056   1.000000
  121       -1.467331   1.000000
  122       -1.114439   1.000000
  123       -1.052077   1.000000
  124       -1.050863   1.000000
  125       -0.967605   1.000000
  126       -0.802934   1.000000
  127       -0.769243   1.000000
  128       -0.560519   1.000000
  129       -0.559716   1.000000
  130       -0.518410   1.000000
  131       -0.439810   1.000000
  132       -0.281009   1.000000
  133       -0.190637   1.000000
  134       -0.088671   1.000000
  135        0.041289   1.000000
  136        0.109284   1.000004
  137        0.144948   1.000037
  138        0.314431   1.029055
  139        0.343957   1.035010
  140        0.371320   1.011233
  141        0.438904   0.683785
  142        0.507988   0.148196
  143        0.602932  -0.031132
  144        0.636704  -0.016228
  145        0.663314  -0.007469
  146        0.697450  -0.002096
  147        0.703734  -0.001608
  148        0.704955  -0.001525
  149        0.735985  -0.000357
  150        0.755284  -0.000130
  151        1.071023  -0.000000
  152        1.105310  -0.000000
  153        1.173938  -0.000000
  154        1.203600  -0.000000
  155        1.275202  -0.000000
  156        1.285457  -0.000000
  157        1.306554  -0.000000
  158        1.323088  -0.000000
  159        1.420991  -0.000000
  160        1.449044  -0.000000
  161        1.477072  -0.000000
  162        1.495885  -0.000000
  163        1.510915  -0.000000
  164        1.548633  -0.000000
  165        1.587708  -0.000000
  166        1.594903  -0.000000
  167        1.684789  -0.000000
  168        1.710925  -0.000000
  169        1.736201  -0.000000
  170        1.782430  -0.000000
  171        1.813025  -0.000000
  172        1.872650  -0.000000
  173        1.893164  -0.000000
  174        1.962009  -0.000000
  175        1.987415  -0.000000
  176        2.046772  -0.000000
  177        2.076734  -0.000000
  178        2.089598  -0.000000
  179        2.137243  -0.000000
  180        2.160723  -0.000000
  181        2.304128  -0.000000
  182        2.341249  -0.000000
  183        2.407575  -0.000000
  184        2.548229  -0.000000

  0.4000000E+00  0.3742002E-15  0.1262379E-14  0.4444444E-01
    1      -13.762278   1.000000
    2      -13.524543   1.000000
    3      -12.592795   1.000000
    4      -12.339571   1.000000
    5      -11.782898   1.000000
    6      -11.737721   1.000000
    7      -11.684176   1.000000
    8      -11.273026   1.000000
    9      -11.245681   1.000000
   10      -11.223541   1.000000
   11      -11.134147   1.000000
   12      -11.072890   1.000000
   13      -10.931613   1.000000
   14      -10.850005   1.000000
   15      -10.835692   1.000000
   16      -10.736649   1.000000
   17      -10.643593   1.000000
   18      -10.412463   1.000000
   19      -10.203707   1.000000
   20       -9.839670   1.000000
   21       -9.626280   1.000000
   22       -9.492369   1.000000
   23       -9.384114   1.000000
   24       -9.288883   1.000000
   25       -9.138907   1.000000
   26       -8.851066   1.000000
   27       -8.445223   1.000000
   28       -8.390972   1.000000
   29       -8.269260   1.000000
   30       -8.167945   1.000000
   31       -7.919367   1.000000
   32       -7.875890   1.000000
   33       -7.829691   1.000000
   34       -7.724878   1.000000
   35       -7.681772   1.000000
   36       -7.606292   1.000000
   37       -7.403960   1.000000
   38       -7.348380   1.000000
   39       -7.144962   1.000000
   40       -6.962647   1.000000
   41       -6.879054   1.000000
   42       -6.554196   1.000000
   43       -6.547013   1.000000
   44       -6.504283   1.000000
   45       -6.458625   1.000000
   46       -6.352671   1.000000
   47       -6.185704   1.000000
   48       -6.165773   1.000000
   49       -6.091378   1.000000
   50       -6.001405   1.000000
   51       -5.982512   1.000000
   52       -5.856807   1.000000
   53       -5.845606   1.000000
   54       -5.705713   1.000000
   55       -5.649741   1.000000
   56       -5.573764   1.000000
   57       -5.496873   1.000000
   58       -5.349815   1.000000
   59       -5.320912   1.000000
   60       -5.279255   1.000000
   61       -5.156536   1.000000
   62       -5.076081   1.000000
   63       -5.060656   1.000000
   64       -4.863023   1.000000
   65       -4.858025   1.000000
   66       -4.813930   1.000000
   67       -4.747686   1.000000
   68       -4.694230   1.000000
   69       -4.625386   1.000000
   70       -4.458951   1.000000
   71       -4.432866   1.000000
   72       -4.369858   1.000000
   73       -4.262635   1.000000
   74       -4.233186   1.000000
   75       -4.184985   1.000000
   76       -4.146085   1.000000
   77       -4.118511   1.000000
   78       -3.951759   1.000000
   79       -3.930049   1.000000
   80       -3.884680   1.000000
   81       -3.870171   1.000000
   82       -3.868777   1.000000
   83       -3.817182   1.000000
   84       -3.802073   1.000000
   85       -3.715139   1.000000
   86       -3.677542   1.000000
   87       -3.650593   1.000000
   88       -3.637500   1.000000
   89       -3.504193   1.000000
   90       -3.471168   1.000000
   91       -3.423304   1.000000
   92       -3.402657   1.000000
   93       -3.361278   1.000000
   94       -3.295843   1.000000
   95       -3.269955   1.000000
   96       -3.106496   1.000000
   97       -3.067213   1.000000
   98       -3.018494   1.000000
   99       -2.889404   1.000000
  100       -2.785246   1.000000
  101       -2.510306   1.000000
  102       -2.502023   1.000000
  103       -2.392259   1.000000
  104       -2.375185   1.000000
  105       -2.299620   1.000000
  106       -2.162663   1.000000
  107       -2.066319   1.000000
  108       -2.044737   1.000000
  109       -2.033244   1.000000
  110       -2.031352   1.000000
  111       -1.910176   1.000000
  112       -1.904856   1.000000
  113       -1.786833   1.000000
  114       -1.777866   1.000000
  115       -1.698633   1.000000
  116       -1.618140   1.000000
  117       -1.571390   1.000000
  118       -1.475476   1.000000
  119       -1.468773   1.000000
  120       -1.393344   1.000000
  121       -1.319761   1.000000
  122       -1.212800   1.000000
  123       -1.185903   1.000000
  124       -1.172618   1.000000
  125       -1.148537   1.000000
  126       -0.892894   1.000000
  127       -0.882863   1.000000
  128       -0.849581   1.000000
  129       -0.749322   1.000000
  130       -0.641927   1.000000
  131       -0.562241   1.000000
  132       -0.487339   1.000000
  133       -0.189821   1.000000
  134       -0.151664   1.000000
  135       -0.007781   1.000000
  136        0.048062   1.000000
  137        0.239736   1.003759
  138        0.271026   1.010830
  139        0.286841   1.016680
  140        0.365777   1.019737
  141        0.420272   0.816451
  142        0.502640   0.180630
  143        0.581212  -0.035359
  144        0.679907  -0.004176
  145        0.690548  -0.002773
  146        0.725006  -0.000612
  147        0.726762  -0.000563
  148        0.776620  -0.000038
  149        0.932659  -0.000000
  150        0.957040  -0.000000
  151        1.054576  -0.000000
  152        1.081653  -0.000000
  153        1.213841  -0.000000
  154        1.247592  -0.000000
  155        1.315142  -0.000000
  156        1.376531  -0.000000
  157        1.388831  -0.000000
  158        1.428890  -0.000000
  159        1.504377  -0.000000
  160        1.517546  -0.000000
  161        1.523017  -0.000000
  162        1.549339  -0.000000
  163        1.573999  -0.000000
  164        1.606742  -0.000000
  165        1.617197  -0.000000
  166        1.652030  -0.000000
  167        1.655768  -0.000000
  168        1.696561  -0.000000
  169        1.754657  -0.000000
  170        1.789524  -0.000000
  171        1.828301  -0.000000
  172        1.844926  -0.000000
  173        1.858761  -0.000000
  174        1.917677  -0.000000
  175        1.974960  -0.000000
  176        2.020417  -0.000000
  177        2.037788  -0.000000
  178        2.066891  -0.000000
  179        2.134445  -0.000000
  180        2.154463  -0.000000
  181        2.279520  -0.000000
  182        2.362700  -0.000000
  183        2.523470  -0.000000
  184        2.610297  -0.000000

  0.3742002E-15  0.1111111E+00  0.1262379E-14  0.4444444E-01
    1      -13.907017   1.000000
    2      -12.819406   1.000000
    3      -12.719714   1.000000
    4      -12.694340   1.000000
    5      -11.884513   1.000000
    6      -11.733670   1.000000
    7      -11.597366   1.000000
    8      -11.584478   1.000000
    9      -11.433052   1.000000
   10      -11.292125   1.000000
   11      -11.203805   1.000000
   12      -11.057508   1.000000
   13      -11.031813   1.000000
   14      -10.775557   1.000000
   15      -10.673514   1.000000
   16      -10.471957   1.000000
   17      -10.210008   1.000000
   18      -10.134034   1.000000
   19      -10.086932   1.000000
   20       -9.782844   1.000000
   21       -9.723153   1.000000
   22       -9.670792   1.000000
   23       -9.574463   1.000000
   24       -9.429521   1.000000
   25       -8.992630   1.000000
   26       -8.891230   1.000000
   27       -8.657217   1.000000
   28       -8.623496   1.000000
   29       -8.470706   1.000000
   30       -8.338545   1.000000
   31       -8.035783   1.000000
   32       -7.907819   1.000000
   33       -7.859250   1.000000
   34       -7.748622   1.000000
   35       -7.424825   1.000000
   36       -7.332682   1.000000
   37       -7.063401   1.000000
   38       -6.978028   1.000000
   39       -6.910290   1.000000
   40       -6.724071   1.000000
   41       -6.694541   1.000000
   42       -6.646993   1.000000
   43       -6.627445   1.000000
   44       -6.624658   1.000000
   45       -6.530442   1.000000
   46       -6.437147   1.000000
   47       -6.424160   1.000000
   48       -6.229095   1.000000
   49       -6.176122   1.000000
   50       -6.118531   1.000000
   51       -6.024065   1.000000
   52       -5.857870   1.000000
   53       -5.800913   1.000000
   54       -5.738580   1.000000
   55       -5.669721   1.000000
   56       -5.591983   1.000000
   57       -5.553706   1.000000
   58       -5.493868   1.000000
   59       -5.296814   1.000000
   60       -5.295003   1.000000
   61       -5.265108   1.000000
   62       -5.205160   1.000000
   63       -4.986294   1.000000
   64       -4.797236   1.000000
   65       -4.781038   1.000000
   66       -4.665012   1.000000
   67       -4.663213   1.000000
   68       -4.606277   1.000000
   69       -4.570416   1.000000
   70       -4.433710   1.000000
   71       -4.398515   1.000000
   72       -4.276871   1.000000
   73       -4.261343   1.000000
   74       -4.209625   1.000000
   75       -4.183600   1.000000
   76       -4.169055   1.000000
   77       -4.134871   1.000000
   78       -4.063176   1.000000
   79       -4.062455   1.000000
   80       -4.015091   1.000000
   81       -3.949867   1.000000
   82       -3.923378   1.000000
   83       -3.903129   1.000000
   84       -3.857159   1.000000
   85       -3.792594   1.000000
   86       -3.717484   1.000000
   87       -3.682275   1.000000
   88       -3.638581   1.000000
   89       -3.535300   1.000000
   90       -3.534167   1.000000
   91       -3.499225   1.000000
   92       -3.333027   1.000000
   93       -3.266368   1.000000
   94       -3.179819   1.000000
   95       -2.971024   1.000000
   96       -2.928882   1.000000
   97       -2.924585   1.000000
   98       -2.827342   1.000000
   99       -2.796434   1.000000
  100       -2.650967   1.000000
  101       -2.574891   1.000000
  102       -2.568587   1.000000
  103       -2.499145   1.000000
  104       -2.464320   1.000000
  105       -2.393142   1.000000
  106       -2.275481   1.000000
  107       -2.225143   1.000000
  108       -2.189360   1.000000
  109       -2.126393   1.000000
  110       -2.092434   1.000000
  111       -2.081508   1.000000
  112       -1.935096   1.000000
  113       -1.879068   1.000000
  114       -1.866525   1.000000
  115       -1.793828   1.000000
  116       -1.776860   1.000000
  117       -1.716020   1.000000
  118       -1.672344   1.000000
  119       -1.578161   1.000000
  120       -1.553764   1.000000
  121       -1.517705   1.000000
  122       -1.107562   1.000000
  123       -1.095254   1.000000
  124       -0.934491   1.000000
  125       -0.855009   1.000000
  126       -0.755727   1.000000
  127       -0.696603   1.000000
  128       -0.632981   1.000000
  129       -0.598429   1.000000
  130       -0.373714   1.000000
  131       -0.286205   1.000000
  132       -0.260284   1.000000
  133       -0.108542   1.000000
  134        0.018697   1.000000
  135        0.055362   1.000000
  136        0.219673   1.001675
  137        0.250102   1.005490
  138        0.280862   1.014292
  139        0.299335   1.022194
  140        0.323429   1.032547
  141        0.324179   1.032796
  142        0.391974   0.957232
  143        0.469364   0.431376
  144        0.555541  -0.018178
  145        0.590204  -0.034862
  146        0.592023  -0.034507
  147        0.706247  -0.001442
  148        0.762663  -0.000086
  149        0.805412  -0.000006
  150        0.982902  -0.000000
  151        1.056365  -0.000000
  152        1.098448  -0.000000
  153        1.113467  -0.000000
  154        1.244198  -0.000000
  155        1.250486  -0.000000
  156        1.251345  -0.000000
  157        1.278158  -0.000000
  158        1.354634  -0.000000
  159        1.408806  -0.000000
  160        1.443472  -0.000000
  161        1.445291  -0.000000
  162        1.454644  -0.000000
  163        1.490154  -0.000000
  164        1.490616  -0.000000
  165        1.569899  -0.000000
  166        1.654700  -0.000000
  167        1.710934  -0.000000
  168        1.716710  -0.000000
  169        1.723981  -0.000000
  170        1.739637  -0.000000
  171        1.812164  -0.000000
  172        1.817448  -0.000000
  173        1.828355  -0.000000
  174        1.853748  -0.000000
  175        1.923197  -0.000000
  176        1.932040  -0.000000
  177        1.984853  -0.000000
  178        2.001816  -0.000000
  179        2.039667  -0.000000
  180        2.155116  -0.000000
  181        2.277599  -0.000000
  182        2.317178  -0.000000
  183        2.450931  -0.000000
  184        2.586480  -0.000000

  0.2000000E+00  0.1111111E+00  0.1262379E-14  0.4444444E-01
    1      -13.859117   1.000000
    2      -13.162753   1.000000
    3      -12.674491   1.000000
    4      -12.284744   1.000000
    5      -12.021349   1.000000
    6      -11.870386   1.000000
    7      -11.667341   1.000000
    8      -11.344476   1.000000
    9      -11.323984   1.000000
   10      -11.282292   1.000000
   11      -11.120385   1.000000
   12      -11.086138   1.000000
   13      -10.942728   1.000000
   14      -10.792401   1.000000
   15      -10.724330   1.000000
   16      -10.628722   1.000000
   17      -10.529202   1.000000
   18      -10.285862   1.000000
   19      -10.077857   1.000000
   20       -9.686237   1.000000
   21       -9.647414   1.000000
   22       -9.556882   1.000000
   23       -9.412030   1.000000
   24       -9.402389   1.000000
   25       -9.264502   1.000000
   26       -8.874873   1.000000
   27       -8.560539   1.000000
   28       -8.506932   1.000000
   29       -8.341191   1.000000
   30       -8.209716   1.000000
   31       -8.147578   1.000000
   32       -7.971025   1.000000
   33       -7.783511   1.000000
   34       -7.638822   1.000000
   35       -7.587389   1.000000
   36       -7.413663   1.000000
   37       -7.118082   1.000000
   38       -7.106783   1.000000
   39       -6.979596   1.000000
   40       -6.819964   1.000000
   41       -6.805879   1.000000
   42       -6.723391   1.000000
   43       -6.637083   1.000000
   44       -6.601099   1.000000
   45       -6.528639   1.000000
   46       -6.487779   1.000000
   47       -6.299890   1.000000
   48       -6.204354   1.000000
   49       -6.111186   1.000000
   50       -5.976875   1.000000
   51       -5.941803   1.000000
   52       -5.877777   1.000000
   53       -5.779083   1.000000
   54       -5.663105   1.000000
   55       -5.622671   1.000000
   56       -5.520063   1.000000
   57       -5.492289   1.000000
   58       -5.449087   1.000000
   59       -5.346831   1.000000
   60       -5.302812   1.000000
   61       -5.267912   1.000000
   62       -5.174643   1.000000
   63       -5.118622   1.000000
   64       -4.889951   1.000000
   65       -4.736425   1.000000
   66       -4.701769   1.000000
   67       -4.657579   1.000000
   68       -4.596952   1.000000
   69       -4.566472   1.000000
   70       -4.424158   1.000000
   71       -4.373691   1.000000
   72       -4.280948   1.000000
   73       -4.244712   1.000000
   74       -4.203377   1.000000
   75       -4.187295   1.000000
   76       -4.169288   1.000000
   77       -4.144723   1.000000
   78       -4.080655   1.000000
   79       -4.049471   1.000000
   80       -4.013638   1.000000
   81       -3.982084   1.000000
   82       -3.951482   1.000000
   83       -3.896894   1.000000
   84       -3.786516   1.000000
   85       -3.764629   1.000000
   86       -3.722696   1.000000
   87       -3.671666   1.000000
   88       -3.653045   1.000000
   89       -3.567771   1.000000
   90       -3.505618   1.000000
   91       -3.465734   1.000000
   92       -3.341520   1.000000
   93       -3.245662   1.000000
   94       -3.211836   1.000000
   95       -3.056004   1.000000
   96       -3.029153   1.000000
   97       -2.992606   1.000000
   98       -2.867380   1.000000
   99       -2.789071   1.000000
  100       -2.766579   1.000000
  101       -2.681456   1.000000
  102       -2.491999   1.000000
  103       -2.423009   1.000000
  104       -2.357000   1.000000
  105       -2.319540   1.000000
  106       -2.281406   1.000000
  107       -2.227228   1.000000
  108       -2.200133   1.000000
  109       -2.069261   1.000000
  110       -2.066246   1.000000
  111       -1.977048   1.000000
  112       -1.917742   1.000000
  113       -1.879305   1.000000
  114       -1.833260   1.000000
  115       -1.816764   1.000000
  116       -1.717936   1.000000
  117       -1.709828   1.000000
  118       -1.642940   1.000000
  119       -1.565991   1.000000
  120       -1.524748   1.000000
  121       -1.451429   1.000000
  122       -1.165048   1.000000
  123       -1.098291   1.000000
  124       -1.025734   1.000000
  125       -0.936470   1.000000
  126       -0.835004   1.000000
  127       -0.804958   1.000000
  128       -0.734143   1.000000
  129       -0.499467   1.000000
  130       -0.439607   1.000000
  131       -0.333340   1.000000
  132       -0.221398   1.000000
  133       -0.059473   1.000000
  134       -0.047741   1.000000
  135        0.028417   1.000000
  136        0.031849   1.000000
  137        0.139916   1.000027
  138        0.189160   1.000409
  139        0.294275   1.019895
  140        0.394549   0.947730
  141        0.425461   0.782269
  142        0.467432   0.447590
  143        0.499470   0.201095
  144        0.516396   0.102837
  145        0.608883  -0.028683
  146        0.636315  -0.016388
  147        0.720988  -0.000740
  148        0.858255  -0.000000
  149        0.889993  -0.000000
  150        0.920775  -0.000000
  151        1.045180  -0.000000
  152        1.108308  -0.000000
  153        1.205262  -0.000000
  154        1.215757  -0.000000
  155        1.306651  -0.000000
  156        1.335003  -0.000000
  157        1.348230  -0.000000