   16   16    1    1
  0.1176546E+02  0.5992512E-09  0.5992512E-09  0.6053137E-09  0.5000000E-15
   1.0000000000000000E-004
  CAR 
 Name                                    
     48     60     36

  0.3742002E-15  0.3742002E-15  0.3742002E-15  0.1371742E-02
    1       -9.447605   1.000000
    2       -7.862586   1.000000
    3       -5.692757   1.000000
    4       -5.692750   1.000000
    5       -5.692748   1.000000
    6       -4.817420   1.000000
    7       -4.817417   1.000000
    8       -4.817413   1.000000
    9       -4.322961   1.000000
   10       -4.322954   1.000000
   11       -4.322952   1.000000
   12       -3.700791   1.000000
   13       -3.700788   1.000000
   14       -3.700784   1.000000
   15       -2.926400   1.000000
   16        0.371113   1.000000
   17        0.371115   1.000000
   18        0.371118   1.000000
   19        0.891646   1.000022
   20        0.891649   1.000022
   21        0.891652   1.000022
   22        0.893489   1.000025
   23        0.893495   1.000025
   24        0.893497   1.000025
   25        2.400053  -0.000000
   26        2.813051  -0.000000
   27        2.813057  -0.000000
   28        3.224329  -0.000000
   29        3.224335  -0.000000
   30        3.608385  -0.000000
   31        3.608387  -0.000000
   32        3.608389  -0.000000
   33        5.530194   0.000000
   34        5.530200   0.000000
   35        5.530202   0.000000
   36        8.493023   0.000000

  0.1111111E+00  0.3644361E-15  0.3742002E-15  0.8230453E-02
    1       -9.394892   1.000000
    2       -7.813975   1.000000
    3       -6.209758   1.000000
    4       -5.835291   1.000000
    5       -5.835286   1.000000
    6       -4.852994   1.000000
    7       -4.586512   1.000000
    8       -4.586510   1.000000
    9       -4.486170   1.000000
   10       -4.486165   1.000000
   11       -4.218613   1.000000
   12       -3.456364   1.000000
   13       -3.456362   1.000000
   14       -3.096749   1.000000
   15       -2.864824   1.000000
   16        0.184461   1.000000
   17        0.184463   1.000000
   18        0.422300   1.000000
   19        0.565603   1.000000
   20        0.742008   1.000000
   21        0.742011   1.000000
   22        0.848884   1.000001
   23        0.848889   1.000001
   24        0.941394   1.000360
   25        2.454551  -0.000000
   26        2.574195  -0.000000
   27        2.695921  -0.000000
   28        3.022184  -0.000000
   29        3.115557  -0.000000
   30        3.722277  -0.000000
   31        3.722279  -0.000000
   32        4.032323   0.000000
   33        5.305332   0.000000
   34        5.512246   0.000000
   35        5.512252   0.000000
   36        8.535128   0.000000

  0.2222222E+00  0.3603057E-15  0.3742002E-15  0.8230453E-02
    1       -9.236982   1.000000
    2       -7.668296   1.000000
    3       -6.925768   1.000000
    4       -6.065200   1.000000
    5       -6.065196   1.000000
    6       -5.528392   1.000000
    7       -4.721312   1.000000
    8       -4.721309   1.000000
    9       -4.097383   1.000000
   10       -4.097381   1.000000
   11       -3.260112   1.000000
   12       -2.982707   1.000000
   13       -2.982705   1.000000
   14       -2.680620   1.000000
   15       -2.202509   1.000000
   16       -0.304251   1.000000
   17       -0.304249   1.000000
   18       -0.096285   1.000000
   19        0.339489   1.000000
   20        0.339492   1.000000
   21        0.574092   1.000000
   22        0.746396   1.000000
   23        0.746400   1.000000
   24        1.088803   1.035138
   25        1.928002  -0.000000
   26        2.387756  -0.000000
   27        2.467234  -0.000000
   28        2.617143  -0.000000
   29        2.827206  -0.000000
   30        4.013609   0.000000
   31        4.013611   0.000000
   32        4.804749   0.000000
   33        4.977506   0.000000
   34        5.468584   0.000000
   35        5.468589   0.000000
   36        8.648133   0.000000

  0.3333333E+00  0.3775634E-15  0.3742002E-15  0.8230453E-02
    1       -8.974601   1.000000
    2       -7.578881   1.000000
    3       -7.426143   1.000000
    4       -6.242423   1.000000
    5       -6.242420   1.000000
    6       -6.135535   1.000000
    7       -4.894687   1.000000
    8       -4.894684   1.000000
    9       -3.516497   1.000000
   10       -3.516495   1.000000
   11       -2.435441   1.000000
   12       -2.435440   1.000000
   13       -2.375566   1.000000
   14       -2.213328   1.000000
   15       -1.241262   1.000000
   16       -0.942001   1.000000
   17       -0.941999   1.000000
   18       -0.790432   1.000000
   19       -0.207073   1.000000
   20       -0.207070   1.000000
   21        0.643857   1.000000
   22        0.643861   1.000000
   23        0.820982   1.000000
   24        1.018572   1.008684
   25        1.328172  -0.033590
   26        1.670765  -0.000000
   27        1.978636  -0.000000
   28        2.440209  -0.000000
   29        2.885088  -0.000000
   30        4.241657   0.000000
   31        4.360446   0.000000
   32        4.360448   0.000000
   33        5.421541   0.000000
   34        5.421546   0.000000
   35        6.126859   0.000000
   36        8.768147   0.000000

  0.4444444E+00  0.3456514E-15  0.3742002E-15  0.8230453E-02
    1       -8.609077   1.000000
    2       -8.142596   1.000000
    3       -7.088610   1.000000
    4       -6.657447   1.000000
    5       -6.335047   1.000000
    6       -6.335044   1.000000
    7       -4.984010   1.000000
    8       -4.984008   1.000000
    9       -2.989257   1.000000
   10       -2.989255   1.000000
   11       -1.953168   1.000000
   12       -1.931870   1.000000
   13       -1.931868   1.000000
   14       -1.517048   1.000000
   15       -1.517046   1.000000
   16       -1.420234   1.000000
   17       -1.122747   1.000000
   18       -0.727252   1.000000
   19       -0.727249   1.000000
   20       -0.248432   1.000000
   21       -0.027035   1.000000
   22        0.583120   1.000000
   23        0.583124   1.000000
   24        0.739652   1.000000
   25        1.152188   0.936325
   26        1.548904  -0.000013
   27        1.648314  -0.000000
   28        2.029800  -0.000000
   29        3.253044  -0.000000
   30        3.711337  -0.000000
   31        4.603712   0.000000
   32        4.603713   0.000000
   33        5.392177   0.000000
   34        5.392182   0.000000
   35        7.355399   0.000000
   36        8.747335   0.000000

  0.1111111E+00  0.1111111E+00  0.3742002E-15  0.8230453E-02
    1       -9.289578   1.000000
    2       -7.716819   1.000000
    3       -6.534979   1.000000
    4       -6.534977   1.000000
    5       -5.551827   1.000000
    6       -5.163088   1.000000
    7       -5.163087   1.000000
    8       -4.688104   1.000000
    9       -4.198851   1.000000
   10       -3.726007   1.000000
   11       -3.726004   1.000000
   12       -3.574758   1.000000
   13       -2.741920   1.000000
   14       -2.634331   1.000000
   15       -2.634328   1.000000
   16       -0.357964   1.000000
   17        0.287485   1.000000
   18        0.287488   1.000000
   19        0.288193   1.000000
   20        0.294734   1.000000
   21        0.294736   1.000000
   22        0.841650   1.000001
   23        0.841653   1.000001
   24        1.083107   1.034016
   25        2.155051  -0.000000
   26        2.459298  -0.000000
   27        2.563107  -0.000000
   28        2.662169  -0.000000
   29        2.898431  -0.000000
   30        3.591671  -0.000000
   31        4.462196   0.000000
   32        4.462199   0.000000
   33        5.112578   0.000000
   34        5.112580   0.000000
   35        5.702949   0.000000
   36        8.351909   0.000000

  0.2222222E+00  0.1111111E+00  0.3742002E-15  0.1646091E-01
    1       -9.079433   1.000000
    2       -7.522905   1.000000
    3       -7.224937   1.000000
    4       -6.776777   1.000000
    5       -5.807301   1.000000
    6       -5.551994   1.000000
    7       -5.391372   1.000000
    8       -4.343425   1.000000
    9       -4.231505   1.000000
   10       -3.221001   1.000000
   11       -3.158242   1.000000
   12       -2.721107   1.000000
   13       -2.497246   1.000000
   14       -2.108225   1.000000
   15       -1.706654   1.000000
   16       -1.061275   1.000000
   17       -0.403927   1.000000
   18       -0.318234   1.000000
   19       -0.143692   1.000000
   20        0.078833   1.000000
   21        0.490447   1.000000
   22        0.492526   1.000000
   23        1.037634   1.015074
   24        1.219871   0.467139
   25        1.420904  -0.006798
   26        2.022518  -0.000000
   27        2.054469  -0.000000
   28        2.524326  -0.000000
   29        2.778443  -0.000000
   30        3.648362  -0.000000
   31        4.561369   0.000000
   32        4.930544   0.000000
   33        4.958450   0.000000
   34        5.521750   0.000000
   35        5.849321   0.000000
   36        8.247550   0.000000

  0.3333333E+00  0.1111111E+00  0.3742002E-15  0.1646091E-01
    1       -8.765478   1.000000
    2       -7.834157   1.000000
    3       -7.233069   1.000000
    4       -6.924507   1.000000
    5       -6.372167   1.000000
    6       -5.637932   1.000000
    7       -5.530303   1.000000
    8       -4.330979   1.000000
    9       -3.802185   1.000000
   10       -2.688808   1.000000
   11       -2.579575   1.000000
   12       -2.133341   1.000000
   13       -1.769325   1.000000
   14       -1.657547   1.000000
   15       -1.572089   1.000000
   16       -1.071775   1.000000
   17       -0.954710   1.000000
   18       -0.734997   1.000000
   19       -0.696739   1.000000
   20       -0.058328   1.000000
   21        0.020379   1.000000
   22        0.476129   1.000000
   23        0.786536   1.000000
   24        1.187199   0.732773
   25        1.270300   0.107128
   26        1.322573  -0.030683
   27        1.598817  -0.000000
   28        2.096829  -0.000000
   29        3.096694  -0.000000
   30        3.795599  -0.000000
   31        4.007620   0.000000
   32        4.859678   0.000000
   33        5.319987   0.000000
   34        5.936572   0.000000
   35        6.702927   0.000000
   36        8.205038   0.000000

  0.4444444E+00  0.1111111E+00  0.3742002E-15  0.8230453E-02
    1       -8.349435   1.000000
    2       -8.349430   1.000000
    3       -6.974105   1.000000
    4       -6.848729   1.000000
    5       -6.848723   1.000000
    6       -5.674103   1.000000
    7       -5.576879   1.000000
    8       -4.369457   1.000000
    9       -3.465058   1.000000
   10       -2.346425   1.000000
   11       -2.247408   1.000000
   12       -2.160279   1.000000
   13       -1.655026   1.000000
   14       -1.655021   1.000000
   15       -1.331789   1.000000
   16       -1.256286   1.000000
   17       -1.029780   1.000000
   18       -0.575099   1.000000
   19       -0.575096   1.000000
   20       -0.281662   1.000000
   21       -0.105185   1.000000
   22        0.245299   1.000000
   23        0.245303   1.000000
   24        1.163250   0.884744
   25        1.163256   0.884712
   26        1.279880   0.063272
   27        1.683234  -0.000000
   28        1.683240  -0.000000
   29        3.510728  -0.000000
   30        3.510733  -0.000000
   31        3.872387  -0.000000
   32        4.825794   0.000000
   33        5.477971   0.000000
   34        5.964760   0.000000
   35        7.914276   0.000000
   36        8.166544   0.000000

  0.2222222E+00  0.2222222E+00  0.3742002E-15  0.8230453E-02
    1       -8.817709   1.000000
    2       -7.426709   1.000000
    3       -7.426708   1.000000
    4       -7.281312   1.000000
    5       -5.995184   1.000000
    6       -5.995182   1.000000
    7       -5.130174   1.000000
    8       -4.357352   1.000000
    9       -3.826655   1.000000
   10       -3.236259   1.000000
   11       -2.193589   1.000000
   12       -2.145050   1.000000
   13       -2.145047   1.000000
   14       -1.846740   1.000000
   15       -1.179591   1.000000
   16       -1.179587   1.000000
   17       -1.024312   1.000000
   18       -0.614919   1.000000
   19       -0.614918   1.000000
   20        0.122165   1.000000
   21        0.122168   1.000000
   22        0.734830   1.000000
   23        0.744843   1.000000
   24        0.744847   1.000000
   25        1.414360  -0.008423
   26        1.516232  -0.000092
   27        1.649659  -0.000000
   28        2.038930  -0.000000
   29        3.044308  -0.000000
   30        3.373845  -0.000000
   31        4.393436   0.000000
   32        4.393438   0.000000
   33        6.018555   0.000000
   34        6.018558   0.000000
   35        6.216971   0.000000
   36        7.890676   0.000000

  0.3333333E+00  0.2222222E+00  0.3742002E-15  0.1646091E-01
    1       -8.453198   1.000000
    2       -7.988215   1.000000
    3       -7.528207   1.000000
    4       -6.944680   1.000000
    5       -6.514929   1.000000
    6       -6.089648   1.000000
    7       -5.001393   1.000000
    8       -4.060302   1.000000
    9       -3.734487   1.000000
   10       -2.899500   1.000000
   11       -2.475009   1.000000
   12       -1.773134   1.000000
   13       -1.648628   1.000000
   14       -1.624370   1.000000
   15       -1.242520   1.000000
   16       -1.114165   1.000000
   17       -0.723011   1.000000
   18       -0.722032   1.000000
   19       -0.305449   1.000000
   20       -0.243084   1.000000
   21       -0.127065   1.000000
   22        0.380640   1.000000
   23        0.491353   1.000000
   24        0.645581   1.000000
   25        0.961720   1.000955
   26        1.092672   1.035447
   27        1.530749  -0.000040
   28        1.928921  -0.000000
   29        3.209671  -0.000000
   30        3.409548  -0.000000
   31        3.865041  -0.000000
   32        4.307903   0.000000
   33        6.336024   0.000000
   34        6.487452   0.000000
   35        7.152819   0.000000
   36        7.633399   0.000000

  0.3333333E+00  0.3333333E+00  0.3742002E-15  0.2743484E-02
    1       -8.039710   1.000000
    2       -8.039706   1.000000
    3       -8.039702   1.000000
    4       -6.562650   1.000000
    5       -6.562645   1.000000
    6       -6.562641   1.000000
    7       -4.431780   1.000000
    8       -4.431776   1.000000
    9       -3.207682   1.000000
   10       -3.207678   1.000000
   11       -2.785648   1.000000
   12       -1.940923   1.000000
   13       -1.299752   1.000000
   14       -1.299749   1.000000
   15       -1.299746   1.000000
   16       -0.816786   1.000000
   17       -0.816781   1.000000
   18       -0.816778   1.000000
   19        0.027591   1.000000
   20        0.027597   1.000000
   21        0.027600   1.000000
   22        0.262835   1.000000
   23        0.262840   1.000000
   24        0.262842   1.000000
   25        0.900359   1.000038
   26        0.900364   1.000038
   27        0.900367   1.000038
   28        2.585032  -0.000000
   29        2.585035  -0.000000
   30        3.817124  -0.000000
   31        3.817128  -0.000000
   32        3.817131  -0.000000
   33        7.057698   0.000000
   34        7.057949   0.000000
   35        7.330767   0.000000
   36        7.330768   0.000000

  0.3742002E-15  0.3742002E-15  0.1111111E+00  0.2743484E-02
    1       -9.414214   1.000000
    2       -7.937918   1.000000
    3       -5.662732   1.000000
    4       -5.662726   1.000000
    5       -5.662724   1.000000
    6       -4.790618   1.000000
    7       -4.790615   1.000000
    8       -4.790611   1.000000
    9       -4.384141   1.000000
   10       -4.384134   1.000000
   11       -4.384131   1.000000
   12       -3.744587   1.000000
   13       -3.744584   1.000000
   14       -3.744580   1.000000
   15       -2.777652   1.000000
   16        0.385607   1.000000
   17        0.385610   1.000000
   18        0.385612   1.000000
   19        0.874552   1.000008
   20        0.874555   1.000008
   21        0.874557   1.000008
   22        1.021522   1.009522
   23        1.021528   1.009523
   24        1.021530   1.009524
   25        2.164964  -0.000000
   26        2.824660  -0.000000
   27        2.824666  -0.000000
   28        3.211113  -0.000000
   29        3.211120  -0.000000
   30        3.722257  -0.000000
   31        3.722260  -0.000000
   32        3.722262  -0.000000
   33        5.336877   0.000000
   34        5.336883   0.000000
   35        5.336885   0.000000
   36        8.164158   0.000000

  0.1111111E+00  0.3644361E-15  0.1111111E+00  0.1646091E-01
    1       -9.361552   1.000000
    2       -7.888987   1.000000
    3       -6.179651   1.000000
    4       -5.805395   1.000000
    5       -5.805390   1.000000
    6       -4.912418   1.000000
    7       -4.559704   1.000000
    8       -4.559701   1.000000
    9       -4.545348   1.000000
   10       -4.545344   1.000000
   11       -4.192072   1.000000
   12       -3.501786   1.000000
   13       -3.501783   1.000000
   14       -3.142158   1.000000
   15       -2.716438   1.000000
   16        0.199787   1.000000
   17        0.199790   1.000000
   18        0.436733   1.000000
   19        0.695638   1.000000
   20        0.723282   1.000000
   21        0.723285   1.000000
   22        0.924341   1.000148
   23        0.977284   1.001890
   24        0.977288   1.001890
   25        2.219651  -0.000000
   26        2.586792  -0.000000
   27        2.707787  -0.000000
   28        3.007619  -0.000000
   29        3.102087  -0.000000
   30        3.835421  -0.000000
   31        3.835423  -0.000000
   32        4.143493   0.000000
   33        5.104622   0.000000
   34        5.316690   0.000000
   35        5.316696   0.000000
   36        8.235890   0.000000

  0.2222222E+00  0.3603057E-15  0.1111111E+00  0.1646091E-01
    1       -9.203799   1.000000
    2       -7.742360   1.000000
    3       -6.894991   1.000000
    4       -6.035289   1.000000
    5       -6.035285   1.000000
    6       -5.590316   1.000000
    7       -4.779911   1.000000
    8       -4.779908   1.000000
    9       -4.070995   1.000000
   10       -4.070994   1.000000
   11       -3.234835   1.000000
   12       -3.027654   1.000000
   13       -3.027652   1.000000
   14       -2.533347   1.000000
   15       -2.244991   1.000000
   16       -0.287055   1.000000
   17       -0.287053   1.000000
   18        0.037827   1.000000
   19        0.316713   1.000000
   20        0.316715   1.000000
   21        0.588400   1.000000
   22        0.875790   1.000008
   23        0.875794   1.000008
   24        1.071937   1.030203
   25        1.942363  -0.000000
   26        2.383469  -0.000000
   27        2.400187  -0.000000
   28        2.449189  -0.000000
   29        2.813042  -0.000000
   30        4.124484   0.000000
   31        4.124486   0.000000
   32        4.592646   0.000000
   33        5.082522   0.000000
   34        5.267874   0.000000
   35        5.267879   0.000000
   36        8.394710   0.000000

  0.3333333E+00  0.3775634E-15  0.1111111E+00  0.1646091E-01
    1       -8.941688   1.000000
    2       -7.547420   1.000000
    3       -7.498674   1.000000
    4       -6.212411   1.000000
    5       -6.212408   1.000000
    6       -6.200527   1.000000
    7       -4.953431   1.000000
    8       -4.953428   1.000000
    9       -3.490780   1.000000
   10       -3.490778   1.000000
   11       -2.478677   1.000000
   12       -2.478676   1.000000
   13       -2.230141   1.000000
   14       -2.189677   1.000000
   15       -1.281803   1.000000
   16       -0.922820   1.000000
   17       -0.922818   1.000000
   18       -0.650133   1.000000
   19       -0.234123   1.000000
   20       -0.234121   1.000000
   21        0.774216   1.000000
   22        0.774220   1.000000
   23        0.835095   1.000001
   24        1.035552   1.014266
   25        1.311573  -0.019922
   26        1.648288  -0.000000
   27        1.991606  -0.000000
   28        2.425229  -0.000000
   29        2.652898  -0.000000
   30        4.021253   0.000000
   31        4.467935   0.000000
   32        4.467937   0.000000
   33        5.215893   0.000000
   34        5.215898   0.000000
   35        6.223715   0.000000
   36        8.546089   0.000000

  0.4444444E+00  0.3456514E-15  0.1111111E+00  0.1646091E-01
    1       -8.576536   1.000000
    2       -8.110528   1.000000
    3       -7.159059   1.000000
    4       -6.725345   1.000000
    5       -6.304973   1.000000
    6       -6.304970   1.000000
    7       -5.042944   1.000000
    8       -5.042941   1.000000
    9       -2.964027   1.000000
   10       -2.964025   1.000000
   11       -1.973820   1.000000
   12       -1.973818   1.000000
   13       -1.810412   1.000000
   14       -1.496690   1.000000
   15       -1.496687   1.000000
   16       -1.281634   1.000000
   17       -1.101014   1.000000
   18       -0.756937   1.000000
   19       -0.756934   1.000000
   20       -0.279140   1.000000
   21       -0.007556   1.000000
   22        0.712567   1.000000
   23        0.713989   1.000000
   24        0.713992   1.000000
   25        1.166083   0.869559
   26        1.562370  -0.000006
   27        1.632097  -0.000000
   28        2.014137  -0.000000
   29        3.023386  -0.000000
   30        3.485425  -0.000000
   31        4.708373   0.000000
   32        4.708374   0.000000
   33        5.183664   0.000000
   34        5.183669   0.000000
   35        7.442136   0.000000
   36        8.645878   0.000000

  0.1111111E+00  0.1111111E+00  0.1111111E+00  0.1646091E-01
    1       -9.256344   1.000000
    2       -7.791205   1.000000
    3       -6.504607   1.000000
    4       -6.504606   1.000000
    5       -5.522039   1.000000
    6       -5.223398   1.000000
    7       -5.223396   1.000000
    8       -4.661395   1.000000
    9       -4.258850   1.000000
   10       -3.700078   1.000000
   11       -3.700075   1.000000
   12       -3.618464   1.000000
   13       -2.678313   1.000000
   14       -2.678310   1.000000
   15       -2.594278   1.000000
   16       -0.340697   1.000000
   17        0.265756   1.000000
   18        0.302688   1.000000
   19        0.302691   1.000000
   20        0.426014   1.000000
   21        0.426016   1.000000
   22        0.823574   1.000000
   23        0.823577   1.000000
   24        1.209876   0.551590
   25        2.168985  -0.000000
   26        2.327924  -0.000000
   27        2.472530  -0.000000
   28        2.645320  -0.000000
   29        2.884274  -0.000000
   30        3.705437  -0.000000
   31        4.570502   0.000000
   32        4.570505   0.000000
   33        4.905998   0.000000
   34        4.906001   0.000000
   35        5.509300   0.000000
   36        8.095266   0.000000

  0.2222222E+00  0.1111111E+00  0.1111111E+00  0.3292181E-01
    1       -9.046409   1.000000
    2       -7.596044   1.000000
    3       -7.193848   1.000000
    4       -6.746182   1.000000
    5       -5.870571   1.000000
    6       -5.522525   1.000000
    7       -5.452525   1.000000
    8       -4.316810   1.000000
    9       -4.288840   1.000000
   10       -3.266007   1.000000
   11       -3.133071   1.000000
   12       -2.696609   1.000000
   13       -2.351081   1.000000
   14       -2.150154   1.000000
   15       -1.747381   1.000000
   16       -1.041906   1.000000
   17       -0.344935   1.000000
   18       -0.267883   1.000000
   19       -0.126685   1.000000
   20        0.208939   1.000000
   21        0.473544   1.000000
   22        0.505484   1.000000
   23        1.019666   1.008988
   24        1.345810  -0.034706
   25        1.436923  -0.003838
   26        2.001968  -0.000000
   27        2.066996  -0.000000
   28        2.509109  -0.000000
   29        2.546118  -0.000000
   30        3.760930  -0.000000
   31        4.345088   0.000000
   32        4.747289   0.000000
   33        5.035116   0.000000
   34        5.622831   0.000000
   35        5.653182   0.000000
   36        8.018745   0.000000

  0.3333333E+00  0.1111111E+00  0.1111111E+00  0.3292181E-01
    1       -8.732774   1.000000
    2       -7.802425   1.000000
    3       -7.304398   1.000000
    4       -6.893766   1.000000
    5       -6.438439   1.000000
    6       -5.608591   1.000000
    7       -5.592004   1.000000
    8       -4.387273   1.000000
    9       -3.775898   1.000000
   10       -2.733635   1.000000
   11       -2.555227   1.000000
   12       -1.989391   1.000000
   13       -1.748417   1.000000
   14       -1.634851   1.000000
   15       -1.611761   1.000000
   16       -0.984669   1.000000
   17       -0.943768   1.000000
   18       -0.759449   1.000000
   19       -0.678006   1.000000
   20       -0.023225   1.000000
   21        0.093657   1.000000
   22        0.494498   1.000000
   23        0.801250   1.000000
   24        1.162284   0.889744
   25        1.305022  -0.009694
   26        1.396049  -0.014407
   27        1.612411  -0.000000
   28        2.080627  -0.000000
   29        2.866183  -0.000000
   30        3.784642  -0.000000
   31        3.905846  -0.000000
   32        4.645745   0.000000
   33        5.420638   0.000000
   34        5.735966   0.000000
   35        6.794978   0.000000
   36        7.997483   0.000000

  0.4444444E+00  0.1111111E+00  0.1111111E+00  0.1646091E-01
    1       -8.317160   1.000000
    2       -8.317154   1.000000
    3       -6.943322   1.000000
    4       -6.917744   1.000000
    5       -6.917738   1.000000
    6       -5.644778   1.000000
    7       -5.638787   1.000000
    8       -4.425574   1.000000
    9       -3.438852   1.000000
   10       -2.391782   1.000000
   11       -2.223429   1.000000
   12       -2.138907   1.000000
   13       -1.514274   1.000000
   14       -1.514269   1.000000
   15       -1.362109   1.000000
   16       -1.294731   1.000000
   17       -1.010384   1.000000
   18       -0.554459   1.000000
   19       -0.554456   1.000000
   20       -0.316587   1.000000
   21        0.036578   1.000000
   22        0.216053   1.000000
   23        0.216057   1.000000
   24        1.177513   0.800396
   25        1.177520   0.800356
   26        1.405654  -0.011001
   27        1.666243  -0.000000
   28        1.666250  -0.000000
   29        3.283276  -0.000000
   30        3.283281  -0.000000
   31        3.981401   0.000000
   32        4.610872   0.000000
   33        5.576705   0.000000
   34        5.761975   0.000000
   35        7.995404   0.000000
   36        7.996100   0.000000

  0.2222222E+00  0.2222222E+00  0.1111111E+00  0.1646091E-01
    1       -8.784947   1.000000
    2       -7.395410   1.000000
    3       -7.395408   1.000000
    4       -7.352933   1.000000
    5       -6.059373   1.000000
    6       -6.059371   1.000000
    7       -5.101090   1.000000
    8       -4.330697   1.000000
    9       -3.883324   1.000000
   10       -3.280763   1.000000
   11       -2.121485   1.000000
   12       -2.121482   1.000000
   13       -2.049252   1.000000
   14       -1.825653   1.000000
   15       -1.218561   1.000000
   16       -1.218557   1.000000
   17       -1.054459   1.000000
   18       -0.477764   1.000000
   19       -0.477763   1.000000
   20        0.138807   1.000000
   21        0.138811   1.000000
   22        0.724587   1.000000
   23        0.724590   1.000000
   24        0.752674   1.000000
   25        1.390559  -0.016601
   26        1.530014  -0.000042
   27        1.772648  -0.000000
   28        2.022008  -0.000000
   29        2.813736  -0.000000
   30        3.487127  -0.000000
   31        4.174600   0.000000
   32        4.174602   0.000000
   33        6.022222   0.000000
   34        6.115174   0.000000
   35        6.115176   0.000000
   36        7.678615   0.000000

  0.3333333E+00  0.2222222E+00  0.1111111E+00  0.3292181E-01
    1       -8.420818   1.000000
    2       -7.956320   1.000000
    3       -7.496813   1.000000
    4       -7.014255   1.000000
    5       -6.581987   1.000000
    6       -6.154303   1.000000
    7       -4.972757   1.000000
    8       -4.033307   1.000000
    9       -3.788488   1.000000
   10       -2.947044   1.000000
   11       -2.453141   1.000000
   12       -1.655303   1.000000
   13       -1.631452   1.000000
   14       -1.625834   1.000000
   15       -1.104925   1.000000
   16       -1.092443   1.000000
   17       -0.760379   1.000000
   18       -0.585751   1.000000
   19       -0.287527   1.000000
   20       -0.274274   1.000000
   21       -0.107319   1.000000
   22        0.359581   1.000000
   23        0.507398   1.000000
   24        0.617842   1.000000
   25        0.976780   1.001850
   26        1.073041   1.030648
   27        1.512257  -0.000115
   28        2.050217  -0.000000
   29        3.181590  -0.000000
   30        3.322982  -0.000000
   31        3.640789  -0.000000
   32        4.087791   0.000000
   33        6.290283   0.000000
   34        6.429094   0.000000
   35        7.240227   0.000000
   36        7.433640   0.000000

  0.3333333E+00  0.3333333E+00  0.1111111E+00  0.5486968E-02
    1       -8.007761   1.000000
    2       -8.007757   1.000000
    3       -8.007753   1.000000
    4       -6.629974   1.000000
    5       -6.629970   1.000000
    6       -6.629965   1.000000
    7       -4.403874   1.000000
    8       -4.403870   1.000000
    9       -3.259279   1.000000
   10       -3.259275   1.000000
   11       -2.763601   1.000000
   12       -1.970725   1.000000
   13       -1.161251   1.000000
   14       -1.161247   1.000000
   15       -1.161244   1.000000
   16       -0.795528   1.000000
   17       -0.795523   1.000000
   18       -0.795520   1.000000
   19       -0.003608   1.000000
   20       -0.003603   1.000000
   21       -0.003599   1.000000
   22        0.279544   1.000000
   23        0.279549   1.000000
   24        0.279552   1.000000
   25        0.879930   1.000011
   26        0.879935   1.000011
   27        0.879938   1.000011
   28        2.702060  -0.000000
   29        2.702063  -0.000000
   30        3.592519  -0.000000