 running on   16 total cores
 distrk:  each k-point on   16 cores,    1 groups
 distr:  one band on    4 cores,    4 groups
 using from now: INCAR     
 vasp.5.4.4.18Apr17-6-g9f103f2a35 (build Dec  7 2020 12:43:57) complex           
 POSCAR found type information on POSCAR  B 
 POSCAR found :  1 types and      16 ions
 scaLAPACK will be used
 LDA part: xc-table for Pade appr. of Perdew
 POSCAR, INCAR and KPOINTS ok, starting setup
 resort distribution
 resort distribution
 resort distribution
 resort distribution
 resort distribution
 resort distribution
 resort distribution
 resort distribution
 resort distribution
 resort distribution
 resort distribution
 resort distribution
 resort distribution
 resort distribution
 resort distribution
 resort distribution
 FFT: planning ...
 WAVECAR not read
 augmentation electrons   48.024414754383876     
 soft         electrons   0.0000000000000000     
 total        electrons   48.024414754383876     
 augmentation electrons   48.024414754383876     
 soft         electrons   0.0000000000000000     
 total        electrons   48.024414754383876     
 augmentation electrons   48.024414754383876     
 soft         electrons   0.0000000000000000     
 total        electrons   48.024414754383876     
 augmentation electrons   48.024414754383876     
 soft         electrons   0.0000000000000000     
 total        electrons   48.024414754383876     
 augmentation electrons   48.024414754383876     
 soft         electrons   0.0000000000000000     
 total        electrons   48.024414754383876     
 augmentation electrons   48.024414754383876     
 soft         electrons   0.0000000000000000     
 total        electrons   48.024414754383876     
 augmentation electrons   48.024414754383876     
 soft         electrons   0.0000000000000000     
 total        electrons   48.024414754383876     
 augmentation electrons   48.024414754383876     
 soft         electrons   0.0000000000000000     
 total        electrons   48.024414754383876     
 augmentation electrons   48.024414754383876     
 soft         electrons   0.0000000000000000     
 total        electrons   48.024414754383876     
 augmentation electrons   48.024414754383876     
 soft         electrons   0.0000000000000000     
 total        electrons   48.024414754383876     
 augmentation electrons   48.024414754383876     
 soft         electrons   0.0000000000000000     
 total        electrons   48.024414754383876     
 augmentation electrons   48.024414754383876     
 soft         electrons   0.0000000000000000     
 augmentation electrons   48.024414754383876     
 soft         electrons   0.0000000000000000     
 total        electrons   48.024414754383876     
 augmentation electrons   48.024414754383876     
 soft         electrons   0.0000000000000000     
 total        electrons   48.024414754383876     
 augmentation electrons   48.024414754383876     
 soft         electrons   0.0000000000000000     
 total        electrons   48.024414754383876     
 augmentation electrons   48.024414754383876     
 soft         electrons   0.0000000000000000     
 total        electrons   48.024414754383876     
 total        electrons   48.024414754383876     
 augmentation electrons   32.475925610795414     
 soft         electrons   0.0000000000000000     
 augmentation electrons   32.475925610795414     
 soft         electrons   0.0000000000000000     
 augmentation electrons   32.475925610795414     
 soft         electrons   0.0000000000000000     
 augmentation electrons   32.475925610795414     
 soft         electrons   0.0000000000000000     
 augmentation electrons   32.475925610795414     
 soft         electrons   0.0000000000000000     
 augmentation electrons   32.475925610795414     
 soft         electrons   0.0000000000000000     
 augmentation electrons   32.475925610795414     
 soft         electrons   0.0000000000000000     
 augmentation electrons   32.475925610795414     
 soft         electrons   0.0000000000000000     
 augmentation electrons   32.475925610795414     
 soft         electrons   0.0000000000000000     
 augmentation electrons   32.475925610795414     
 soft         electrons   0.0000000000000000     
 augmentation electrons   32.475925610795414     
 soft         electrons   0.0000000000000000     
 augmentation electrons   32.475925610795414     
 soft         electrons   0.0000000000000000     
 augmentation electrons   32.475925610795414     
 soft         electrons   0.0000000000000000     
 augmentation electrons   32.475925610795414     
 soft         electrons   0.0000000000000000     
 augmentation electrons   32.475925610795414     
 soft         electrons   0.0000000000000000     
 augmentation electrons   32.475925610795414     
 soft         electrons   0.0000000000000000     
 total        electrons   32.475925610795414     
 total        electrons   32.475925610795414     
 total        electrons   32.475925610795414     
 total        electrons   32.475925610795414     
 total        electrons   32.475925610795414     
 total        electrons   32.475925610795414     
 total        electrons   32.475925610795414     
 total        electrons   32.475925610795414     
 total        electrons   32.475925610795414     
 total        electrons   32.475925610795414     
 total        electrons   32.475925610795414     
 total        electrons   32.475925610795414     
 total        electrons   32.475925610795414     
 total        electrons   32.475925610795414     
 total        electrons   32.475925610795414     
 total        electrons   32.475925610795414     
 entering main loop
       N       E                     dE             d eps       ncg     rms          rms(c)
DAV:   1     0.936330390953E+02    0.93633E+02   -0.19773E+04  4320   0.112E+03
DAV:   2    -0.841811249435E+02   -0.17781E+03   -0.16088E+03  5648   0.190E+02
DAV:   3    -0.942280258942E+02   -0.10047E+02   -0.95630E+01  5052   0.410E+01
DAV:   4    -0.944176082678E+02   -0.18958E+00   -0.18854E+00  5064   0.589E+00
DAV:   5    -0.944223697348E+02   -0.47615E-02   -0.47590E-02  5124   0.882E-01    0.139E+01
RMM:   6    -0.897857696496E+02    0.46366E+01   -0.32951E+00  4323   0.620E+00    0.706E+00
RMM:   7    -0.885579792466E+02    0.12278E+01   -0.33010E+00  4328   0.605E+00    0.103E+00
RMM:   8    -0.885688558139E+02   -0.10877E-01   -0.38966E-02  4482   0.942E-01    0.173E-01
RMM:   9    -0.885690553706E+02   -0.19956E-03   -0.36611E-03  4619   0.216E-01    0.455E-02
RMM:  10    -0.885692713467E+02   -0.21598E-03   -0.44934E-04  4673   0.847E-02    0.110E-02
RMM:  11    -0.885692684938E+02    0.28529E-05   -0.22476E-05  4410   0.141E-02    0.234E-03
RMM:  12    -0.885692702685E+02   -0.17747E-05   -0.28443E-06  3267   0.680E-03    0.757E-04
RMM:  13    -0.885692702667E+02    0.18331E-08   -0.27247E-07  2198   0.188E-03
   1 F= -.88569270E+02 E0= -.88569258E+02  d E =-.362052E-04
 writing wavefunctions
 augmentation electrons -0.48361358981166269     
 soft         electrons   48.506008112866795     
 total        electrons   48.022394523055134     
 augmentation electrons -0.48361358981166269     
 soft         electrons   48.506008112866795     
 total        electrons   48.022394523055134     
 augmentation electrons -0.48361358981166269     
 soft         electrons   48.506008112866795     
 total        electrons   48.022394523055134     
 augmentation electrons -0.48361358981166269     
 soft         electrons   48.506008112866795     
 total        electrons   48.022394523055134     
 augmentation electrons -0.48361358981166269     
 soft         electrons   48.506008112866795     
 total        electrons   48.022394523055134     
 augmentation electrons -0.48361358981166269     
 soft         electrons   48.506008112866795     
 total        electrons   48.022394523055134     
 augmentation electrons -0.48361358981166269     
 soft         electrons   48.506008112866795     
 total        electrons   48.022394523055134     
 augmentation electrons -0.48361358981166269     
 soft         electrons   48.506008112866795     
 total        electrons   48.022394523055134     
 augmentation electrons -0.48361358981166269     
 soft         electrons   48.506008112866795     
 augmentation electrons -0.48361358981166269     
 soft         electrons   48.506008112866795     
 total        electrons   48.022394523055134     
 augmentation electrons -0.48361358981166269     
 soft         electrons   48.506008112866795     
 total        electrons   48.022394523055134     
 augmentation electrons -0.48361358981166269     
 soft         electrons   48.506008112866795     
 total        electrons   48.022394523055134     
 augmentation electrons -0.48361358981166269     
 soft         electrons   48.506008112866795     
 total        electrons   48.022394523055134     
 augmentation electrons -0.48361358981166269     
 soft         electrons   48.506008112866795     
 total        electrons   48.022394523055134     
 augmentation electrons -0.48361358981166269     
 soft         electrons   48.506008112866795     
 total        electrons   48.022394523055134     
 augmentation electrons -0.48361358981166269     
 soft         electrons   48.506008112866795     
 total        electrons   48.022394523055134     
 total        electrons   48.022394523055134     
Note: The following floating-point exceptions are signalling: IEEE_OVERFLOW_FLAG
Note: The following floating-point exceptions are signalling: IEEE_OVERFLOW_FLAG
Note: The following floating-point exceptions are signalling: IEEE_OVERFLOW_FLAG
Note: The following floating-point exceptions are signalling: IEEE_OVERFLOW_FLAG
Note: The following floating-point exceptions are signalling: IEEE_OVERFLOW_FLAG
Note: The following floating-point exceptions are signalling: IEEE_OVERFLOW_FLAG
Note: The following floating-point exceptions are signalling: IEEE_OVERFLOW_FLAG
Note: The following floating-point exceptions are signalling: IEEE_OVERFLOW_FLAG
Note: The following floating-point exceptions are signalling: IEEE_OVERFLOW_FLAG
Note: The following floating-point exceptions are signalling: IEEE_OVERFLOW_FLAG
Note: The following floating-point exceptions are signalling: IEEE_OVERFLOW_FLAG
Note: The following floating-point exceptions are signalling: IEEE_OVERFLOW_FLAG
Note: The following floating-point exceptions are signalling: IEEE_OVERFLOW_FLAG
Note: The following floating-point exceptions are signalling: IEEE_OVERFLOW_FLAG
Note: The following floating-point exceptions are signalling: IEEE_OVERFLOW_FLAG
Note: The following floating-point exceptions are signalling: IEEE_OVERFLOW_FLAG
