   24   24   60    1
  0.8144829E+01  0.6078000E-09  0.6078000E-09  0.6110000E-09  0.5000000E-15
   1.0000000000000000E-004
  CAR 
 Name                                    
     94    125     60

  0.3742002E-15  0.3742002E-15  0.3742002E-15  0.1371742E-02
    1       -5.734697   1.000000
    2       -3.650811   1.000000
    3       -2.522623   1.000000
    4       -2.399936   1.000000
    5       -2.279742   1.000000
    6       -1.813218   1.000000
    7       -1.807377   1.000000
    8       -1.804125   1.000000
    9       -1.323275   1.000000
   10       -1.296389   1.000000
   11       -1.269511   1.000000
   12       -0.033644   1.000000
   13        0.340806   1.000000
   14        0.425407   1.000000
   15        0.493598   1.000000
   16        2.489782   1.000000
   17        2.521829   1.000000
   18        2.648952   1.000000
   19        2.806282   1.000000
   20        3.005633   1.000000
   21        3.129404   1.000000
   22        3.478053   1.000000
   23        3.794580   1.000000
   24        3.871098   1.000000
   25        4.012696   1.000000
   26        4.249550   1.000000
   27        4.395193   1.000000
   28        4.540016   1.000000
   29        4.580767   1.000000
   30        4.602905   1.000000
   31        4.611575   1.000000
   32        4.647662   1.000000
   33        4.853272   1.000000
   34        4.950832   1.000000
   35        5.010380   1.000000
   36        5.017898   1.000000
   37        5.672360   1.000000
   38        6.733742   1.000000
   39        6.808976   1.000000
   40        7.244465   1.000000
   41        7.255259   1.000000
   42        7.270573   1.000000
   43        7.293639   1.000000
   44        8.378581   1.000000
   45        8.396561   1.000000
   46        8.507276   1.000000
   47        8.855926   1.017903
   48        9.116838  -0.010384
   49        9.127221  -0.024924
   50        9.816327  -0.000000
   51        9.888131  -0.000000
   52        9.978095  -0.000000
   53       10.089858  -0.000000
   54       10.116938  -0.000000
   55       10.168407  -0.000000
   56       10.259895  -0.000000
   57       10.430721  -0.000000
   58       10.511972  -0.000000
   59       10.875582  -0.000000
   60       10.948742  -0.000000

  0.1111111E+00  0.3745146E-15  0.3742002E-15  0.5486968E-02
    1       -5.674477   1.000000
    2       -3.630073   1.000000
    3       -2.551993   1.000000
    4       -2.387478   1.000000
    5       -2.367575   1.000000
    6       -2.319380   1.000000
    7       -1.976840   1.000000
    8       -1.972697   1.000000
    9       -1.051666   1.000000
   10       -1.047972   1.000000
   11       -0.702682   1.000000
   12        0.052423   1.000000
   13        0.390960   1.000000
   14        0.404000   1.000000
   15        0.587730   1.000000
   16        2.508625   1.000000
   17        2.525736   1.000000
   18        2.684015   1.000000
   19        2.810291   1.000000
   20        3.052902   1.000000
   21        3.120994   1.000000
   22        3.524821   1.000000
   23        3.655639   1.000000
   24        3.742341   1.000000
   25        3.834112   1.000000
   26        3.889291   1.000000
   27        4.366065   1.000000
   28        4.378446   1.000000
   29        4.541248   1.000000
   30        4.565112   1.000000
   31        4.642793   1.000000
   32        4.912876   1.000000
   33        4.923752   1.000000
   34        4.973689   1.000000
   35        5.211599   1.000000
   36        5.322567   1.000000
   37        5.555692   1.000000
   38        6.084962   1.000000
   39        6.150999   1.000000
   40        7.104255   1.000000
   41        7.326009   1.000000
   42        7.863856   1.000000
   43        7.961531   1.000000
   44        8.121100   1.000000
   45        8.172889   1.000000
   46        8.482410   1.000000
   47        8.883671   1.030326
   48        9.096668   0.042764
   49        9.292193  -0.000583
   50        9.797998  -0.000000
   51        9.878808  -0.000000
   52        9.948893  -0.000000
   53       10.005991  -0.000000
   54       10.011850  -0.000000
   55       10.124443  -0.000000
   56       10.202792  -0.000000
   57       10.424884  -0.000000
   58       10.451167  -0.000000
   59       10.729753  -0.000000
   60       10.870030  -0.000000

  0.2222222E+00  0.3685699E-15  0.3742002E-15  0.5486968E-02
    1       -5.495485   1.000000
    2       -3.567451   1.000000
    3       -3.071278   1.000000
    4       -2.690648   1.000000
    5       -2.355513   1.000000
    6       -2.344827   1.000000
    7       -2.202557   1.000000
    8       -2.199931   1.000000
    9       -0.592813   1.000000
   10       -0.587291   1.000000
   11        0.098757   1.000000
   12        0.311021   1.000000
   13        0.350239   1.000000
   14        0.363222   1.000000
   15        1.005040   1.000000
   16        2.528370   1.000000
   17        2.531467   1.000000
   18        2.689290   1.000000
   19        2.824134   1.000000
   20        3.004835   1.000000
   21        3.037406   1.000000
   22        3.176638   1.000000
   23        3.187336   1.000000
   24        3.657224   1.000000
   25        3.916836   1.000000
   26        3.940049   1.000000
   27        3.950864   1.000000
   28        4.503078   1.000000
   29        4.513334   1.000000
   30        4.640923   1.000000
   31        4.669850   1.000000
   32        4.775629   1.000000
   33        4.859082   1.000000
   34        4.911443   1.000000
   35        5.186419   1.000000
   36        5.266842   1.000000
   37        5.389517   1.000000
   38        5.867043   1.000000
   39        5.963585   1.000000
   40        6.740076   1.000000
   41        7.538818   1.000000
   42        7.555252   1.000000
   43        7.568083   1.000000
   44        8.500532   1.000000
   45        8.632643   1.000000
   46        8.898688   1.034905
   47        8.964877   0.931081
   48        9.032927   0.453434
   49        9.624747  -0.000000
   50        9.625254  -0.000000
   51        9.729933  -0.000000
   52        9.730938  -0.000000
   53        9.860523  -0.000000
   54        9.874700  -0.000000
   55        9.897590  -0.000000
   56       10.022770  -0.000000
   57       10.244471  -0.000000
   58       10.372651  -0.000000
   59       10.492061  -0.000000
   60       10.629967  -0.000000

  0.3333333E+00  0.4145315E-15  0.3742002E-15  0.5486968E-02
    1       -5.202537   1.000000
    2       -3.725025   1.000000
    3       -3.462049   1.000000
    4       -2.907058   1.000000
    5       -2.364835   1.000000
    6       -2.363319   1.000000
    7       -2.322607   1.000000
    8       -2.318762   1.000000
    9       -0.070336   1.000000
   10       -0.062736   1.000000
   11        0.290653   1.000000
   12        0.305402   1.000000
   13        0.687871   1.000000
   14        0.947305   1.000000
   15        1.630857   1.000000
   16        2.253882   1.000000
   17        2.352489   1.000000
   18        2.400553   1.000000
   19        2.530055   1.000000
   20        2.531238   1.000000
   21        3.086565   1.000000
   22        3.208194   1.000000
   23        3.379722   1.000000
   24        3.433174   1.000000
   25        3.815504   1.000000
   26        3.947273   1.000000
   27        4.123765   1.000000
   28        4.355133   1.000000
   29        4.391048   1.000000
   30        4.502096   1.000000
   31        4.687671   1.000000
   32        4.735507   1.000000
   33        4.754415   1.000000
   34        4.764372   1.000000
   35        4.814557   1.000000
   36        4.909227   1.000000
   37        5.009481   1.000000
   38        6.173382   1.000000
   39        6.612848   1.000000
   40        6.617828   1.000000
   41        7.012394   1.000000
   42        7.026156   1.000000
   43        7.869074   1.000000
   44        8.595530   1.000000
   45        8.937467   1.011308
   46        9.013058   0.620129
   47        9.017997   0.579318
   48        9.092843   0.057118
   49        9.282183  -0.000933
   50        9.379168  -0.000004
   51        9.602260  -0.000000
   52        9.790577  -0.000000
   53        9.793777  -0.000000
   54        9.838221  -0.000000
   55        9.840491  -0.000000
   56        9.930737  -0.000000
   57        9.937674  -0.000000
   58       10.284203  -0.000000
   59       10.302286  -0.000000
   60       10.503233  -0.000000

  0.4444444E+00  0.3784822E-15  0.3742002E-15  0.5486968E-02
    1       -4.803109   1.000000
    2       -4.306828   1.000000
    3       -3.313684   1.000000
    4       -3.125135   1.000000
    5       -2.447388   1.000000
    6       -2.446888   1.000000
    7       -2.298289   1.000000
    8       -2.295676   1.000000
    9        0.254986   1.000000
   10        0.261252   1.000000
   11        0.397219   1.000000
   12        0.402906   1.000000
   13        1.201448   1.000000
   14        1.707877   1.000000
   15        1.736424   1.000000
   16        1.829307   1.000000
   17        1.863001   1.000000
   18        2.363623   1.000000
   19        2.520360   1.000000
   20        2.542877   1.000000
   21        2.554669   1.000000
   22        3.233458   1.000000
   23        3.449141   1.000000
   24        3.561889   1.000000
   25        3.564496   1.000000
   26        3.836232   1.000000
   27        4.244997   1.000000
   28        4.258095   1.000000
   29        4.284697   1.000000
   30        4.289854   1.000000
   31        4.410112   1.000000
   32        4.553734   1.000000
   33        4.769786   1.000000
   34        4.793260   1.000000
   35        4.815926   1.000000
   36        4.842654   1.000000
   37        5.299691   1.000000
   38        5.717270   1.000000
   39        6.677044   1.000000
   40        6.682631   1.000000
   41        7.180435   1.000000
   42        7.186530   1.000000
   43        8.215535   1.000000
   44        8.387648   1.000000
   45        8.510066   1.000000
   46        8.704780   1.000025
   47        8.823256   1.006973
   48        8.859929   1.019655
   49        9.254949  -0.002977
   50        9.432997  -0.000000
   51        9.536772  -0.000000
   52        9.581272  -0.000000
   53        9.805148  -0.000000
   54        9.808011  -0.000000
   55        9.875810  -0.000000
   56        9.911417  -0.000000
   57       10.024739  -0.000000
   58       10.415047  -0.000000
   59       10.512429  -0.000000
   60       10.515942  -0.000000

  0.1111111E+00  0.1111111E+00  0.3742002E-15  0.2743484E-02
    1       -5.554836   1.000000
    2       -3.587565   1.000000
    3       -2.691110   1.000000
    4       -2.672626   1.000000
    5       -2.606596   1.000000
    6       -2.476438   1.000000
    7       -2.267339   1.000000
    8       -1.604880   1.000000
    9       -1.213031   1.000000
   10       -0.311583   1.000000
   11       -0.245826   1.000000
   12        0.183051   1.000000
   13        0.223932   1.000000
   14        0.712630   1.000000
   15        0.716947   1.000000
   16        2.481046   1.000000
   17        2.559544   1.000000
   18        2.779509   1.000000
   19        2.785213   1.000000
   20        2.955003   1.000000
   21        3.025241   1.000000
   22        3.232759   1.000000
   23        3.618059   1.000000
   24        3.721314   1.000000
   25        3.898949   1.000000
   26        3.944188   1.000000
   27        3.952628   1.000000
   28        4.117835   1.000000
   29        4.401288   1.000000
   30        4.649689   1.000000
   31        4.813177   1.000000
   32        4.900122   1.000000
   33        4.902738   1.000000
   34        5.221095   1.000000
   35        5.241943   1.000000
   36        5.345972   1.000000
   37        5.415326   1.000000
   38        5.597481   1.000000
   39        5.952259   1.000000
   40        6.867406   1.000000
   41        7.459420   1.000000
   42        7.502025   1.000000
   43        8.147904   1.000000
   44        8.221673   1.000000
   45        8.479085   1.000000
   46        8.655380   1.000001
   47        8.938149   1.010106
   48        9.042753   0.371887
   49        9.602930  -0.000000
   50        9.752015  -0.000000
   51        9.785313  -0.000000
   52        9.817612  -0.000000
   53        9.885236  -0.000000
   54        9.892686  -0.000000
   55        9.908289  -0.000000
   56       10.093963  -0.000000
   57       10.212168  -0.000000
   58       10.442264  -0.000000
   59       10.638791  -0.000000
   60       10.699650  -0.000000

  0.2222222E+00  0.1111111E+00  0.3742002E-15  0.5486968E-02
    1       -5.318815   1.000000
    2       -3.502980   1.000000
    3       -3.365455   1.000000
    4       -2.908430   1.000000
    5       -2.767697   1.000000
    6       -2.571729   1.000000
    7       -2.130372   1.000000
    8       -1.639283   1.000000
    9       -0.826862   1.000000
   10       -0.044994   1.000000
   11        0.193275   1.000000
   12        0.501056   1.000000
   13        0.593623   1.000000
   14        0.799053   1.000000
   15        1.262150   1.000000
   16        2.199848   1.000000
   17        2.441754   1.000000
   18        2.596445   1.000000
   19        2.629013   1.000000
   20        2.962322   1.000000
   21        2.965492   1.000000
   22        3.167889   1.000000
   23        3.480872   1.000000
   24        3.590474   1.000000
   25        3.762700   1.000000
   26        3.938774   1.000000
   27        4.018582   1.000000
   28        4.128098   1.000000
   29        4.346527   1.000000
   30        4.603016   1.000000
   31        4.626781   1.000000
   32        4.734164   1.000000
   33        4.835476   1.000000
   34        4.948690   1.000000
   35        4.962090   1.000000
   36        5.025801   1.000000
   37        5.262111   1.000000
   38        5.840803   1.000000
   39        6.500149   1.000000
   40        6.617319   1.000000
   41        6.848598   1.000000
   42        7.727059   1.000000
   43        7.727612   1.000000
   44        8.324736   1.000000
   45        8.939217   1.008152
   46        9.043508   0.365753
   47        9.063560   0.215149
   48        9.279860  -0.001037
   49        9.399977  -0.000001
   50        9.481794  -0.000000
   51        9.586420  -0.000000
   52        9.618494  -0.000000
   53        9.717277  -0.000000
   54        9.801903  -0.000000
   55        9.897181  -0.000000
   56       10.077605  -0.000000
   57       10.116149  -0.000000
   58       10.237316  -0.000000
   59       10.313510  -0.000000
   60       10.429097  -0.000000

  0.3333333E+00  0.1111111E+00  0.3742002E-15  0.5486968E-02
    1       -4.972487   1.000000
    2       -3.984620   1.000000
    3       -3.375660   1.000000
    4       -3.045213   1.000000
    5       -2.998582   1.000000
    6       -2.585673   1.000000
    7       -2.011700   1.000000
    8       -1.743218   1.000000
    9       -0.261346   1.000000
   10       -0.225352   1.000000
   11        0.667522   1.000000
   12        0.842399   1.000000
   13        0.996833   1.000000
   14        1.366206   1.000000
   15        1.491256   1.000000
   16        1.958573   1.000000
   17        2.124377   1.000000
   18        2.409689   1.000000
   19        2.606838   1.000000
   20        2.675832   1.000000
   21        2.847698   1.000000
   22        3.109658   1.000000
   23        3.251423   1.000000
   24        3.544019   1.000000
   25        3.754817   1.000000
   26        3.905290   1.000000
   27        4.186860   1.000000
   28        4.204108   1.000000
   29        4.281034   1.000000
   30        4.351927   1.000000
   31        4.371705   1.000000
   32        4.436117   1.000000
   33        4.671101   1.000000
   34        4.678498   1.000000
   35        4.953767   1.000000
   36        5.165912   1.000000
   37        5.249224   1.000000
   38        5.898650   1.000000
   39        6.326582   1.000000
   40        6.553644   1.000000
   41        7.300245   1.000000
   42        7.324970   1.000000
   43        8.099671   1.000000
   44        8.474616   1.000000
   45        8.707480   1.000029
   46        8.794036   1.002356
   47        8.798181   1.002783
   48        9.153575  -0.035259
   49        9.190816  -0.021501
   50        9.379826  -0.000004
   51        9.547314  -0.000000
   52        9.646234  -0.000000
   53        9.655555  -0.000000
   54        9.689216  -0.000000
   55        9.883987  -0.000000
   56       10.111624  -0.000000
   57       10.119765  -0.000000
   58       10.183502  -0.000000
   59       10.324820  -0.000000
   60       10.396757  -0.000000

  0.4444444E+00  0.1111111E+00  0.3742002E-15  0.5486968E-02
    1       -4.524395   1.000000
    2       -4.524329   1.000000
    3       -3.208734   1.000000
    4       -3.206536   1.000000
    5       -3.090600   1.000000
    6       -2.584643   1.000000
    7       -1.963216   1.000000
    8       -1.781426   1.000000
    9       -0.292066   1.000000
   10        0.102273   1.000000
   11        0.852726   1.000000
   12        0.926932   1.000000
   13        1.081877   1.000000
   14        1.534606   1.000000
   15        1.550545   1.000000
   16        2.149184   1.000000
   17        2.156560   1.000000
   18        2.330281   1.000000
   19        2.381115   1.000000
   20        2.699177   1.000000
   21        2.748024   1.000000
   22        2.753278   1.000000
   23        3.099637   1.000000
   24        3.608189   1.000000
   25        3.643144   1.000000
   26        3.959078   1.000000
   27        4.146020   1.000000
   28        4.235882   1.000000
   29        4.239674   1.000000
   30        4.354816   1.000000
   31        4.391737   1.000000
   32        4.414376   1.000000
   33        4.505507   1.000000
   34        4.557186   1.000000
   35        5.136006   1.000000
   36        5.136598   1.000000
   37        5.487749   1.000000
   38        5.519777   1.000000
   39        6.110918   1.000000
   40        6.802628   1.000000
   41        7.161927   1.000000
   42        7.832251   1.000000
   43        8.230150   1.000000
   44        8.338041   1.000000
   45        8.635918   1.000000
   46        8.640304   1.000000
   47        8.657927   1.000001
   48        8.668780   1.000002
   49        9.364250  -0.000010
   50        9.364498  -0.000010
   51        9.379038  -0.000004
   52        9.384162  -0.000003
   53        9.659284  -0.000000
   54        9.878884  -0.000000
   55       10.038133  -0.000000
   56       10.039122  -0.000000
   57       10.146917  -0.000000
   58       10.189482  -0.000000
   59       10.191306  -0.000000
   60       10.384981  -0.000000

 -0.4444444E+00  0.1111111E+00  0.3742002E-15  0.5486968E-02
    1       -4.972623   1.000000
    2       -3.984703   1.000000
    3       -3.379803   1.000000
    4       -3.044452   1.000000
    5       -3.001431   1.000000
    6       -2.577740   1.000000
    7       -2.011202   1.000000
    8       -1.744658   1.000000
    9       -0.266245   1.000000
   10       -0.214074   1.000000
   11        0.680811   1.000000
   12        0.835914   1.000000
   13        0.991669   1.000000
   14        1.338876   1.000000
   15        1.541017   1.000000
   16        1.919828   1.000000
   17        2.098568   1.000000
   18        2.433467   1.000000
   19        2.614761   1.000000
   20        2.703259   1.000000
   21        2.882356   1.000000
   22        3.056291   1.000000
   23        3.220051   1.000000
   24        3.548450   1.000000
   25        3.721060   1.000000
   26        3.950822   1.000000
   27        4.123560   1.000000
   28        4.169640   1.000000
   29        4.246169   1.000000
   30        4.312113   1.000000
   31        4.524103   1.000000
   32        4.531790   1.000000
   33        4.547234   1.000000
   34        4.729336   1.000000
   35        4.946334   1.000000
   36        5.204999   1.000000
   37        5.240848   1.000000
   38        5.923765   1.000000
   39        6.332896   1.000000
   40        6.531551   1.000000
   41        7.260420   1.000000
   42        7.309838   1.000000
   43        8.135914   1.000000
   44        8.470664   1.000000
   45        8.683744   1.000007
   46        8.803124   1.003377
   47        8.811735   1.004663
   48        9.159487  -0.034216
   49        9.191980  -0.020971
   50        9.371584  -0.000006
   51        9.548284  -0.000000
   52        9.652263  -0.000000
   53        9.661541  -0.000000
   54        9.681203  -0.000000
   55        9.891099  -0.000000
   56       10.119328  -0.000000
   57       10.133245  -0.000000
   58       10.152664  -0.000000
   59       10.313707  -0.000000
   60       10.396856  -0.000000

 -0.3333333E+00  0.1111111E+00  0.3742002E-15  0.5486968E-02
    1       -5.318959   1.000000
    2       -3.507114   1.000000
    3       -3.365771   1.000000
    4       -2.906970   1.000000
    5       -2.778402   1.000000
    6       -2.562959   1.000000
    7       -2.118969   1.000000
    8       -1.642653   1.000000
    9       -0.829601   1.000000
   10       -0.031329   1.000000
   11        0.208437   1.000000
   12        0.492660   1.000000
   13        0.592243   1.000000
   14        0.791861   1.000000
   15        1.234665   1.000000
   16        2.229218   1.000000
   17        2.459352   1.000000
   18        2.587387   1.000000
   19        2.681459   1.000000
   20        2.903474   1.000000
   21        2.982392   1.000000
   22        3.155834   1.000000
   23        3.437247   1.000000
   24        3.546818   1.000000
   25        3.761098   1.000000
   26        3.979216   1.000000
   27        4.004304   1.000000
   28        4.004925   1.000000
   29        4.443148   1.000000
   30        4.658397   1.000000
   31        4.676193   1.000000
   32        4.731439   1.000000
   33        4.804530   1.000000
   34        4.874340   1.000000
   35        4.993094   1.000000
   36        5.067470   1.000000
   37        5.256266   1.000000
   38        5.980424   1.000000
   39        6.401650   1.000000
   40        6.561366   1.000000
   41        6.860795   1.000000
   42        7.706271   1.000000
   43        7.752748   1.000000
   44        8.320624   1.000000
   45        8.945112   0.995709
   46        9.044345   0.358981
   47        9.072698   0.156906
   48        9.286757  -0.000755
   49        9.396524  -0.000001
   50        9.470642  -0.000000
   51        9.584853  -0.000000
   52        9.615563  -0.000000
   53        9.741653  -0.000000
   54        9.764756  -0.000000
   55        9.919385  -0.000000
   56       10.121410  -0.000000
   57       10.140138  -0.000000
   58       10.153195  -0.000000
   59       10.332367  -0.000000
   60       10.492607  -0.000000

 -0.2222222E+00  0.1111111E+00  0.3742002E-15  0.5486968E-02
    1       -5.554941   1.000000
    2       -3.590487   1.000000
    3       -2.683372   1.000000
    4       -2.679047   1.000000
    5       -2.586343   1.000000
    6       -2.532364   1.000000
    7       -2.220779   1.000000
    8       -1.611375   1.000000
    9       -1.211899   1.000000
   10       -0.277521   1.000000
   11       -0.272276   1.000000
   12        0.188667   1.000000
   13        0.220823   1.000000
   14        0.697943   1.000000
   15        0.712088   1.000000
   16        2.504457   1.000000
   17        2.634885   1.000000
   18        2.691218   1.000000
   19        2.854368   1.000000
   20        2.926707   1.000000
   21        3.001429   1.000000
   22        3.228501   1.000000
   23        3.601199   1.000000
   24        3.733520   1.000000
   25        3.848563   1.000000
   26        3.857232   1.000000
   27        3.976910   1.000000
   28        4.078867   1.000000
   29        4.478518   1.000000
   30        4.673783   1.000000
   31        4.806337   1.000000
   32        4.852119   1.000000
   33        4.935598   1.000000
   34        5.228962   1.000000
   35        5.360271   1.000000
   36        5.374874   1.000000
   37        5.467072   1.000000
   38        5.546799   1.000000
   39        5.867944   1.000000
   40        6.848947   1.000000
   41        7.466740   1.000000
   42        7.511165   1.000000
   43        8.179151   1.000000
   44        8.189545   1.000000
   45        8.473821   1.000000
   46        8.641794   1.000000
   47        8.938652   1.009198
   48        9.050965   0.306703
   49        9.603157  -0.000000
   50        9.771878  -0.000000
   51        9.781840  -0.000000
   52        9.822186  -0.000000
   53        9.846459  -0.000000
   54        9.856846  -0.000000
   55        9.946840  -0.000000
   56       10.148777  -0.000000
   57       10.179282  -0.000000
   58       10.466585  -0.000000
   59       10.575651  -0.000000
   60       10.737068  -0.000000

 -0.1111111E+00  0.1111111E+00  0.3742002E-15  0.2743484E-02
    1       -5.674515   1.000000
    2       -3.631119   1.000000
    3       -2.518131   1.000000
    4       -2.476153   1.000000
    5       -2.363734   1.000000
    6       -2.259316   1.000000
    7       -2.002726   1.000000
    8       -1.952703   1.000000
    9       -1.050319   1.000000
   10       -1.048141   1.000000
   11       -0.700680   1.000000
   12        0.051436   1.000000
   13        0.351944   1.000000
   14        0.440990   1.000000
   15        0.584455   1.000000
   16        2.514177   1.000000
   17        2.578107   1.000000
   18        2.627151   1.000000
   19        2.863870   1.000000
   20        2.952426   1.000000
   21        3.161693   1.000000
   22        3.517696   1.000000
   23        3.721232   1.000000
   24        3.788991   1.000000
   25        3.804159   1.000000
   26        3.918989   1.000000
   27        4.029452   1.000000
   28        4.439317   1.000000
   29        4.482195   1.000000
   30        4.705220   1.000000
   31        4.854571   1.000000
   32        4.892719   1.000000
   33        4.948064   1.000000
   34        4.962138   1.000000
   35        5.155977   1.000000
   36        5.262929   1.000000
   37        5.566409   1.000000
   38        6.064312   1.000000
   39        6.169998   1.000000
   40        7.115006   1.000000
   41        7.313871   1.000000
   42        7.862135   1.000000
   43        7.939507   1.000000
   44        8.118054   1.000000
   45        8.259560   1.000000
   46        8.414451   1.000000
   47        8.883845   1.030397
   48        9.106051   0.013526
   49        9.289031  -0.000679
   50        9.809827  -0.000000
   51        9.853299  -0.000000
   52        9.969158  -0.000000
   53        9.994806  -0.000000
   54       10.034170  -0.000000
   55       10.086863  -0.000000
   56       10.281178  -0.000000
   57       10.292933  -0.000000
   58       10.549266  -0.000000
   59       10.753548  -0.000000
   60       10.760365  -0.000000

  0.2222222E+00  0.2222222E+00  0.3742002E-15  0.2743484E-02
    1       -5.029297   1.000000
    2       -3.587321   1.000000
    3       -3.535352   1.000000
    4       -3.396084   1.000000
    5       -2.844408   1.000000
    6       -2.794421   1.000000
    7       -1.871081   1.000000
    8       -1.041837   1.000000
    9       -0.959805   1.000000
   10       -0.433197   1.000000
   11        0.870203   1.000000
   12        1.017057   1.000000
   13        1.025551   1.000000
   14        1.317059   1.000000
   15        1.404560   1.000000
   16        1.536519   1.000000
   17        2.372475   1.000000
   18        2.513501   1.000000
   19        2.579763   1.000000
   20        2.781189   1.000000
   21        3.081418   1.000000
   22        3.123233   1.000000
   23        3.272226   1.000000
   24        3.551930   1.000000
   25        3.627459   1.000000
   26        3.837338   1.000000
   27        3.934368   1.000000
   28        4.185512   1.000000
   29        4.219892   1.000000
   30        4.383767   1.000000
   31        4.445436   1.000000
   32        4.455208   1.000000
   33        4.729303   1.000000
   34        4.789814   1.000000
   35        4.790106   1.000000
   36        5.190382   1.000000
   37        5.612848   1.000000
   38        5.862428   1.000000
   39        6.194615   1.000000
   40        6.234981   1.000000
   41        7.306392   1.000000
   42        7.953367   1.000000
   43        7.968771   1.000000
   44        8.047933   1.000000
   45        8.753882   1.000380
   46        8.951181   0.979779
   47        9.121992  -0.018545
   48        9.126947  -0.024634
   49        9.170765  -0.030486
   50        9.455690  -0.000000
   51        9.494576  -0.000000
   52        9.565676  -0.000000
   53        9.682105  -0.000000
   54        9.746241  -0.000000
   55        9.833594  -0.000000
   56        9.907258  -0.000000
   57       10.041125  -0.000000
   58       10.184062  -0.000000
   59       10.214392  -0.000000
   60       10.430631  -0.000000

  0.3333333E+00  0.2222222E+00  0.3742002E-15  0.5486968E-02
    1       -4.633833   1.000000
    2       -4.142602   1.000000
    3       -3.657251   1.000000
    4       -3.246219   1.000000
    5       -3.064674   1.000000
    6       -2.827496   1.000000
    7       -1.642146   1.000000
    8       -1.075382   1.000000
    9       -0.728719   1.000000
   10       -0.387232   1.000000
   11        0.695260   1.000000
   12        1.334599   1.000000
   13        1.431888   1.000000
   14        1.484901   1.000000
   15        1.751967   1.000000
   16        1.998723   1.000000
   17        2.173801   1.000000
   18        2.329925   1.000000
   19        2.423867   1.000000
   20        2.565001   1.000000
   21        2.914501   1.000000
   22        2.925107   1.000000
   23        2.988189   1.000000
   24        3.374707   1.000000
   25        3.708286   1.000000
   26        3.735841   1.000000
   27        4.010257   1.000000
   28        4.109633   1.000000
   29        4.200114   1.000000
   30        4.241920   1.000000
   31        4.317059   1.000000
   32        4.434699   1.000000
   33        4.671928   1.000000
   34        4.733707   1.000000
   35        5.021245   1.000000