   50   50    1    1
  0.2363123E+02  0.8645320E-09  0.6085000E-09  0.2593596E-08  0.5000000E-15
   1.0000000000000000E-004
  CAR 
 Name                                    
    190    149    128

  0.3742002E-15  0.3742002E-15  0.3742002E-15  0.3367003E-02
    1      -13.962117   1.000000
    2      -12.587643   1.000000
    3      -12.471712   1.000000
    4      -11.928336   1.000000
    5      -11.585751   1.000000
    6      -11.221041   1.000000
    7      -11.153741   1.000000
    8      -11.116336   1.000000
    9      -10.979430   1.000000
   10      -10.669280   1.000000
   11      -10.667466   1.000000
   12      -10.343211   1.000000
   13      -10.136911   1.000000
   14      -10.118267   1.000000
   15       -9.800720   1.000000
   16       -9.743064   1.000000
   17       -9.151681   1.000000
   18       -9.113779   1.000000
   19       -8.811403   1.000000
   20       -8.768453   1.000000
   21       -8.522269   1.000000
   22       -8.267016   1.000000
   23       -8.210299   1.000000
   24       -8.057227   1.000000
   25       -8.029595   1.000000
   26       -7.962971   1.000000
   27       -7.490773   1.000000
   28       -7.279892   1.000000
   29       -6.763098   1.000000
   30       -6.568229   1.000000
   31       -6.488988   1.000000
   32       -6.268170   1.000000
   33       -6.105869   1.000000
   34       -5.961084   1.000000
   35       -5.639082   1.000000
   36       -5.612438   1.000000
   37       -5.545098   1.000000
   38       -5.473636   1.000000
   39       -5.438887   1.000000
   40       -5.288622   1.000000
   41       -5.184892   1.000000
   42       -5.131527   1.000000
   43       -5.029619   1.000000
   44       -4.908000   1.000000
   45       -4.826951   1.000000
   46       -4.772132   1.000000
   47       -4.737428   1.000000
   48       -4.602655   1.000000
   49       -4.580186   1.000000
   50       -4.532647   1.000000
   51       -4.513190   1.000000
   52       -4.405515   1.000000
   53       -4.361428   1.000000
   54       -4.296813   1.000000
   55       -4.198525   1.000000
   56       -4.078708   1.000000
   57       -4.039603   1.000000
   58       -4.030804   1.000000
   59       -3.967289   1.000000
   60       -3.885295   1.000000
   61       -3.810062   1.000000
   62       -3.554405   1.000000
   63       -3.424865   1.000000
   64       -3.398066   1.000000
   65       -3.373059   1.000000
   66       -3.333406   1.000000
   67       -3.300983   1.000000
   68       -3.264308   1.000000
   69       -3.220581   1.000000
   70       -3.201063   1.000000
   71       -3.078711   1.000000
   72       -3.035225   1.000000
   73       -2.691978   1.000000
   74       -2.587792   1.000000
   75       -2.444018   1.000000
   76       -2.302858   1.000000
   77       -2.248291   1.000000
   78       -2.216530   1.000000
   79       -2.166577   1.000000
   80       -2.104943   1.000000
   81       -1.738953   1.000000
   82       -1.590951   1.000000
   83       -1.391149   1.000000
   84       -1.170934   1.000000
   85       -1.100310   1.000000
   86       -1.062921   1.000000
   87       -1.013080   1.000000
   88       -0.933210   1.000000
   89       -0.857513   1.000000
   90       -0.345768   1.000000
   91       -0.293739   1.000000
   92       -0.002416   1.030385
   93        0.067927   0.782532
   94        0.086238   0.645546
   95        0.222985  -0.035291
   96        0.235679  -0.034246
   97        0.275733  -0.017683
   98        0.543852  -0.000000
   99        0.560512  -0.000000
  100        0.641722  -0.000000
  101        0.656348  -0.000000
  102        0.812281  -0.000000
  103        0.837607  -0.000000
  104        0.873259  -0.000000
  105        0.932344  -0.000000
  106        1.004493  -0.000000
  107        1.280481  -0.000000
  108        1.320602  -0.000000
  109        1.343568  -0.000000
  110        1.445924  -0.000000
  111        1.478172  -0.000000
  112        1.510376  -0.000000
  113        1.550303  -0.000000
  114        1.621558  -0.000000
  115        1.683135  -0.000000
  116        1.756033  -0.000000
  117        1.778159  -0.000000
  118        1.830196  -0.000000
  119        1.899988  -0.000000
  120        1.960323  -0.000000
  121        2.012161  -0.000000
  122        2.150014  -0.000000
  123        2.188086  -0.000000
  124        2.244138  -0.000000
  125        2.427758  -0.000000
  126        2.632851  -0.000000
  127        2.801236  -0.000000
  128        3.916452   0.000000

  0.1111111E+00  0.3729374E-15  0.3860503E-15  0.6734007E-02
    1      -13.935136   1.000000
    2      -12.596515   1.000000
    3      -12.552961   1.000000
    4      -11.871473   1.000000
    5      -11.572819   1.000000
    6      -11.210852   1.000000
    7      -11.150892   1.000000
    8      -11.110173   1.000000
    9      -11.013802   1.000000
   10      -10.665943   1.000000
   11      -10.663921   1.000000
   12      -10.358992   1.000000
   13      -10.132165   1.000000
   14      -10.116179   1.000000
   15       -9.787177   1.000000
   16       -9.726335   1.000000
   17       -9.132346   1.000000
   18       -9.118060   1.000000
   19       -8.811601   1.000000
   20       -8.756375   1.000000
   21       -8.536034   1.000000
   22       -8.320247   1.000000
   23       -8.260812   1.000000
   24       -8.066682   1.000000
   25       -8.008110   1.000000
   26       -7.984410   1.000000
   27       -7.555410   1.000000
   28       -7.312861   1.000000
   29       -6.686024   1.000000
   30       -6.544653   1.000000
   31       -6.462844   1.000000
   32       -6.211123   1.000000
   33       -6.085211   1.000000
   34       -5.942182   1.000000
   35       -5.761445   1.000000
   36       -5.612915   1.000000
   37       -5.548850   1.000000
   38       -5.423089   1.000000
   39       -5.390577   1.000000
   40       -5.300605   1.000000
   41       -5.170689   1.000000
   42       -5.108079   1.000000
   43       -5.001468   1.000000
   44       -4.910311   1.000000
   45       -4.780253   1.000000
   46       -4.769812   1.000000
   47       -4.720900   1.000000
   48       -4.623058   1.000000
   49       -4.584609   1.000000
   50       -4.517023   1.000000
   51       -4.500817   1.000000
   52       -4.403791   1.000000
   53       -4.343980   1.000000
   54       -4.288356   1.000000
   55       -4.185325   1.000000
   56       -4.080190   1.000000
   57       -4.053055   1.000000
   58       -4.031521   1.000000
   59       -3.978628   1.000000
   60       -3.893270   1.000000
   61       -3.796728   1.000000
   62       -3.574927   1.000000
   63       -3.443390   1.000000
   64       -3.380557   1.000000
   65       -3.370127   1.000000
   66       -3.342384   1.000000
   67       -3.300543   1.000000
   68       -3.250320   1.000000
   69       -3.228049   1.000000
   70       -3.154845   1.000000
   71       -3.092761   1.000000
   72       -3.053712   1.000000
   73       -2.770302   1.000000
   74       -2.567355   1.000000
   75       -2.435358   1.000000
   76       -2.316776   1.000000
   77       -2.298576   1.000000
   78       -2.244250   1.000000
   79       -2.208491   1.000000
   80       -2.128787   1.000000
   81       -1.657116   1.000000
   82       -1.618417   1.000000
   83       -1.412257   1.000000
   84       -1.203915   1.000000
   85       -1.081861   1.000000
   86       -1.046011   1.000000
   87       -0.993813   1.000000
   88       -0.901288   1.000000
   89       -0.758205   1.000000
   90       -0.409858   1.000000
   91       -0.362596   1.000000
   92        0.002970   1.025898
   93        0.104396   0.494357
   94        0.143183   0.193186
   95        0.165853   0.070684
   96        0.222549  -0.035242
   97        0.257765  -0.025822
   98        0.562363  -0.000000
   99        0.584842  -0.000000
  100        0.596828  -0.000000
  101        0.677938  -0.000000
  102        0.832421  -0.000000
  103        0.854197  -0.000000
  104        0.886852  -0.000000
  105        0.952954  -0.000000
  106        1.009234  -0.000000
  107        1.288474  -0.000000
  108        1.323197  -0.000000
  109        1.361140  -0.000000
  110        1.464379  -0.000000
  111        1.486698  -0.000000
  112        1.522630  -0.000000
  113        1.571977  -0.000000
  114        1.638070  -0.000000
  115        1.697861  -0.000000
  116        1.739693  -0.000000
  117        1.760692  -0.000000
  118        1.838595  -0.000000
  119        1.890515  -0.000000
  120        1.961715  -0.000000
  121        2.013286  -0.000000
  122        2.100920  -0.000000
  123        2.145255  -0.000000
  124        2.246402  -0.000000
  125        2.296394  -0.000000
  126        2.464649  -0.000000
  127        2.589444  -0.000000
  128        3.804500   0.000000

  0.2222222E+00  0.3922785E-15  0.3630220E-15  0.6734007E-02
    1      -13.854971   1.000000
    2      -12.824170   1.000000
    3      -12.489070   1.000000
    4      -11.827446   1.000000
    5      -11.533981   1.000000
    6      -11.204422   1.000000
    7      -11.136479   1.000000
    8      -11.097402   1.000000
    9      -11.044789   1.000000
   10      -10.656259   1.000000
   11      -10.652402   1.000000
   12      -10.427804   1.000000
   13      -10.124424   1.000000
   14      -10.116107   1.000000
   15       -9.747202   1.000000
   16       -9.674052   1.000000
   17       -9.167313   1.000000
   18       -9.014003   1.000000
   19       -8.805792   1.000000
   20       -8.732507   1.000000
   21       -8.591791   1.000000
   22       -8.451975   1.000000
   23       -8.368658   1.000000
   24       -8.153889   1.000000
   25       -8.095762   1.000000
   26       -7.839540   1.000000
   27       -7.714850   1.000000
   28       -7.329568   1.000000
   29       -6.537560   1.000000
   30       -6.486981   1.000000
   31       -6.409358   1.000000
   32       -6.182492   1.000000
   33       -6.033288   1.000000
   34       -5.982086   1.000000
   35       -5.868933   1.000000
   36       -5.554497   1.000000
   37       -5.509731   1.000000
   38       -5.438845   1.000000
   39       -5.258587   1.000000
   40       -5.234075   1.000000
   41       -5.151116   1.000000
   42       -5.042753   1.000000
   43       -4.935403   1.000000
   44       -4.912713   1.000000
   45       -4.903887   1.000000
   46       -4.759550   1.000000
   47       -4.652295   1.000000
   48       -4.604827   1.000000
   49       -4.541181   1.000000
   50       -4.491140   1.000000
   51       -4.454121   1.000000
   52       -4.375070   1.000000
   53       -4.338663   1.000000
   54       -4.252715   1.000000
   55       -4.167367   1.000000
   56       -4.092977   1.000000
   57       -4.073211   1.000000
   58       -4.019976   1.000000
   59       -3.954846   1.000000
   60       -3.899666   1.000000
   61       -3.780968   1.000000
   62       -3.631412   1.000000
   63       -3.498046   1.000000
   64       -3.412778   1.000000
   65       -3.376895   1.000000
   66       -3.329144   1.000000
   67       -3.298704   1.000000
   68       -3.240792   1.000000
   69       -3.209096   1.000000
   70       -3.177900   1.000000
   71       -3.058917   1.000000
   72       -2.996798   1.000000
   73       -2.904524   1.000000
   74       -2.525200   1.000000
   75       -2.473575   1.000000
   76       -2.460294   1.000000
   77       -2.415290   1.000000
   78       -2.323860   1.000000
   79       -2.264181   1.000000
   80       -2.065302   1.000000
   81       -1.777383   1.000000
   82       -1.485874   1.000000
   83       -1.394294   1.000000
   84       -1.284179   1.000000
   85       -1.048837   1.000000
   86       -0.994065   1.000000
   87       -0.938202   1.000000
   88       -0.822511   1.000000
   89       -0.553181   1.000000
   90       -0.517811   1.000000
   91       -0.501938   1.000000
   92       -0.056652   1.022890
   93        0.085975   0.647659
   94        0.116368   0.393983
   95        0.162939   0.083565
   96        0.267619  -0.021278
   97        0.428354  -0.000022
   98        0.471221  -0.000001
   99        0.555791  -0.000000
  100        0.566682  -0.000000
  101        0.701796  -0.000000
  102        0.817206  -0.000000
  103        0.911425  -0.000000
  104        0.942820  -0.000000
  105        0.991369  -0.000000
  106        1.156796  -0.000000
  107        1.238182  -0.000000
  108        1.348400  -0.000000
  109        1.431660  -0.000000
  110        1.470760  -0.000000
  111        1.502627  -0.000000
  112        1.568623  -0.000000
  113        1.607914  -0.000000
  114        1.651428  -0.000000
  115        1.682481  -0.000000
  116        1.732245  -0.000000
  117        1.799448  -0.000000
  118        1.830723  -0.000000
  119        1.871476  -0.000000
  120        1.963573  -0.000000
  121        2.025878  -0.000000
  122        2.035709  -0.000000
  123        2.096574  -0.000000
  124        2.158233  -0.000000
  125        2.316685  -0.000000
  126        2.612411  -0.000000
  127        2.917543   0.000000
  128        3.813183   0.000000

  0.3333333E+00  0.3713828E-15  0.3468587E-15  0.6734007E-02
    1      -13.724044   1.000000
    2      -13.082362   1.000000
    3      -12.376319   1.000000
    4      -11.899254   1.000000
    5      -11.477281   1.000000
    6      -11.216430   1.000000
    7      -11.110929   1.000000
    8      -11.090236   1.000000
    9      -10.992869   1.000000
   10      -10.642560   1.000000
   11      -10.635612   1.000000
   12      -10.549125   1.000000
   13      -10.126739   1.000000
   14      -10.122691   1.000000
   15       -9.689499   1.000000
   16       -9.591105   1.000000
   17       -9.190609   1.000000
   18       -8.860498   1.000000
   19       -8.803618   1.000000
   20       -8.727228   1.000000
   21       -8.673483   1.000000
   22       -8.584611   1.000000
   23       -8.461736   1.000000
   24       -8.254327   1.000000
   25       -8.202035   1.000000
   26       -7.983054   1.000000
   27       -7.576674   1.000000
   28       -7.256846   1.000000
   29       -6.526724   1.000000
   30       -6.492688   1.000000
   31       -6.363348   1.000000
   32       -6.339705   1.000000
   33       -6.006574   1.000000
   34       -5.911068   1.000000
   35       -5.748710   1.000000
   36       -5.477618   1.000000
   37       -5.435537   1.000000
   38       -5.386879   1.000000
   39       -5.210884   1.000000
   40       -5.166069   1.000000
   41       -5.116019   1.000000
   42       -5.099235   1.000000
   43       -4.986044   1.000000
   44       -4.905938   1.000000
   45       -4.825597   1.000000
   46       -4.758266   1.000000
   47       -4.633885   1.000000
   48       -4.574416   1.000000
   49       -4.486200   1.000000
   50       -4.437150   1.000000
   51       -4.421796   1.000000
   52       -4.359269   1.000000
   53       -4.303937   1.000000
   54       -4.186625   1.000000
   55       -4.166762   1.000000
   56       -4.133291   1.000000
   57       -4.026885   1.000000
   58       -3.995201   1.000000
   59       -3.937501   1.000000
   60       -3.850200   1.000000
   61       -3.794889   1.000000
   62       -3.654323   1.000000
   63       -3.596870   1.000000
   64       -3.437299   1.000000
   65       -3.427784   1.000000
   66       -3.367523   1.000000
   67       -3.313553   1.000000
   68       -3.279221   1.000000
   69       -3.203565   1.000000
   70       -3.173823   1.000000
   71       -2.990829   1.000000
   72       -2.909374   1.000000
   73       -2.885438   1.000000
   74       -2.682975   1.000000
   75       -2.650837   1.000000
   76       -2.541904   1.000000
   77       -2.431632   1.000000
   78       -2.397199   1.000000
   79       -2.323996   1.000000
   80       -1.995612   1.000000
   81       -1.819661   1.000000
   82       -1.585672   1.000000
   83       -1.438212   1.000000
   84       -1.133987   1.000000
   85       -1.083611   1.000000
   86       -0.896258   1.000000
   87       -0.818354   1.000000
   88       -0.749363   1.000000
   89       -0.675716   1.000000
   90       -0.620222   1.000000
   91       -0.260539   1.000002
   92       -0.211038   1.000040
   93        0.061980   0.821485
   94        0.109473   0.451481
   95        0.193274  -0.010600
   96        0.307387  -0.007091
   97        0.366608  -0.000639
   98        0.434783  -0.000015
   99        0.481884  -0.000001
  100        0.704990  -0.000000
  101        0.716357  -0.000000
  102        0.925481  -0.000000
  103        0.957159  -0.000000
  104        1.003893  -0.000000
  105        1.069646  -0.000000
  106        1.089749  -0.000000
  107        1.360026  -0.000000
  108        1.430046  -0.000000
  109        1.460081  -0.000000
  110        1.479292  -0.000000
  111        1.537202  -0.000000
  112        1.600105  -0.000000
  113        1.612285  -0.000000
  114        1.629016  -0.000000
  115        1.657317  -0.000000
  116        1.747472  -0.000000
  117        1.789830  -0.000000
  118        1.852438  -0.000000
  119        1.915230  -0.000000
  120        1.937377  -0.000000
  121        1.970803  -0.000000
  122        1.989040  -0.000000
  123        2.091607  -0.000000
  124        2.123535  -0.000000
  125        2.317730  -0.000000
  126        2.392562  -0.000000
  127        2.531210  -0.000000
  128        3.785536   0.000000

  0.4444444E+00  0.3870091E-15  0.3932070E-15  0.6734007E-02
    1      -13.546856   1.000000
    2      -13.328610   1.000000
    3      -12.234401   1.000000
    4      -12.043754   1.000000
    5      -11.432275   1.000000
    6      -11.223326   1.000000
    7      -11.096986   1.000000
    8      -11.084881   1.000000
    9      -10.901259   1.000000
   10      -10.681813   1.000000
   11      -10.628019   1.000000
   12      -10.620966   1.000000
   13      -10.137502   1.000000
   14      -10.128579   1.000000
   15       -9.642789   1.000000
   16       -9.513888   1.000000
   17       -9.192330   1.000000
   18       -8.884156   1.000000
   19       -8.791172   1.000000
   20       -8.703112   1.000000
   21       -8.651347   1.000000
   22       -8.601315   1.000000
   23       -8.530172   1.000000
   24       -8.326407   1.000000
   25       -8.274884   1.000000
   26       -8.190414   1.000000
   27       -7.344501   1.000000
   28       -7.125845   1.000000
   29       -6.847634   1.000000
   30       -6.491128   1.000000
   31       -6.370031   1.000000
   32       -6.338308   1.000000
   33       -5.981611   1.000000
   34       -5.758658   1.000000
   35       -5.584574   1.000000
   36       -5.458776   1.000000
   37       -5.400599   1.000000
   38       -5.331423   1.000000
   39       -5.291903   1.000000
   40       -5.221685   1.000000
   41       -5.140072   1.000000
   42       -5.123921   1.000000
   43       -4.933425   1.000000
   44       -4.816251   1.000000
   45       -4.771499   1.000000
   46       -4.699171   1.000000
   47       -4.651456   1.000000
   48       -4.603404   1.000000
   49       -4.496622   1.000000
   50       -4.406230   1.000000
   51       -4.362767   1.000000
   52       -4.310938   1.000000
   53       -4.272310   1.000000
   54       -4.250257   1.000000
   55       -4.152693   1.000000
   56       -4.084616   1.000000
   57       -4.047100   1.000000
   58       -3.949284   1.000000
   59       -3.857236   1.000000
   60       -3.833074   1.000000
   61       -3.764409   1.000000
   62       -3.712947   1.000000
   63       -3.643354   1.000000
   64       -3.562721   1.000000
   65       -3.427500   1.000000
   66       -3.408232   1.000000
   67       -3.283590   1.000000
   68       -3.262447   1.000000
   69       -3.203497   1.000000
   70       -3.162911   1.000000
   71       -2.956569   1.000000
   72       -2.924386   1.000000
   73       -2.843926   1.000000
   74       -2.758872   1.000000
   75       -2.723657   1.000000
   76       -2.647589   1.000000
   77       -2.566503   1.000000
   78       -2.342007   1.000000
   79       -2.283482   1.000000
   80       -2.120379   1.000000
   81       -1.699461   1.000000
   82       -1.623421   1.000000
   83       -1.517166   1.000000
   84       -1.211209   1.000000
   85       -0.992703   1.000000
   86       -0.863600   1.000000
   87       -0.799593   1.000000
   88       -0.751861   1.000000
   89       -0.620286   1.000000
   90       -0.479061   1.000000
   91       -0.403802   1.000000
   92       -0.137800   1.001676
   93        0.061767   0.822822
   94        0.103740   0.499912
   95        0.152499   0.136737
   96        0.246882  -0.030565
   97        0.338135  -0.002259
   98        0.398845  -0.000122
   99        0.636678  -0.000000
  100        0.678480  -0.000000
  101        0.713843  -0.000000
  102        0.859762  -0.000000
  103        0.977272  -0.000000
  104        1.031264  -0.000000
  105        1.227509  -0.000000
  106        1.289664  -0.000000
  107        1.366798  -0.000000
  108        1.460898  -0.000000
  109        1.493676  -0.000000
  110        1.546062  -0.000000
  111        1.579124  -0.000000
  112        1.592234  -0.000000
  113        1.616305  -0.000000
  114        1.636224  -0.000000
  115        1.653593  -0.000000
  116        1.678229  -0.000000
  117        1.749486  -0.000000
  118        1.786148  -0.000000
  119        1.881100  -0.000000
  120        1.915455  -0.000000
  121        1.940238  -0.000000
  122        1.948576  -0.000000
  123        2.092031  -0.000000
  124        2.151285  -0.000000
  125        2.272039  -0.000000
  126        2.324585  -0.000000
  127        2.411473  -0.000000
  128        3.508351   0.000000

  0.3742002E-15  0.9090909E-01  0.3596334E-15  0.6734007E-02
    1      -13.928924   1.000000
    2      -12.559081   1.000000
    3      -12.475650   1.000000
    4      -11.896558   1.000000
    5      -11.563648   1.000000
    6      -11.332311   1.000000
    7      -11.293808   1.000000
    8      -11.165381   1.000000
    9      -10.983933   1.000000
   10      -10.671489   1.000000
   11      -10.644335   1.000000
   12      -10.327278   1.000000
   13      -10.086246   1.000000
   14      -10.065421   1.000000
   15       -9.841378   1.000000
   16       -9.714718   1.000000
   17       -9.170621   1.000000
   18       -9.113367   1.000000
   19       -8.915465   1.000000
   20       -8.776059   1.000000
   21       -8.537741   1.000000
   22       -8.200252   1.000000
   23       -8.017545   1.000000
   24       -7.973008   1.000000
   25       -7.889660   1.000000
   26       -7.846427   1.000000
   27       -7.496948   1.000000
   28       -7.309979   1.000000
   29       -6.720964   1.000000
   30       -6.598881   1.000000
   31       -6.491374   1.000000
   32       -6.245716   1.000000
   33       -6.094513   1.000000
   34       -5.995061   1.000000
   35       -5.712309   1.000000
   36       -5.589547   1.000000
   37       -5.525984   1.000000
   38       -5.428872   1.000000
   39       -5.389557   1.000000
   40       -5.310744   1.000000
   41       -5.222183   1.000000
   42       -5.155720   1.000000
   43       -5.050664   1.000000
   44       -4.968650   1.000000
   45       -4.903729   1.000000
   46       -4.806460   1.000000
   47       -4.754319   1.000000
   48       -4.689443   1.000000
   49       -4.591129   1.000000
   50       -4.543445   1.000000
   51       -4.506133   1.000000
   52       -4.417722   1.000000
   53       -4.397784   1.000000
   54       -4.356052   1.000000
   55       -4.229604   1.000000
   56       -4.133974   1.000000
   57       -4.032915   1.000000
   58       -3.984336   1.000000
   59       -3.900148   1.000000
   60       -3.878106   1.000000
   61       -3.794734   1.000000
   62       -3.556444   1.000000
   63       -3.452416   1.000000
   64       -3.425115   1.000000
   65       -3.411174   1.000000
   66       -3.334916   1.000000
   67       -3.307057   1.000000
   68       -3.250994   1.000000
   69       -3.191832   1.000000
   70       -3.169068   1.000000
   71       -3.105206   1.000000
   72       -3.021759   1.000000
   73       -2.805756   1.000000
   74       -2.575155   1.000000
   75       -2.360787   1.000000
   76       -2.299072   1.000000
   77       -2.263115   1.000000
   78       -2.234836   1.000000
   79       -2.155538   1.000000
   80       -2.075083   1.000000
   81       -1.793290   1.000000
   82       -1.503911   1.000000
   83       -1.411928   1.000000
   84       -1.256278   1.000000
   85       -1.154081   1.000000
   86       -1.073589   1.000000
   87       -0.992738   1.000000
   88       -0.931780   1.000000
   89       -0.849580   1.000000
   90       -0.468025   1.000000
   91       -0.264969   1.000001
   92       -0.133023   1.002050
   93       -0.031963   1.033223
   94        0.002895   1.025971
   95        0.174030   0.039082
   96        0.227058  -0.035447
   97        0.293064  -0.011110
   98        0.424655  -0.000028
   99        0.479532  -0.000001
  100        0.586597  -0.000000
  101        0.795408  -0.000000
  102        0.859438  -0.000000
  103        0.896673  -0.000000
  104        0.971860  -0.000000
  105        1.003001  -0.000000
  106        1.105372  -0.000000
  107        1.218669  -0.000000
  108        1.324454  -0.000000
  109        1.367965  -0.000000
  110        1.448996  -0.000000
  111        1.480061  -0.000000
  112        1.516369  -0.000000
  113        1.580361  -0.000000
  114        1.647760  -0.000000
  115        1.695325  -0.000000
  116        1.752257  -0.000000
  117        1.768338  -0.000000
  118        1.796420  -0.000000
  119        1.875301  -0.000000
  120        1.989877  -0.000000
  121        2.034609  -0.000000
  122        2.082294  -0.000000
  123        2.156686  -0.000000
  124        2.273350  -0.000000
  125        2.321554  -0.000000
  126        2.371908  -0.000000
  127        2.738505  -0.000000
  128        2.839556   0.000000

  0.1111111E+00  0.9090909E-01  0.4822234E-15  0.6734007E-02
    1      -13.880162   1.000000
    2      -12.659766   1.000000
    3      -12.510316   1.000000
    4      -11.825246   1.000000
    5      -11.539955   1.000000
    6      -11.376693   1.000000
    7      -11.243442   1.000000
    8      -11.145233   1.000000
    9      -11.033960   1.000000
   10      -10.677328   1.000000
   11      -10.579578   1.000000
   12      -10.361048   1.000000
   13      -10.139145   1.000000
   14      -10.088984   1.000000
   15       -9.790974   1.000000
   16       -9.660284   1.000000
   17       -9.193816   1.000000
   18       -9.055711   1.000000
   19       -8.889387   1.000000
   20       -8.823232   1.000000
   21       -8.577299   1.000000
   22       -8.287122   1.000000
   23       -8.083909   1.000000
   24       -7.928204   1.000000
   25       -7.896991   1.000000
   26       -7.865041   1.000000
   27       -7.617514   1.000000
   28       -7.329084   1.000000
   29       -6.650241   1.000000
   30       -6.572973   1.000000
   31       -6.399007   1.000000
   32       -6.155492   1.000000
   33       -6.091165   1.000000
   34       -5.985463   1.000000
   35       -5.830726   1.000000
   36       -5.630291   1.000000
   37       -5.454151   1.000000
   38       -5.413298   1.000000
   39       -5.350262   1.000000
   40       -5.305049   1.000000
   41       -5.199244   1.000000
   42       -5.093527   1.000000
   43       -5.042797   1.000000
   44       -4.967528   1.000000
   45       -4.888201   1.000000
   46       -4.764974   1.000000
   47       -4.719119   1.000000
   48       -4.652393   1.000000
   49       -4.562915   1.000000
   50       -4.516957   1.000000
   51       -4.482429   1.000000
   52       -4.430734   1.000000
   53       -4.404861   1.000000
   54       -4.336618   1.000000
   55       -4.233237   1.000000
   56       -4.135883   1.000000
   57       -4.037079   1.000000
   58       -3.993033   1.000000
   59       -3.893722   1.000000
   60       -3.884765   1.000000
   61       -3.773389   1.000000
   62       -3.595460   1.000000
   63       -3.488410   1.000000
   64       -3.459480   1.000000
   65       -3.393224   1.000000
   66       -3.336401   1.000000
   67       -3.319678   1.000000
   68       -3.228959   1.000000
   69       -3.198332   1.000000
   70       -3.138230   1.000000
   71       -3.085070   1.000000
   72       -3.031568   1.000000
   73       -2.880500   1.000000
   74       -2.549163   1.000000
   75       -2.421999   1.000000
   76       -2.383906   1.000000
   77       -2.337431   1.000000
   78       -2.270791   1.000000
   79       -2.157638   1.000000
   80       -2.082338   1.000000
   81       -1.807212   1.000000
   82       -1.498482   1.000000
   83       -1.434497   1.000000
   84       -1.295167   1.000000
   85       -1.170893   1.000000
   86       -1.046571   1.000000
   87       -0.907091   1.000000
   88       -0.813531   1.000000
   89       -0.744527   1.000000
   90       -0.544525   1.000000
   91       -0.346017   1.000000
   92       -0.060881   1.020950
   93       -0.036033   1.031859
   94        0.108343   0.461008
   95        0.146765   0.170517
   96        0.219714  -0.034750
   97        0.244099  -0.031636
   98        0.355838  -0.001053
   99        0.441928  -0.000009
  100        0.727195  -0.000000
  101        0.781458  -0.000000
  102        0.844017  -0.000000
  103        0.892477  -0.000000
  104        0.993145  -0.000000
  105        1.040600  -0.000000
  106        1.090619  -0.000000
  107        1.290013  -0.000000
  108        1.316802  -0.000000
  109        1.372403  -0.000000
  110        1.415661  -0.000000
  111        1.497489  -0.000000
  112        1.569757  -0.000000
  113        1.605992  -0.000000
  114        1.647201  -0.000000
  115        1.689581  -0.000000
  116        1.749985  -0.000000
  117        1.783800  -0.000000
  118        1.811276  -0.000000
  119        1.867162  -0.000000
  120        1.992555  -0.000000
  121        2.017925  -0.000000
  122        2.055061  -0.000000