   23   23   60    1
  0.8498952E+01  0.6078000E-09  0.6078000E-09  0.6110000E-09  0.5000000E-15
   1.0000000000000000E-004
  CAR 
 Name                                    
     89    125     56

  0.3742002E-15  0.3742002E-15  0.3742002E-15  0.1371742E-02
    1       -6.116690   1.000000
    2       -3.897587   1.000000
    3       -3.139847   1.000000
    4       -2.728932   1.000000
    5       -2.549964   1.000000
    6       -2.331899   1.000000
    7       -2.316984   1.000000
    8       -1.935009   1.000000
    9       -1.878865   1.000000
   10       -1.637497   1.000000
   11       -1.593078   1.000000
   12       -0.323286   1.000000
   13        0.016913   1.000000
   14        0.113367   1.000000
   15        0.333205   1.000000
   16        1.839595   1.000000
   17        1.994941   1.000000
   18        2.118501   1.000000
   19        2.278687   1.000000
   20        2.635536   1.000000
   21        2.658369   1.000000
   22        3.056473   1.000000
   23        3.293371   1.000000
   24        3.613085   1.000000
   25        3.773109   1.000000
   26        3.888864   1.000000
   27        3.986129   1.000000
   28        4.148185   1.000000
   29        4.258567   1.000000
   30        4.272642   1.000000
   31        4.439724   1.000000
   32        4.468075   1.000000
   33        4.534949   1.000000
   34        4.754690   1.000000
   35        4.825591   1.000000
   36        5.036719   1.000000
   37        5.700675   1.000000
   38        6.195356   1.000000
   39        6.439377   1.000000
   40        6.792296   1.000000
   41        6.907948   1.000000
   42        7.104250   1.000000
   43        7.150793   1.000000
   44        7.788105   1.000000
   45        8.048660   1.006259
   46        8.136961   1.035268
   47        8.755219  -0.000000
   48        9.332644  -0.000000
   49        9.337256  -0.000000
   50        9.338501  -0.000000
   51        9.507364  -0.000000
   52        9.557689  -0.000000
   53        9.813543  -0.000000
   54       10.129003  -0.000000
   55       10.201201  -0.000000
   56       10.216871  -0.000000

  0.1111111E+00  0.3745146E-15  0.3742002E-15  0.5486968E-02
    1       -6.057523   1.000000
    2       -3.879890   1.000000
    3       -3.145494   1.000000
    4       -2.812146   1.000000
    5       -2.722923   1.000000
    6       -2.590438   1.000000
    7       -2.443935   1.000000
    8       -2.231200   1.000000
    9       -1.528797   1.000000
   10       -1.406944   1.000000
   11       -1.083494   1.000000
   12       -0.240210   1.000000
   13       -0.001768   1.000000
   14        0.131037   1.000000
   15        0.398446   1.000000
   16        1.876352   1.000000
   17        2.031786   1.000000
   18        2.164073   1.000000
   19        2.299658   1.000000
   20        2.632170   1.000000
   21        2.662400   1.000000
   22        3.076770   1.000000
   23        3.103109   1.000000
   24        3.271967   1.000000
   25        3.728512   1.000000
   26        3.856707   1.000000
   27        3.991572   1.000000
   28        4.069322   1.000000
   29        4.185043   1.000000
   30        4.273950   1.000000
   31        4.332005   1.000000
   32        4.463065   1.000000
   33        4.695324   1.000000
   34        4.778450   1.000000
   35        4.944931   1.000000
   36        5.326538   1.000000
   37        5.519746   1.000000
   38        5.693963   1.000000
   39        5.888213   1.000000
   40        7.002800   1.000000
   41        7.205538   1.000000
   42        7.300518   1.000000
   43        7.454626   1.000000
   44        7.612140   1.000000
   45        8.090458   1.020523
   46        8.145996   1.032641
   47        8.771523  -0.000000
   48        9.285689  -0.000000
   49        9.291537  -0.000000
   50        9.327616  -0.000000
   51        9.478876  -0.000000
   52        9.495435  -0.000000
   53        9.759554  -0.000000
   54       10.024844  -0.000000
   55       10.112671  -0.000000
   56       10.136346  -0.000000

  0.2222222E+00  0.3685699E-15  0.3742002E-15  0.5486968E-02
    1       -5.882031   1.000000
    2       -3.826568   1.000000
    3       -3.482215   1.000000
    4       -3.184016   1.000000
    5       -2.751935   1.000000
    6       -2.639130   1.000000
    7       -2.615673   1.000000
    8       -2.497646   1.000000
    9       -1.034265   1.000000
   10       -0.989825   1.000000
   11       -0.319454   1.000000
   12       -0.108703   1.000000
   13        0.006297   1.000000
   14        0.087130   1.000000
   15        0.746579   1.000000
   16        1.964835   1.000000
   17        2.116134   1.000000
   18        2.252428   1.000000
   19        2.302008   1.000000
   20        2.432371   1.000000
   21        2.558792   1.000000
   22        2.680078   1.000000
   23        2.918506   1.000000
   24        3.232801   1.000000
   25        3.497534   1.000000
   26        3.742351   1.000000
   27        3.905719   1.000000
   28        3.980073   1.000000
   29        4.047322   1.000000
   30        4.257570   1.000000
   31        4.266623   1.000000
   32        4.455604   1.000000
   33        4.683291   1.000000
   34        4.806024   1.000000
   35        4.869152   1.000000
   36        5.261609   1.000000
   37        5.305917   1.000000
   38        5.472823   1.000000
   39        5.819236   1.000000
   40        6.747763   1.000000
   41        7.147225   1.000000
   42        7.366957   1.000000
   43        7.636940   1.000000
   44        8.027060   1.002815
   45        8.304208   0.139963
   46        8.449334  -0.009860
   47        8.816639  -0.000000
   48        9.031685  -0.000000
   49        9.093864  -0.000000
   50        9.197113  -0.000000
   51        9.299665  -0.000000
   52        9.429997  -0.000000
   53        9.633235  -0.000000
   54        9.766827  -0.000000
   55       10.036855  -0.000000
   56       10.122499  -0.000000

  0.3333333E+00  0.4145315E-15  0.3742002E-15  0.5486968E-02
    1       -5.596876   1.000000
    2       -4.115298   1.000000
    3       -3.737875   1.000000
    4       -3.292041   1.000000
    5       -2.794844   1.000000
    6       -2.788061   1.000000
    7       -2.672450   1.000000
    8       -2.574355   1.000000
    9       -0.504579   1.000000
   10       -0.501149   1.000000
   11       -0.236528   1.000000
   12        0.001729   1.000000
   13        0.352321   1.000000
   14        0.508378   1.000000
   15        1.314795   1.000000
   16        1.851094   1.000000
   17        1.897847   1.000000
   18        1.993802   1.000000
   19        2.057676   1.000000
   20        2.196139   1.000000
   21        2.537339   1.000000
   22        2.634102   1.000000
   23        3.011035   1.000000
   24        3.091405   1.000000
   25        3.321998   1.000000
   26        3.493276   1.000000
   27        3.834077   1.000000
   28        3.870097   1.000000
   29        4.029265   1.000000
   30        4.043883   1.000000
   31        4.268317   1.000000
   32        4.337390   1.000000
   33        4.502790   1.000000
   34        4.692364   1.000000
   35        4.859376   1.000000
   36        4.877797   1.000000
   37        5.015643   1.000000
   38        5.935260   1.000000
   39        6.159293   1.000000
   40        6.634233   1.000000
   41        6.725159   1.000000
   42        7.549846   1.000000
   43        7.565335   1.000000
   44        8.070196   1.012299
   45        8.509758  -0.000978
   46        8.558039  -0.000083
   47        8.876219  -0.000000
   48        8.967600  -0.000000
   49        8.995060  -0.000000
   50        9.014535  -0.000000
   51        9.243252  -0.000000
   52        9.358517  -0.000000
   53        9.428502  -0.000000
   54        9.640035  -0.000000
   55        9.730379  -0.000000
   56        9.939401  -0.000000

  0.4444444E+00  0.3784822E-15  0.3742002E-15  0.5486968E-02
    1       -5.224698   1.000000
    2       -4.664568   1.000000
    3       -3.621344   1.000000
    4       -3.439048   1.000000
    5       -2.865520   1.000000
    6       -2.802689   1.000000
    7       -2.759346   1.000000
    8       -2.538375   1.000000
    9       -0.319970   1.000000
   10       -0.073520   1.000000
   11       -0.056042   1.000000
   12       -0.045853   1.000000
   13        0.829264   1.000000
   14        1.254306   1.000000
   15        1.366350   1.000000
   16        1.400456   1.000000
   17        1.508287   1.000000
   18        1.989366   1.000000
   19        2.050151   1.000000
   20        2.127453   1.000000
   21        2.239966   1.000000
   22        2.752550   1.000000
   23        2.861554   1.000000
   24        3.087575   1.000000
   25        3.250919   1.000000
   26        3.272550   1.000000
   27        3.707316   1.000000
   28        3.794977   1.000000
   29        3.844724   1.000000
   30        4.135916   1.000000
   31        4.202013   1.000000
   32        4.273410   1.000000
   33        4.484263   1.000000
   34        4.581990   1.000000
   35        4.712878   1.000000
   36        4.947081   1.000000
   37        5.031895   1.000000
   38        5.832238   1.000000
   39        6.264633   1.000000
   40        6.580101   1.000000
   41        7.144334   1.000000
   42        7.444648   1.000000
   43        7.666089   1.000000
   44        7.932797   1.000024
   45        8.079542   1.015825
   46        8.086947   1.018957
   47        8.880004  -0.000000
   48        8.909432  -0.000000
   49        9.185699  -0.000000
   50        9.252531  -0.000000
   51        9.326420  -0.000000
   52        9.414081  -0.000000
   53        9.426710  -0.000000
   54        9.532004  -0.000000
   55        9.537085  -0.000000
   56        9.780323  -0.000000

  0.1111111E+00  0.1111111E+00  0.3742002E-15  0.2743484E-02
    1       -5.939863   1.000000
    2       -3.844008   1.000000
    3       -3.202547   1.000000
    4       -3.158595   1.000000
    5       -2.946153   1.000000
    6       -2.742762   1.000000
    7       -2.624431   1.000000
    8       -1.961460   1.000000
    9       -1.636139   1.000000
   10       -0.754917   1.000000
   11       -0.637844   1.000000
   12       -0.182090   1.000000
   13       -0.076382   1.000000
   14        0.275833   1.000000
   15        0.573129   1.000000
   16        1.918344   1.000000
   17        2.077961   1.000000
   18        2.280319   1.000000
   19        2.295062   1.000000
   20        2.449114   1.000000
   21        2.522668   1.000000
   22        2.880695   1.000000
   23        3.189130   1.000000
   24        3.194795   1.000000
   25        3.517366   1.000000
   26        3.777328   1.000000
   27        3.804785   1.000000
   28        4.001102   1.000000
   29        4.011630   1.000000
   30        4.278844   1.000000
   31        4.295851   1.000000
   32        4.573257   1.000000
   33        4.725052   1.000000
   34        4.927035   1.000000
   35        4.996862   1.000000
   36        5.136940   1.000000
   37        5.227794   1.000000
   38        5.480700   1.000000
   39        5.809995   1.000000
   40        6.840547   1.000000
   41        7.271293   1.000000
   42        7.307957   1.000000
   43        7.711922   1.000000
   44        7.856911   1.000000
   45        8.056460   1.008111
   46        8.447871  -0.010306
   47        8.801298  -0.000000
   48        9.173366  -0.000000
   49        9.185893  -0.000000
   50        9.268730  -0.000000
   51        9.318444  -0.000000
   52        9.433575  -0.000000
   53        9.556325  -0.000000
   54        9.957517  -0.000000
   55        9.962323  -0.000000
   56       10.170904  -0.000000

  0.2222222E+00  0.1111111E+00  0.3742002E-15  0.5486968E-02
    1       -5.708973   1.000000
    2       -3.786637   1.000000
    3       -3.773175   1.000000
    4       -3.245213   1.000000
    5       -3.209896   1.000000
    6       -2.894037   1.000000
    7       -2.500757   1.000000
    8       -2.015028   1.000000
    9       -1.241289   1.000000
   10       -0.442997   1.000000
   11       -0.246341   1.000000
   12        0.087916   1.000000
   13        0.251074   1.000000
   14        0.371985   1.000000
   15        1.002632   1.000000
   16        1.745820   1.000000
   17        1.996380   1.000000
   18        2.165459   1.000000
   19        2.183796   1.000000
   20        2.457051   1.000000
   21        2.466095   1.000000
   22        2.688952   1.000000
   23        3.083810   1.000000
   24        3.223108   1.000000
   25        3.302131   1.000000
   26        3.599029   1.000000
   27        3.639593   1.000000
   28        3.863601   1.000000
   29        3.885081   1.000000
   30        4.146081   1.000000
   31        4.328606   1.000000
   32        4.499664   1.000000
   33        4.628420   1.000000
   34        4.820620   1.000000
   35        4.907264   1.000000
   36        4.935628   1.000000
   37        5.014561   1.000000
   38        5.465006   1.000000
   39        6.328043   1.000000
   40        6.636603   1.000000
   41        6.783063   1.000000
   42        7.488846   1.000000
   43        7.725747   1.000000
   44        8.049872   1.006524
   45        8.447934  -0.010287
   46        8.746282  -0.000000
   47        8.843084  -0.000000
   48        8.885539  -0.000000
   49        9.024871  -0.000000
   50        9.062966  -0.000000
   51        9.289163  -0.000000
   52        9.317473  -0.000000
   53        9.420970  -0.000000
   54        9.753701  -0.000000
   55        9.813635  -0.000000
   56        9.877916  -0.000000

  0.3333333E+00  0.1111111E+00  0.3742002E-15  0.5486968E-02
    1       -5.375359   1.000000
    2       -4.373514   1.000000
    3       -3.669807   1.000000
    4       -3.390539   1.000000
    5       -3.339285   1.000000
    6       -2.959906   1.000000
    7       -2.384010   1.000000
    8       -2.122094   1.000000
    9       -0.689975   1.000000
   10       -0.654677   1.000000
   11        0.205694   1.000000
   12        0.388633   1.000000
   13        0.646910   1.000000
   14        0.904188   1.000000
   15        1.081258   1.000000
   16        1.615577   1.000000
   17        1.753365   1.000000
   18        2.057137   1.000000
   19        2.157376   1.000000
   20        2.269230   1.000000
   21        2.322944   1.000000
   22        2.713830   1.000000
   23        2.786239   1.000000
   24        2.983306   1.000000
   25        3.337561   1.000000
   26        3.407816   1.000000
   27        3.720909   1.000000
   28        3.775284   1.000000
   29        3.824340   1.000000
   30        3.965521   1.000000
   31        4.276377   1.000000
   32        4.281271   1.000000
   33        4.545986   1.000000
   34        4.581927   1.000000
   35        4.821199   1.000000
   36        4.949716   1.000000
   37        5.016383   1.000000
   38        5.772713   1.000000
   39        6.320360   1.000000
   40        6.401053   1.000000
   41        7.028592   1.000000
   42        7.560883   1.000000
   43        7.678768   1.000000
   44        8.092087   1.021263
   45        8.279449   0.307556
   46        8.316316   0.078620
   47        8.822887  -0.000000
   48        8.930060  -0.000000
   49        8.957735  -0.000000
   50        9.192639  -0.000000
   51        9.237335  -0.000000
   52        9.332636  -0.000000
   53        9.444678  -0.000000
   54        9.645620  -0.000000
   55        9.669337  -0.000000
   56        9.693421  -0.000000

  0.4444444E+00  0.1111111E+00  0.3742002E-15  0.5486968E-02
    1       -5.049141   1.000000
    2       -4.786338   1.000000
    3       -3.570730   1.000000
    4       -3.465594   1.000000
    5       -3.436577   1.000000
    6       -2.966032   1.000000
    7       -2.330745   1.000000
    8       -2.161656   1.000000
    9       -0.734515   1.000000
   10       -0.349052   1.000000
   11        0.388360   1.000000
   12        0.434974   1.000000
   13        0.696520   1.000000
   14        1.054422   1.000000
   15        1.345387   1.000000
   16        1.602381   1.000000
   17        1.714394   1.000000
   18        1.926090   1.000000
   19        2.062253   1.000000
   20        2.252654   1.000000
   21        2.290857   1.000000
   22        2.387288   1.000000
   23        2.758311   1.000000
   24        3.022677   1.000000
   25        3.112555   1.000000
   26        3.539816   1.000000
   27        3.576668   1.000000
   28        3.738943   1.000000
   29        3.905384   1.000000
   30        4.031886   1.000000
   31        4.174204   1.000000
   32        4.178635   1.000000
   33        4.363890   1.000000
   34        4.651335   1.000000
   35        4.716145   1.000000
   36        5.069185   1.000000
   37        5.126998   1.000000
   38        5.779762   1.000000
   39        6.100533   1.000000
   40        6.481689   1.000000
   41        7.471224   1.000000
   42        7.471370   1.000000
   43        7.725226   1.000000
   44        7.880208   1.000001
   45        8.074722   1.013941
   46        8.106013   1.027652
   47        8.748497  -0.000000
   48        8.957873  -0.000000
   49        9.122744  -0.000000
   50        9.210399  -0.000000
   51        9.215231  -0.000000
   52        9.245574  -0.000000
   53        9.328859  -0.000000
   54        9.569894  -0.000000
   55        9.650648  -0.000000
   56        9.744524  -0.000000

 -0.4444444E+00  0.1111111E+00  0.3742002E-15  0.5486968E-02
    1       -5.377529   1.000000
    2       -4.370303   1.000000
    3       -3.667822   1.000000
    4       -3.388272   1.000000
    5       -3.360429   1.000000
    6       -2.949986   1.000000
    7       -2.367876   1.000000
    8       -2.126730   1.000000
    9       -0.693794   1.000000
   10       -0.646853   1.000000
   11        0.195603   1.000000
   12        0.392092   1.000000
   13        0.644927   1.000000
   14        0.889689   1.000000
   15        1.132713   1.000000
   16        1.543756   1.000000
   17        1.766338   1.000000
   18        2.091741   1.000000
   19        2.124697   1.000000
   20        2.303522   1.000000
   21        2.388275   1.000000
   22        2.685427   1.000000
   23        2.738459   1.000000
   24        3.019166   1.000000
   25        3.248258   1.000000
   26        3.426146   1.000000
   27        3.666637   1.000000
   28        3.756401   1.000000
   29        3.840010   1.000000
   30        4.054412   1.000000
   31        4.174292   1.000000
   32        4.235359   1.000000
   33        4.528927   1.000000
   34        4.650557   1.000000
   35        4.800798   1.000000
   36        5.037305   1.000000
   37        5.067531   1.000000
   38        5.893155   1.000000
   39        6.320759   1.000000
   40        6.321171   1.000000
   41        6.917754   1.000000
   42        7.521889   1.000000
   43        7.745867   1.000000
   44        8.101374   1.025546
   45        8.269542   0.386640
   46        8.340108   0.000200
   47        8.811804  -0.000000
   48        8.948248  -0.000000
   49        8.991199  -0.000000
   50        9.181142  -0.000000
   51        9.272757  -0.000000
   52        9.334260  -0.000000
   53        9.413314  -0.000000
   54        9.625524  -0.000000
   55        9.660254  -0.000000
   56        9.676265  -0.000000

 -0.3333333E+00  0.1111111E+00  0.3742002E-15  0.5486968E-02
    1       -5.710655   1.000000
    2       -3.782153   1.000000
    3       -3.774330   1.000000
    4       -3.241714   1.000000
    5       -3.232209   1.000000
    6       -2.906823   1.000000
    7       -2.449270   1.000000
    8       -2.025829   1.000000
    9       -1.240560   1.000000
   10       -0.437924   1.000000
   11       -0.264029   1.000000
   12        0.091995   1.000000
   13        0.261447   1.000000
   14        0.383131   1.000000
   15        0.938624   1.000000
   16        1.797476   1.000000
   17        2.053717   1.000000
   18        2.190816   1.000000
   19        2.215688   1.000000
   20        2.393961   1.000000
   21        2.549469   1.000000
   22        2.635673   1.000000
   23        3.003576   1.000000
   24        3.126449   1.000000
   25        3.334927   1.000000
   26        3.564299   1.000000
   27        3.570237   1.000000
   28        3.850950   1.000000
   29        3.970534   1.000000
   30        4.149859   1.000000
   31        4.306925   1.000000
   32        4.497578   1.000000
   33        4.502560   1.000000
   34        4.783218   1.000000
   35        4.978435   1.000000
   36        5.000064   1.000000
   37        5.136953   1.000000
   38        5.704193   1.000000
   39        6.166141   1.000000
   40        6.531335   1.000000
   41        6.800189   1.000000
   42        7.530648   1.000000
   43        7.659780   1.000000
   44        8.064877   1.010534
   45        8.492740  -0.002052
   46        8.767913  -0.000000
   47        8.833954  -0.000000
   48        8.873111  -0.000000
   49        9.027283  -0.000000
   50        9.064944  -0.000000
   51        9.244489  -0.000000
   52        9.405664  -0.000000
   53        9.433939  -0.000000
   54        9.665519  -0.000000
   55        9.755858  -0.000000
   56        9.943457  -0.000000

 -0.2222222E+00  0.1111111E+00  0.3742002E-15  0.5486968E-02
    1       -5.940920   1.000000
    2       -3.845748   1.000000
    3       -3.191704   1.000000
    4       -3.163992   1.000000
    5       -2.948360   1.000000
    6       -2.837072   1.000000
    7       -2.504613   1.000000
    8       -1.979328   1.000000
    9       -1.627835   1.000000
   10       -0.790905   1.000000
   11       -0.605890   1.000000
   12       -0.185287   1.000000
   13       -0.073973   1.000000
   14        0.259041   1.000000
   15        0.562957   1.000000
   16        1.978054   1.000000
   17        2.120243   1.000000
   18        2.198949   1.000000
   19        2.359932   1.000000
   20        2.491091   1.000000
   21        2.560741   1.000000
   22        2.831509   1.000000
   23        3.116153   1.000000
   24        3.177723   1.000000
   25        3.364230   1.000000
   26        3.775579   1.000000
   27        3.825286   1.000000
   28        3.911559   1.000000
   29        4.101582   1.000000
   30        4.231729   1.000000
   31        4.317107   1.000000
   32        4.571390   1.000000
   33        4.718195   1.000000
   34        4.995064   1.000000
   35        5.051638   1.000000
   36        5.218114   1.000000
   37        5.383763   1.000000
   38        5.480248   1.000000
   39        5.634498   1.000000
   40        6.813227   1.000000
   41        7.291456   1.000000
   42        7.306832   1.000000
   43        7.737621   1.000000
   44        7.837577   1.000000
   45        8.039026   1.004446
   46        8.431338  -0.016290
   47        8.803641  -0.000000
   48        9.117195  -0.000000
   49        9.197005  -0.000000
   50        9.290951  -0.000000
   51        9.324665  -0.000000
   52        9.467142  -0.000000
   53        9.636019  -0.000000
   54        9.868957  -0.000000
   55        9.966787  -0.000000
   56       10.108638  -0.000000

 -0.1111111E+00  0.1111111E+00  0.3742002E-15  0.2743484E-02
    1       -6.057883   1.000000
    2       -3.880642   1.000000
    3       -3.144605   1.000000
    4       -2.796463   1.000000
    5       -2.782169   1.000000
    6       -2.522481   1.000000
    7       -2.476868   1.000000
    8       -2.206885   1.000000
    9       -1.544210   1.000000
   10       -1.411751   1.000000
   11       -1.071496   1.000000
   12       -0.239874   1.000000
   13        0.026988   1.000000
   14        0.064514   1.000000
   15        0.426312   1.000000
   16        1.898126   1.000000
   17        2.050384   1.000000
   18        2.129129   1.000000
   19        2.330839   1.000000
   20        2.593038   1.000000
   21        2.678949   1.000000
   22        3.094545   1.000000
   23        3.231477   1.000000
   24        3.298102   1.000000
   25        3.369397   1.000000
   26        3.893100   1.000000
   27        3.938990   1.000000
   28        4.160152   1.000000
   29        4.168286   1.000000
   30        4.309311   1.000000
   31        4.310695   1.000000
   32        4.592252   1.000000
   33        4.655596   1.000000
   34        4.899185   1.000000
   35        4.938375   1.000000
   36        5.207648   1.000000
   37        5.501858   1.000000
   38        5.735965   1.000000
   39        5.884780   1.000000
   40        7.045424   1.000000
   41        7.156723   1.000000
   42        7.352422   1.000000
   43        7.390116   1.000000
   44        7.676838   1.000000
   45        7.998498   1.000822
   46        8.188277   0.951711
   47        8.772356  -0.000000
   48        9.274674  -0.000000
   49        9.299143  -0.000000
   50        9.317821  -0.000000
   51        9.464679  -0.000000
   52        9.504283  -0.000000
   53        9.829040  -0.000000
   54       10.009556  -0.000000
   55       10.064795  -0.000000
   56       10.135991  -0.000000

  0.2222222E+00  0.2222222E+00  0.3742002E-15  0.2743484E-02
    1       -5.427961   1.000000
    2       -4.100618   1.000000
    3       -3.756553   1.000000
    4       -3.686638   1.000000
    5       -3.239857   1.000000
    6       -3.103092   1.000000
    7       -2.269535   1.000000
    8       -1.417579   1.000000
    9       -1.385357   1.000000
   10       -0.838874   1.000000
   11        0.450612   1.000000
   12        0.528715   1.000000
   13        0.670936   1.000000
   14        0.761980   1.000000
   15        0.988713   1.000000
   16        1.286185   1.000000
   17        2.031795   1.000000
   18        2.034009   1.000000
   19        2.230341   1.000000
   20        2.301736   1.000000
   21        2.558151   1.000000
   22        2.656422   1.000000
   23        2.905972   1.000000
   24        3.030832   1.000000
   25        3.083433   1.000000
   26        3.488815   1.000000
   27        3.502394   1.000000
   28        3.769458   1.000000
   29        3.802394   1.000000
   30        3.984327   1.000000
   31        4.382043   1.000000
   32        4.386102   1.000000
   33        4.402961   1.000000
   34        4.622222   1.000000
   35        4.860194   1.000000
   36        4.981487   1.000000
   37        5.072295   1.000000
   38        5.632075   1.000000
   39        6.329713   1.000000
   40        6.373080   1.000000
   41        6.959010   1.000000
   42        7.626302   1.000000
   43        7.722420   1.000000
   44        8.200541   0.898646
   45        8.446721  -0.010667
   46        8.638952  -0.000000
   47        8.654079  -0.000000
   48        8.738508  -0.000000
   49        8.931638  -0.000000
   50        9.071214  -0.000000
   51        9.256457  -0.000000
   52        9.343578  -0.000000
   53        9.344844  -0.000000
   54        9.531408  -0.000000
   55        9.673504  -0.000000
   56        9.790069  -0.000000

  0.3333333E+00  0.2222222E+00  0.3742002E-15  0.5486968E-02
    1       -5.058713   1.000000
    2       -4.553507   1.000000
    3       -3.947521   1.000000
    4       -3.576536   1.000000
    5       -3.359782   1.000000
    6       -3.180274   1.000000
    7       -2.051149   1.000000
    8       -1.477789   1.000000
    9       -1.137733   1.000000
   10       -0.811012   1.000000
   11        0.313085   1.000000
   12        0.818199   1.000000
   13        0.954377   1.000000
   14        1.041841   1.000000
   15        1.308497   1.000000
   16        1.596839   1.000000
   17        1.766803   1.000000
   18        1.952848   1.000000
   19        2.045363   1.000000
   20        2.244705   1.000000
   21        2.361125   1.000000
   22        2.498516   1.000000
   23        2.579267   1.000000
   24        2.921801   1.000000
   25        3.210486   1.000000
   26        3.240905   1.000000
   27        3.585749   1.000000
   28        3.747199   1.000000
   29        3.790357   1.000000
   30        4.003808   1.000000
   31        4.149008   1.000000
   32        4.267523   1.000000
   33        4.324136   1.000000
   34        4.537862   1.000000
   35        4.781033   1.000000
   36        5.090493   1.000000
   37        5.343476   1.000000
   38        5.809110   1.000000
   39        5.946280   1.000000
   40        6.169967   1.000000
   41        7.499454   1.000000
   42        7.580333   1.000000
   43        7.992139   1.000609
   44        8.131903   1.035418
   45        8.281420   0.292468
   46        8.303476   0.144137
   47        8.599624  -0.000007
   48        8.806551  -0.000000
   49        8.831059  -0.000000
   50        8.962683  -0.000000
   51        9.063732  -0.000000
   52        9.235891  -0.000000
   53        9.309751  -0.000000
   54        9.349269  -0.000000
   55        9.511886  -0.000000
   56        9.710728  -0.000000

  0.4444444E+00  0.2222222E+00  0.3742002E-15  0.5486968E-02
    1       -5.065975   1.000000
    2       -4.541005   1.000000
    3       -3.951572   1.000000
    4       -3.570998   1.000000
    5       -3.391560   1.000000
    6       -3.162524   1.000000
    7       -2.027430   1.000000
    8       -1.479810   1.000000
    9       -1.145901   1.000000
   10       -0.817660   1.000000
   11        0.322123   1.000000
   12        0.802464   1.000000
   13        0.981078   1.000000
   14        1.039295   1.000000
   15        1.311112   1.000000
   16        1.616400   1.000000
   17        1.682631   1.000000
   18        1.997733   1.000000
   19        2.060177   1.000000
   20        2.242432   1.000000
   21        2.326972   1.000000
   22        2.562223   1.000000
   23        2.634213   1.000000
   24        2.863822   1.000000
   25        3.238225   1.000000
   26        3.268333   1.000000
   27        3.442636   1.000000
   28        3.661350   1.000000
   29        3.842020   1.000000
   30        3.947537   1.000000
   31        4.060822   1.000000
   32        4.307875   1.000000
   33        4.435960   1.000000