    3    3   60    1
  0.8144830E+01  0.3039000E-09  0.3039000E-09  0.3055000E-09  0.5000000E-15
   1.0000000000000000E-004
  CAR 
 Name                                    
     12    216     10

  0.3742002E-15  0.3742002E-15  0.3742002E-15  0.2962963E-03
    1       -5.384622   1.000000
    2        4.089379   1.000000
    3        4.089382   1.000000
    4        6.924713   1.000000
    5        7.642820   1.000000
    6        9.125057   1.000000
    7        9.125059   1.000000
    8       14.095062   0.000000
    9       14.095070   0.000000
   10       14.762888   0.000000

  0.6666667E-01  0.3766815E-15  0.3742002E-15  0.1777778E-02
    1       -5.292615   1.000000
    2        3.891847   1.000000
    3        4.147800   1.000000
    4        6.523443   1.000000
    5        7.672996   1.000000
    6        9.087772   1.000000
    7        9.615284   1.000000
    8       12.173060  -0.000000
    9       12.245765  -0.000000
   10       14.743677   0.000000

  0.1333333E+00  0.3754153E-15  0.3742002E-15  0.1777778E-02
    1       -5.021381   1.000000
    2        3.367367   1.000000
    3        4.308006   1.000000
    4        5.793882   1.000000
    5        7.686815   1.000000
    6        8.984086   1.000000
    7       10.584932  -0.000371
    8       11.303237  -0.000000
    9       11.477143  -0.000000
   10       15.613762   0.000000

  0.2000000E+00  0.3870416E-15  0.3742002E-15  0.1777778E-02
    1       -4.584905   1.000000
    2        2.651076   1.000000
    3        4.527004   1.000000
    4        5.085978   1.000000
    5        7.455979   1.000000
    6        8.835798   1.000000
    7       10.903849  -0.000000
    8       10.908242  -0.000000
    9       11.581169  -0.000000
   10       16.179235   0.000000

  0.2666667E+00  0.4120044E-15  0.3742002E-15  0.1777778E-02
    1       -4.005365   1.000000
    2        1.850409   1.000000
    3        4.487464   1.000000
    4        4.744624   1.000000
    5        6.880105   1.000000
    6        8.671656   1.000000
    7       10.587595  -0.000324
    8       11.179047  -0.000000
    9       12.286990  -0.000000
   10       16.328561   0.000000

  0.3333333E+00  0.4025434E-15  0.3742002E-15  0.1777778E-02
    1       -3.312595   1.000000
    2        1.021175   1.000000
    3        4.026383   1.000000
    4        4.908874   1.000000
    5        6.197894   1.000000
    6        8.520259   1.000000
    7       10.498391  -0.011736
    8       11.931389  -0.000000
    9       12.482074  -0.000000
   10       16.824413   0.000000

  0.4000000E+00  0.3732510E-15  0.3742002E-15  0.1777778E-02
    1       -2.547513   1.000000
    2        0.189827   1.000000
    3        3.714593   1.000000
    4        5.002336   1.000000
    5        5.644268   1.000000
    6        8.405472   1.000000
    7       10.556295  -0.001421
    8       12.370454  -0.000000
    9       12.895074  -0.000000
   10       16.943539   0.000000

  0.4666667E+00  0.3915456E-15  0.3742002E-15  0.1777778E-02
    1       -1.810556   1.000000
    2       -0.570866   1.000000
    3        3.557659   1.000000
    4        5.039755   1.000000
    5        5.341550   1.000000
    6        8.343846   1.000000
    7       10.634005  -0.000024
    8       12.251255  -0.000000
    9       13.703595   0.000000
   10       16.937270   0.000000

  0.6666667E-01  0.6666667E-01  0.3742002E-15  0.1777778E-02
    1       -5.110925   1.000000
    2        3.541271   1.000000
    3        4.245167   1.000000
    4        5.997013   1.000000
    5        7.700096   1.000000
    6        8.998099   1.000000
    7       10.327918   0.358601
    8       11.497561  -0.000000
    9       11.671697  -0.000000
   10       15.599172   0.000000

  0.1333333E+00  0.6666667E-01  0.3742002E-15  0.3555556E-02
    1       -4.756567   1.000000
    2        2.948026   1.000000
    3        4.392968   1.000000
    4        5.339987   1.000000
    5        7.628253   1.000000
    6        8.820912   1.000000
    7       10.747637  -0.000000
    8       11.271110  -0.000000
    9       11.321962  -0.000000
   10       16.185484   0.000000

  0.2000000E+00  0.6666667E-01  0.3742002E-15  0.3555556E-02
    1       -4.247011   1.000000
    2        2.222629   1.000000
    3        4.522861   1.000000
    4        4.736180   1.000000
    5        7.299711   1.000000
    6        8.593841   1.000000
    7       10.285296   0.709313
    8       11.308835  -0.000000
    9       12.259263  -0.000000
   10       16.276593   0.000000

  0.2666667E+00  0.6666667E-01  0.3742002E-15  0.3555556E-02
    1       -3.607362   1.000000
    2        1.438121   1.000000
    3        4.244579   1.000000
    4        4.553628   1.000000
    5        6.806591   1.000000
    6        8.357544   1.000000
    7       10.153095   1.024063
    8       11.802336  -0.000000
    9       12.800570  -0.000000
   10       16.340374   0.000000

  0.3333333E+00  0.6666667E-01  0.3742002E-15  0.3555556E-02
    1       -2.870883   1.000000
    2        0.627914   1.000000
    3        3.886381   1.000000
    4        4.454708   1.000000
    5        6.386557   1.000000
    6        8.152372   1.000000
    7       10.247910   0.933150
    8       12.577470  -0.000000
    9       12.862150  -0.000000
   10       17.084031   0.000000

  0.4000000E+00  0.6666667E-01  0.3742002E-15  0.3555556E-02
    1       -2.090654   1.000000
    2       -0.179834   1.000000
    3        3.669678   1.000000
    4        4.306641   1.000000
    5        6.145608   1.000000
    6        8.013232   1.000000
    7       10.414508  -0.028444
    8       12.756325  -0.000000
    9       13.372892   0.000000
   10       17.167200   0.000000

  0.4666667E+00  0.6666667E-01  0.3742002E-15  0.1777778E-02
    1       -1.545859   1.000000
    2       -0.730607   1.000000
    3        3.597273   1.000000
    4        4.238496   1.000000
    5        6.071015   1.000000
    6        7.964004   1.000000
    7       10.493519  -0.013460
    8       12.702325  -0.000000
    9       13.752993   0.000000
   10       17.184856   0.000000

  0.1333333E+00  0.1333333E+00  0.3742002E-15  0.1777778E-02
    1       -4.327949   1.000000
    2        2.391492   1.000000
    3        4.373104   1.000000
    4        4.847841   1.000000
    5        7.525831   1.000000
    6        8.491838   1.000000
    7       10.063461   1.001295
    8       11.440503  -0.000000
    9       12.326610  -0.000000
   10       16.244639   0.000000

  0.2000000E+00  0.1333333E+00  0.3742002E-15  0.3555556E-02
    1       -3.754368   1.000000
    2        1.753134   1.000000
    3        4.174972   1.000000
    4        4.421596   1.000000
    5        7.409391   1.000000
    6        8.084784   1.000000
    7        9.610374   1.000000
    8       11.922833  -0.000000
    9       13.291757   0.000000
   10       15.968977   0.000000

  0.2666667E+00  0.1333333E+00  0.3742002E-15  0.3555556E-02
    1       -3.062216   1.000000
    2        1.055710   1.000000
    3        3.841016   1.000000
    4        4.099179   1.000000
    5        7.245154   1.000000
    6        7.686619   1.000000
    7        9.564658   1.000000
    8       12.557780  -0.000000
    9       13.794821   0.000000
   10       16.301120   0.000000

  0.3333333E+00  0.1333333E+00  0.3742002E-15  0.3555556E-02
    1       -2.288013   1.000000
    2        0.304850   1.000000
    3        3.511102   1.000000
    4        3.888916   1.000000
    5        7.056582   1.000000
    6        7.372501   1.000000
    7        9.820465   1.000000
    8       13.135402   0.000000
    9       13.829587   0.000000
   10       17.117701   0.000000

  0.4000000E+00  0.1333333E+00  0.3742002E-15  0.3555556E-02
    1       -1.510364   1.000000
    2       -0.453219   1.000000
    3        3.314052   1.000000
    4        3.786540   1.000000
    5        6.936847   1.000000
    6        7.199614   1.000000
    7       10.074950   1.002116
    8       13.460505   0.000000
    9       13.771672   0.000000
   10       17.844273   0.000000

  0.2000000E+00  0.2000000E+00  0.3742002E-15  0.1777778E-02
    1       -3.125386   1.000000
    2        1.262534   1.000000
    3        3.567004   1.000000
    4        4.202963   1.000000
    5        7.471645   1.000000
    6        7.745089   1.000000
    7        9.091647   1.000000
    8       12.584475  -0.000000
    9       14.427463   0.000000
   10       15.788932   0.000000

  0.2666667E+00  0.2000000E+00  0.3742002E-15  0.3555556E-02
    1       -2.387094   1.000000
    2        0.719497   1.000000
    3        2.935616   1.000000
    4        4.092316   1.000000
    5        6.899858   1.000000
    6        7.917136   1.000000
    7        9.047120   1.000000
    8       13.050736   0.000000
    9       15.023147   0.000000
   10       16.237351   0.000000

  0.3333333E+00  0.2000000E+00  0.3742002E-15  0.3555556E-02
    1       -1.580796   1.000000
    2        0.068270   1.000000
    3        2.486720   1.000000
    4        4.063607   1.000000
    5        6.487418   1.000000
    6        7.802352   1.000000
    7        9.436611   1.000000
    8       13.165765   0.000000
    9       15.020990   0.000000
   10       17.141961   0.000000

  0.4000000E+00  0.2000000E+00  0.3742002E-15  0.1777778E-02
    1       -0.897144   1.000000
    2       -0.561147   1.000000
    3        2.329958   1.000000
    4        4.064515   1.000000
    5        6.334492   1.000000
    6        7.734460   1.000000
    7        9.656922   1.000000
    8       13.128378   0.000000
    9       14.993360   0.000000
   10       17.553271   0.000000

  0.2666667E+00  0.2666667E+00  0.3742002E-15  0.1777778E-02
    1       -1.612464   1.000000
    2        0.391059   1.000000
    3        2.068600   1.000000
    4        4.224924   1.000000
    5        6.170150   1.000000
    6        8.610264   1.000000
    7        8.693704   1.000000
    8       13.054970   0.000000
    9       16.109822   0.000000
   10       16.299931   0.000000

  0.3333333E+00  0.2666667E+00  0.3742002E-15  0.3555556E-02
    1       -0.798268   1.000000
    2       -0.078685   1.000000
    3        1.504309   1.000000
    4        4.420858   1.000000
    5        5.658323   1.000000
    6        8.476820   1.000000
    7        9.155222   1.000000
    8       12.803701  -0.000000
    9       16.120877   0.000000
   10       17.084579   0.000000

  0.3333333E+00  0.3333333E+00  0.3742002E-15  0.5925926E-03
    1       -0.201578   1.000000
    2       -0.201575   1.000000
    3        0.913079   1.000000
    4        4.957757   1.000000
    5        4.957759   1.000000
    6        8.912927   1.000000
    7        8.912928   1.000000
    8       12.578231  -0.000000
    9       16.822198   0.000000
   10       16.822198   0.000000

  0.3742002E-15  0.3742002E-15  0.6666667E-01  0.5925926E-03
    1       -5.312207   1.000000
    2        4.150810   1.000000
    3        4.150813   1.000000
    4        6.203030   1.000000
    5        8.332517   1.000000
    6        8.866261   1.000000
    7        8.866263   1.000000
    8       12.663832  -0.000000
    9       12.663835  -0.000000
   10       14.469779   0.000000

  0.6666667E-01  0.3766815E-15  0.6666667E-01  0.3555556E-02
    1       -5.221560   1.000000
    2        3.946692   1.000000
    3        4.203157   1.000000
    4        6.003741   1.000000
    5        7.975499   1.000000
    6        8.817464   1.000000
    7        9.525184   1.000000
    8       12.193317  -0.000000
    9       12.270624  -0.000000
   10       15.012652   0.000000

  0.1333333E+00  0.3754153E-15  0.6666667E-01  0.3555556E-02
    1       -4.954502   1.000000
    2        3.401743   1.000000
    3        4.342485   1.000000
    4        5.511680   1.000000
    5        7.700606   1.000000
    6        8.698655   1.000000
    7       10.445989  -0.033417
    8       11.564971  -0.000000
    9       11.668014  -0.000000
   10       15.550745   0.000000

  0.2000000E+00  0.3870416E-15  0.6666667E-01  0.3555556E-02
    1       -4.525180   1.000000
    2        2.655211   1.000000
    3        4.519154   1.000000
    4        4.949684   1.000000
    5        7.365166   1.000000
    6        8.580250   1.000000
    7       10.862275  -0.000000
    8       11.181185  -0.000000
    9       11.790943  -0.000000
   10       15.849046   0.000000

  0.2666667E+00  0.4120044E-15  0.6666667E-01  0.3555556E-02
    1       -3.955775   1.000000
    2        1.823282   1.000000
    3        4.451687   1.000000
    4        4.669197   1.000000
    5        6.798949   1.000000
    6        8.533105   1.000000
    7       10.851807  -0.000000
    8       11.199853  -0.000000
    9       12.357791  -0.000000
   10       15.991974   0.000000

  0.3333333E+00  0.4025434E-15  0.6666667E-01  0.3555556E-02
    1       -3.275027   1.000000
    2        0.968677   1.000000
    3        4.068507   1.000000
    4        4.751769   1.000000
    5        6.151810   1.000000
    6        8.570228   1.000000
    7       10.679753  -0.000001
    8       11.840265  -0.000000
    9       12.564185  -0.000000
   10       16.533541   0.000000

  0.4000000E+00  0.3732510E-15  0.6666667E-01  0.3555556E-02
    1       -2.519200   1.000000
    2        0.119033   1.000000
    3        3.816681   1.000000
    4        4.774487   1.000000
    5        5.618162   1.000000
    6        8.637363   1.000000
    7       10.639724  -0.000017
    8       12.102908  -0.000000
    9       13.112637   0.000000
   10       16.869869   0.000000

  0.4666667E+00  0.3915456E-15  0.6666667E-01  0.3555556E-02
    1       -1.765330   1.000000
    2       -0.672865   1.000000
    3        3.694958   1.000000
    4        4.772602   1.000000
    5        5.320503   1.000000
    6        8.679183   1.000000
    7       10.659158  -0.000005
    8       12.024115  -0.000000
    9       13.906906   0.000000
   10       16.616026   0.000000

  0.6666667E-01  0.6666667E-01  0.6666667E-01  0.3555556E-02
    1       -5.042644   1.000000
    2        3.587733   1.000000
    3        4.276193   1.000000
    4        5.668593   1.000000
    5        7.783656   1.000000
    6        8.689555   1.000000
    7       10.252428   0.913231
    8       11.642436  -0.000000
    9       11.855533  -0.000000
   10       15.612123   0.000000

  0.1333333E+00  0.6666667E-01  0.6666667E-01  0.7111111E-02
    1       -4.693992   1.000000
    2        2.975831   1.000000
    3        4.342644   1.000000
    4        5.215665   1.000000
    5        7.587772   1.000000
    6        8.472193   1.000000
    7       10.919903  -0.000000
    8       11.175378  -0.000000
    9       11.700499  -0.000000
   10       16.021680   0.000000

  0.2000000E+00  0.6666667E-01  0.6666667E-01  0.7111111E-02
    1       -4.193249   1.000000
    2        2.220936   1.000000
    3        4.277769   1.000000
    4        4.872627   1.000000
    5        7.206458   1.000000
    6        8.319445   1.000000
    7       10.627821  -0.000035
    8       11.361451  -0.000000
    9       12.333740  -0.000000
   10       15.945212   0.000000

  0.2666667E+00  0.6666667E-01  0.6666667E-01  0.7111111E-02
    1       -3.565192   1.000000
    2        1.405688   1.000000
    3        4.057398   1.000000
    4        4.668861   1.000000
    5        6.670632   1.000000
    6        8.304604   1.000000
    7       10.445950  -0.033428
    8       11.814720  -0.000000
    9       12.793919  -0.000000
   10       16.149607   0.000000

  0.3333333E+00  0.6666667E-01  0.6666667E-01  0.7111111E-02
    1       -2.840997   1.000000
    2        0.571525   1.000000
    3        3.855217   1.000000
    4        4.453813   1.000000
    5        6.190841   1.000000
    6        8.359866   1.000000
    7       10.412747  -0.026901
    8       12.389372  -0.000000
    9       12.987999  -0.000000
   10       16.748790   0.000000

  0.4000000E+00  0.6666667E-01  0.6666667E-01  0.7111111E-02
    1       -2.064325   1.000000
    2       -0.256112   1.000000
    3        3.752085   1.000000
    4        4.234385   1.000000
    5        5.889866   1.000000
    6        8.402240   1.000000
    7       10.477861  -0.019908
    8       12.475192  -0.000000
    9       13.599872   0.000000
   10       16.857568   0.000000

  0.4666667E+00  0.6666667E-01  0.6666667E-01  0.3555556E-02
    1       -1.476602   1.000000
    2       -0.857721   1.000000
    3        3.730985   1.000000
    4        4.132856   1.000000
    5        5.790928   1.000000
    6        8.413864   1.000000
    7       10.522121  -0.005479
    8       12.440717  -0.000000
    9       13.993493   0.000000
   10       16.723176   0.000000

  0.1333333E+00  0.1333333E+00  0.6666667E-01  0.3555556E-02
    1       -4.272845   1.000000
    2        2.414002   1.000000
    3        4.095027   1.000000
    4        5.009572   1.000000
    5        7.514303   1.000000
    6        8.034644   1.000000
    7       10.502496  -0.010401
    8       11.492687  -0.000000
    9       12.385533  -0.000000
   10       16.022774   0.000000

  0.2000000E+00  0.1333333E+00  0.6666667E-01  0.7111111E-02
    1       -3.710047   1.000000
    2        1.755821   1.000000
    3        3.760884   1.000000
    4        4.768337   1.000000
    5        7.272601   1.000000
    6        7.810265   1.000000
    7       10.093171   1.004320
    8       11.974655  -0.000000
    9       13.246542   0.000000
   10       15.802863   0.000000

  0.2666667E+00  0.1333333E+00  0.6666667E-01  0.7111111E-02
    1       -3.031422   1.000000
    2        1.028925   1.000000
    3        3.491891   1.000000
    4        4.429847   1.000000
    5        6.788780   1.000000
    6        7.950780   1.000000
    7        9.907648   1.000000
    8       12.570987  -0.000000
    9       13.692233   0.000000
   10       16.144168   0.000000

  0.3333333E+00  0.1333333E+00  0.6666667E-01  0.7111111E-02
    1       -2.270168   1.000000
    2        0.252930   1.000000
    3        3.321710   1.000000
    4        4.104368   1.000000
    5        6.399214   1.000000
    6        8.057465   1.000000
    7        9.981285   1.000016
    8       13.051117   0.000000
    9       13.818231   0.000000
   10       16.780686   0.000000

  0.4000000E+00  0.1333333E+00  0.6666667E-01  0.7111111E-02
    1       -1.484350   1.000000
    2       -0.533892   1.000000
    3        3.243937   1.000000
    4        3.908684   1.000000
    5        6.190858   1.000000
    6        8.074986   1.000000
    7       10.143417   1.019639
    8       13.199752   0.000000
    9       13.978929   0.000000
   10       17.058820   0.000000

  0.2000000E+00  0.2000000E+00  0.6666667E-01  0.3555556E-02
    1       -3.094319   1.000000
    2        1.261402   1.000000
    3        3.228760   1.000000
    4        4.507776   1.000000
    5        7.008756   1.000000
    6        7.821718   1.000000
    7        9.625821   1.000000
    8       12.619090  -0.000000
    9       14.289099   0.000000
   10       15.649348   0.000000

  0.2666667E+00  0.2000000E+00  0.6666667E-01  0.7111111E-02
    1       -2.372639   1.000000
    2        0.697482   1.000000
    3        2.752030   1.000000
    4        4.279237   1.000000
    5        6.468649   1.000000
    6        8.185689   1.000000
    7        9.412514   1.000000
    8       13.072830   0.000000
    9       14.858883   0.000000
   10       16.060566   0.000000

  0.3333333E+00  0.2000000E+00  0.6666667E-01  0.7111111E-02
    1       -1.581994   1.000000
    2        0.022827   1.000000
    3        2.424254   1.000000
    4        4.161701   1.000000
    5        6.076283   1.000000
    6        8.290322   1.000000
    7        9.590598   1.000000
    8       13.183870   0.000000
    9       14.914919   0.000000
   10       16.852746   0.000000

  0.4000000E+00  0.2000000E+00  0.6666667E-01  0.3555556E-02
    1       -0.855809   1.000000
    2       -0.664132   1.000000
    3        2.310108   1.000000
    4        4.131286   1.000000
    5        5.932296   1.000000
    6        8.275007   1.000000
    7        9.756245   1.000000
    8       13.149239   0.000000
    9       14.912616   0.000000
   10       17.202280   0.000000

  0.2666667E+00  0.2666667E+00  0.6666667E-01  0.3555556E-02
    1       -1.620025   1.000000
    2        0.361079   1.000000
    3        2.000817   1.000000
    4        4.308998   1.000000
    5        5.900614   1.000000
    6        8.741660   1.000000
    7        9.083265   1.000000
    8       13.096652   0.000000
    9       15.989709   0.000000
   10       16.069906   0.000000

  0.3333333E+00  0.2666667E+00  0.6666667E-01  0.7111111E-02
    1       -0.832358   1.000000
    2       -0.122321   1.000000
    3        1.514270   1.000000
    4        4.439358   1.000000
    5        5.468679   1.000000
    6        8.792306   1.000000
    7        9.317882   1.000000
    8       12.863647  -0.000000
    9       15.996618   0.000000
   10       16.887388   0.000000

  0.3333333E+00  0.3333333E+00  0.6666667E-01  0.1185185E-02
    1       -0.267647   1.000000
    2       -0.267645   1.000000
    3        0.989050   1.000000
    4        4.889237   1.000000
    5        4.889239   1.000000
    6        9.131906   1.000000
    7        9.131907   1.000000
    8       12.649858  -0.000000
    9       16.683674   0.000000
   10       16.683675   0.000000

  0.3742002E-15  0.3742002E-15  0.1333333E+00  0.5925926E-03
    1       -5.098786   1.000000
    2        4.334523   1.000000
    3        4.334525   1.000000
    4        5.186098   1.000000
    5        8.268489   1.000000
    6        8.268491   1.000000
    7        9.269309   1.000000
    8       12.164651  -0.000000
    9       12.164654  -0.000000
   10       14.700910   0.000000

  0.6666667E-01  0.3766815E-15  0.1333333E+00  0.3555556E-02
    1       -5.012403   1.000000
    2        4.106312   1.000000
    3        4.366417   1.000000
    4        5.094837   1.000000
    5        7.958811   1.000000
    6        8.213878   1.000000
    7        9.764400   1.000000
    8       11.975870  -0.000000
    9       12.084229  -0.000000
   10       15.007817   0.000000

  0.1333333E+00  0.3754153E-15  0.1333333E+00  0.3555556E-02
    1       -4.758377   1.000000
    2        3.486698   1.000000
    3        4.436437   1.000000
    4        4.882029   1.000000
    5        7.537140   1.000000
    6        8.118343   1.000000
    7       10.501444  -0.010733
    8       11.787594  -0.000000
    9       11.891062  -0.000000
   10       15.633599   0.000000

  0.2000000E+00  0.3870416E-15  0.1333333E+00  0.3555556E-02
    1       -4.351590   1.000000
    2        2.651425   1.000000
    3        4.481439   1.000000
    4        4.621871   1.000000
    5        7.087513   1.000000
    6        8.124283   1.000000
    7       10.872496  -0.000000
    8       11.650503  -0.000000
    9       12.174731  -0.000000
   10       15.512771   0.000000

  0.2666667E+00  0.4120044E-15  0.1333333E+00  0.3555556E-02
    1       -3.814410   1.000000
    2        1.748087   1.000000
    3        4.372774   1.000000
    4        4.450883   1.000000
    5        6.547317   1.000000
    6        8.327961   1.000000
    7       11.213773  -0.000000
    8       11.396024  -0.000000
    9       12.626474  -0.000000
   10       15.588272   0.000000

  0.3333333E+00  0.4025434E-15  0.1333333E+00  0.3555556E-02
    1       -3.173514   1.000000
    2        0.847548   1.000000
    3        4.183847   1.000000
    4        4.356737   1.000000
    5        5.982838   1.000000
    6        8.706184   1.000000
    7       11.145162  -0.000000
    8       11.644949  -0.000000
    9       12.830817  -0.000000
   10       16.140917   0.000000

  0.4000000E+00  0.3732510E-15  0.1333333E+00  0.3555556E-02
    1       -2.456014   1.000000
    2       -0.025760   1.000000
    3        4.079247   1.000000
    4        4.253265   1.000000
    5        5.509201   1.000000
    6        9.139139   1.000000
    7       10.912705  -0.000000
    8       11.735490  -0.000000
    9       13.427351   0.000000
   10       16.478064   0.000000

  0.4666667E+00  0.3915456E-15  0.1333333E+00  0.3555556E-02
    1       -1.687385   1.000000
    2       -0.865016   1.000000
    3        4.046296   1.000000
    4        4.189156   1.000000
    5        5.231301   1.000000
    6        9.454206   1.000000
    7       10.741869  -0.000000
    8       11.643713  -0.000000
    9       14.267979   0.000000
   10       16.092805   0.000000

  0.6666667E-01  0.6666667E-01  0.1333333E+00  0.3555556E-02
    1       -4.842143   1.000000
    2        3.722965   1.000000
    3        4.316433   1.000000
    4        5.009459   1.000000
    5        7.714421   1.000000
    6        8.044316   1.000000
    7       10.379576   0.044983
    8       11.697321  -0.000000
    9       12.018184  -0.000000
   10       15.547090   0.000000

  0.1333333E+00  0.6666667E-01  0.1333333E+00  0.7111111E-02
    1       -4.511410   1.000000
    2        3.046802   1.000000
    3        4.121971   1.000000
    4        4.995784   1.000000
    5        7.396693   1.000000
    6        7.866076   1.000000
    7       10.980208  -0.000000
    8       11.506568  -0.000000
    9       12.095186  -0.000000
   10       15.810617   0.000000

  0.2000000E+00  0.6666667E-01  0.1333333E+00  0.7111111E-02
    1       -4.038438   1.000000
    2        2.206196   1.000000
    3        3.915958   1.000000
    4        4.930633   1.000000
    5        6.888143   1.000000
    6        7.968287   1.000000
    7       11.104976  -0.000000
    8       11.557153  -0.000000
    9       12.575118  -0.000000
   10       15.566712   0.000000

  0.2666667E+00  0.6666667E-01  0.1333333E+00  0.7111111E-02
    1       -3.447635   1.000000
    2        1.322385   1.000000
    3        3.765985   1.000000
    4        4.742821   1.000000
    5        6.320181   1.000000
    6        8.304392   1.000000
    7       11.048147  -0.000000
    8       11.815605  -0.000000
    9       12.910137  -0.000000
   10       15.788144   0.000000

  0.3333333E+00  0.6666667E-01  0.1333333E+00  0.7111111E-02
    1       -2.766128   1.000000
    2        0.447676   1.000000
    3        3.704419   1.000000
    4        4.480727   1.000000
    5        5.817962   1.000000
    6        8.758521   1.000000
    7       10.871676  -0.000000
    8       12.093111  -0.000000
    9       13.215393   0.000000
   10       16.322642   0.000000

  0.4000000E+00  0.6666667E-01  0.1333333E+00  0.7111111E-02
    1       -2.019973   1.000000
    2       -0.402483   1.000000
    3        3.739637   1.000000
    4        4.219008   1.000000
    5        5.478897   1.000000
    6        9.167547   1.000000
    7       10.690066  -0.000001
    8       12.069734  -0.000000
    9       13.916256   0.000000
   10       16.354073   0.000000

  0.4666667E+00  0.6666667E-01  0.1333333E+00  0.3555556E-02
    1       -1.273191   1.000000
    2       -1.181380   1.000000
    3        3.804605   1.000000
    4        4.073015   1.000000
    5        5.360411   1.000000
    6        9.342312   1.000000
    7       10.604648  -0.000132
    8       12.026127  -0.000000
    9       14.395644   0.000000
   10       16.091573   0.000000

  0.1333333E+00  0.1333333E+00  0.1333333E+00  0.3555556E-02
    1       -4.113713   1.000000
    2        2.476359   1.000000
    3        3.617571   1.000000
    4        5.143481   1.000000
    5        7.270039   1.000000
    6        7.503382   1.000000
    7       11.132803  -0.000000
    8       11.613535  -0.000000
    9       12.578637  -0.000000
   10       15.717822   0.000000

  0.2000000E+00  0.1333333E+00  0.1333333E+00  0.7111111E-02
    1       -3.585004   1.000000
    2        1.758551   1.000000
    3        3.270265   1.000000
    4        5.041135   1.000000
    5        6.685595   1.000000
    6        7.782641   1.000000
    7       10.883824  -0.000000
    8       12.096905  -0.000000
    9       13.216732   0.000000
   10       15.493492   0.000000

  0.2666667E+00  0.1333333E+00  0.1333333E+00  0.7111111E-02
    1       -2.950194   1.000000
    2        0.960863   1.000000
    3        3.096268   1.000000
    4        4.745259   1.000000
    5        6.133250   1.000000
    6        8.278126   1.000000
    7       10.658062  -0.000005
    8       12.580268  -0.000000
    9       13.555293   0.000000
   10       15.799717   0.000000

  0.3333333E+00  0.1333333E+00  0.1333333E+00  0.7111111E-02
    1       -2.236545   1.000000
    2        0.142760   1.000000
    3        3.048178   1.000000
    4        4.414367   1.000000
    5        5.721138   1.000000
    6        8.794720   1.000000
    7       10.466927  -0.024924
    8       12.828988  -0.000000
    9       13.862119   0.000000
   10       16.281754   0.000000

  0.4000000E+00  0.1333333E+00  0.1333333E+00  0.7111111E-02
    1       -1.470151   1.000000
    2       -0.671490   1.000000
    3        3.063153   1.000000
    4        4.191382   1.000000
    5        5.503099   1.000000
    6        9.133016   1.000000
    7       10.353808   0.171556
    8       12.829671  -0.000000
    9       14.250076   0.000000
   10       16.389400   0.000000

  0.2000000E+00  0.2000000E+00  0.1333333E+00  0.3555556E-02
    1       -3.011060   1.000000
    2        1.254139   1.000000
    3        2.755291   1.000000
    4        4.864044   1.000000
    5        6.265243   1.000000
    6        8.058093   1.000000
    7       10.548725  -0.001964
    8       12.714317  -0.000000
    9       14.033145   0.000000
   10       15.346527   0.000000

  0.2666667E+00  0.2000000E+00  0.1333333E+00  0.7111111E-02
    1       -2.342622   1.000000
    2        0.637253   1.000000
    3        2.441299   1.000000
    4        4.591080   1.000000
    5        5.796720   1.000000
    6        8.597737   1.000000
    7       10.255236   0.899807
    8       13.135648   0.000000
    9       14.527235   0.000000
   10       15.689379   0.000000
