   23   23    1    1
  0.8833935E+01  0.6094211E-09  0.6094211E-09  0.6314310E-09  0.5000000E-15
   1.0000000000000000E-004
  CAR 
 Name                                    
     89    125     56

  0.3742002E-15  0.3742002E-15  0.3742002E-15  0.1371742E-02
    1       -6.116611   1.000000
    2       -3.897509   1.000000
    3       -3.139803   1.000000
    4       -2.728878   1.000000
    5       -2.549914   1.000000
    6       -2.331813   1.000000
    7       -2.316959   1.000000
    8       -1.934920   1.000000
    9       -1.878789   1.000000
   10       -1.637423   1.000000
   11       -1.593028   1.000000
   12       -0.323279   1.000000
   13        0.016960   1.000000
   14        0.113480   1.000000
   15        0.333314   1.000000
   16        1.839473   1.000000
   17        1.994948   1.000000
   18        2.118431   1.000000
   19        2.278669   1.000000
   20        2.635533   1.000000
   21        2.658402   1.000000
   22        3.056434   1.000000
   23        3.293376   1.000000
   24        3.613031   1.000000
   25        3.772987   1.000000
   26        3.888780   1.000000
   27        3.986081   1.000000
   28        4.148244   1.000000
   29        4.258637   1.000000
   30        4.272770   1.000000
   31        4.439794   1.000000
   32        4.468116   1.000000
   33        4.534979   1.000000
   34        4.754701   1.000000
   35        4.825595   1.000000
   36        5.036726   1.000000
   37        5.700739   1.000000
   38        6.195458   1.000000
   39        6.439395   1.000000
   40        6.792424   1.000000
   41        6.908026   1.000000
   42        7.104251   1.000000
   43        7.150695   1.000000
   44        7.788070   1.000000
   45        8.048690   1.006271
   46        8.136810   1.035283
   47        8.755072  -0.000000
   48        9.337980  -0.000000
   49        9.339028  -0.000000
   50        9.401693  -0.000000
   51        9.525008  -0.000000
   52       10.489409  -0.000000
   53       10.819779  -0.000000
   54       11.234225   0.000000
   55       11.347064   0.000000
   56       12.666096   0.000000

  0.1111111E+00  0.3625917E-15  0.3742002E-15  0.5486968E-02
    1       -6.057445   1.000000
    2       -3.879816   1.000000
    3       -3.145453   1.000000
    4       -2.812058   1.000000
    5       -2.722872   1.000000
    6       -2.590396   1.000000
    7       -2.443883   1.000000
    8       -2.231099   1.000000
    9       -1.528717   1.000000
   10       -1.406889   1.000000
   11       -1.083426   1.000000
   12       -0.240199   1.000000
   13       -0.001752   1.000000
   14        0.131108   1.000000
   15        0.398530   1.000000
   16        1.876257   1.000000
   17        2.031825   1.000000
   18        2.164016   1.000000
   19        2.299643   1.000000
   20        2.632203   1.000000
   21        2.662425   1.000000
   22        3.076764   1.000000
   23        3.103078   1.000000
   24        3.271917   1.000000
   25        3.728418   1.000000
   26        3.856630   1.000000
   27        3.991521   1.000000
   28        4.069337   1.000000
   29        4.185091   1.000000
   30        4.273999   1.000000
   31        4.332042   1.000000
   32        4.463080   1.000000
   33        4.695292   1.000000
   34        4.778446   1.000000
   35        4.944892   1.000000
   36        5.326520   1.000000
   37        5.519787   1.000000
   38        5.694001   1.000000
   39        5.888216   1.000000
   40        7.002760   1.000000
   41        7.205449   1.000000
   42        7.300571   1.000000
   43        7.454690   1.000000
   44        7.612088   1.000000
   45        8.090422   1.020517
   46        8.145921   1.032667
   47        8.771424  -0.000000
   48        9.287141  -0.000000
   49        9.368640  -0.000000
   50        9.474588  -0.000000
   51        9.504929  -0.000000
   52       10.402597  -0.000000
   53       10.670832  -0.000000
   54       10.781319  -0.000000
   55       11.015431   0.000000
   56       11.474204   0.000000

  0.2222222E+00  0.3671229E-15  0.3742002E-15  0.5486968E-02
    1       -5.881958   1.000000
    2       -3.826495   1.000000
    3       -3.482132   1.000000
    4       -3.183983   1.000000
    5       -2.751889   1.000000
    6       -2.639080   1.000000
    7       -2.615622   1.000000
    8       -2.497546   1.000000
    9       -1.034192   1.000000
   10       -0.989772   1.000000
   11       -0.319375   1.000000
   12       -0.108698   1.000000
   13        0.006312   1.000000
   14        0.087204   1.000000
   15        0.746669   1.000000
   16        1.964844   1.000000
   17        2.116243   1.000000
   18        2.252403   1.000000
   19        2.302015   1.000000
   20        2.432444   1.000000
   21        2.558875   1.000000
   22        2.680032   1.000000
   23        2.918425   1.000000
   24        3.232741   1.000000
   25        3.497530   1.000000
   26        3.742275   1.000000
   27        3.905636   1.000000
   28        3.980010   1.000000
   29        4.047311   1.000000
   30        4.257594   1.000000
   31        4.266603   1.000000
   32        4.455646   1.000000
   33        4.683295   1.000000
   34        4.805994   1.000000
   35        4.869225   1.000000
   36        5.261642   1.000000
   37        5.305941   1.000000
   38        5.472794   1.000000
   39        5.819260   1.000000
   40        6.747739   1.000000
   41        7.147143   1.000000
   42        7.366904   1.000000
   43        7.637009   1.000000
   44        8.026960   1.002806
   45        8.304295   0.139344
   46        8.449377  -0.009840
   47        8.816498  -0.000000
   48        9.031720  -0.000000
   49        9.093861  -0.000000
   50        9.197366  -0.000000
   51        9.342801  -0.000000
   52        9.637145  -0.000000
   53       10.079625  -0.000000
   54       10.279636  -0.000000
   55       10.356142  -0.000000
   56       11.178720   0.000000

  0.3333333E+00  0.2874486E-15  0.3742002E-15  0.5486968E-02
    1       -5.596799   1.000000
    2       -4.115222   1.000000
    3       -3.737811   1.000000
    4       -3.292024   1.000000
    5       -2.794805   1.000000
    6       -2.788011   1.000000
    7       -2.672348   1.000000
    8       -2.574305   1.000000
    9       -0.504534   1.000000
   10       -0.501115   1.000000
   11       -0.236561   1.000000
   12        0.001784   1.000000
   13        0.352351   1.000000
   14        0.508395   1.000000
   15        1.314831   1.000000
   16        1.851120   1.000000
   17        1.897906   1.000000
   18        1.993768   1.000000
   19        2.057695   1.000000
   20        2.196220   1.000000
   21        2.537349   1.000000
   22        2.634105   1.000000
   23        3.011018   1.000000
   24        3.091353   1.000000
   25        3.321985   1.000000
   26        3.493216   1.000000
   27        3.834044   1.000000
   28        3.870085   1.000000
   29        4.029207   1.000000
   30        4.043831   1.000000
   31        4.268298   1.000000
   32        4.337368   1.000000
   33        4.502856   1.000000
   34        4.692394   1.000000
   35        4.859391   1.000000
   36        4.877743   1.000000
   37        5.015638   1.000000
   38        5.935277   1.000000
   39        6.159263   1.000000
   40        6.634106   1.000000
   41        6.725153   1.000000
   42        7.549806   1.000000
   43        7.565394   1.000000
   44        8.070059   1.012259
   45        8.509752  -0.000977
   46        8.558011  -0.000083
   47        8.876956  -0.000000
   48        8.967715  -0.000000
   49        8.995245  -0.000000
   50        9.014604  -0.000000
   51        9.269841  -0.000000
   52        9.425250  -0.000000
   53        9.712641  -0.000000
   54        9.854690  -0.000000
   55       10.463004  -0.000000
   56       11.210610   0.000000

  0.4444444E+00  0.3059120E-15  0.3742002E-15  0.5486968E-02
    1       -5.224624   1.000000
    2       -4.664489   1.000000
    3       -3.621285   1.000000
    4       -3.439009   1.000000
    5       -2.865463   1.000000
    6       -2.802653   1.000000
    7       -2.759238   1.000000
    8       -2.538322   1.000000
    9       -0.320006   1.000000
   10       -0.073474   1.000000
   11       -0.055979   1.000000
   12       -0.045812   1.000000
   13        0.829268   1.000000
   14        1.254324   1.000000
   15        1.366383   1.000000
   16        1.400543   1.000000
   17        1.508285   1.000000
   18        1.989390   1.000000
   19        2.050197   1.000000
   20        2.127521   1.000000
   21        2.240079   1.000000
   22        2.752572   1.000000
   23        2.861548   1.000000
   24        3.087599   1.000000
   25        3.250935   1.000000
   26        3.272505   1.000000
   27        3.707286   1.000000
   28        3.795004   1.000000
   29        3.844677   1.000000
   30        4.135790   1.000000
   31        4.201959   1.000000
   32        4.273420   1.000000
   33        4.484262   1.000000
   34        4.582080   1.000000
   35        4.712940   1.000000
   36        4.946985   1.000000
   37        5.031909   1.000000
   38        5.832268   1.000000
   39        6.264495   1.000000
   40        6.579994   1.000000
   41        7.144382   1.000000
   42        7.444732   1.000000
   43        7.666138   1.000000
   44        7.932791   1.000024
   45        8.079406   1.015779
   46        8.086865   1.018931
   47        8.880188  -0.000000
   48        8.910886  -0.000000
   49        9.186826  -0.000000
   50        9.253791  -0.000000
   51        9.412350  -0.000000
   52        9.425663  -0.000000
   53        9.508307  -0.000000
   54        9.537059  -0.000000
   55       10.180911  -0.000000
   56       10.491717  -0.000000

  0.1111111E+00  0.1111111E+00  0.3742002E-15  0.2743484E-02
    1       -5.939797   1.000000
    2       -3.843934   1.000000
    3       -3.202455   1.000000
    4       -3.158560   1.000000
    5       -2.946088   1.000000
    6       -2.742721   1.000000
    7       -2.624383   1.000000
    8       -1.961391   1.000000
    9       -1.636070   1.000000
   10       -0.754858   1.000000
   11       -0.637785   1.000000
   12       -0.182063   1.000000
   13       -0.076366   1.000000
   14        0.275919   1.000000
   15        0.573215   1.000000
   16        1.918321   1.000000
   17        2.078046   1.000000
   18        2.280300   1.000000
   19        2.295066   1.000000
   20        2.449150   1.000000
   21        2.522664   1.000000
   22        2.880656   1.000000
   23        3.189082   1.000000
   24        3.194733   1.000000
   25        3.517307   1.000000
   26        3.777236   1.000000
   27        3.804771   1.000000
   28        4.001084   1.000000
   29        4.011572   1.000000
   30        4.278844   1.000000
   31        4.295843   1.000000
   32        4.573261   1.000000
   33        4.725044   1.000000
   34        4.926987   1.000000
   35        4.996857   1.000000
   36        5.137032   1.000000
   37        5.227795   1.000000
   38        5.480674   1.000000
   39        5.810008   1.000000
   40        6.840517   1.000000
   41        7.271224   1.000000
   42        7.307876   1.000000
   43        7.711942   1.000000
   44        7.856942   1.000000
   45        8.056398   1.008101
   46        8.447872  -0.010299
   47        8.801238  -0.000000
   48        9.173886  -0.000000
   49        9.187316  -0.000000
   50        9.269383  -0.000000
   51        9.434283  -0.000000
   52        9.631765  -0.000000
   53       10.283267  -0.000000
   54       10.357819  -0.000000
   55       10.390390  -0.000000
   56       11.281113   0.000000

  0.2222222E+00  0.1111111E+00  0.3742002E-15  0.5486968E-02
    1       -5.708899   1.000000
    2       -3.786551   1.000000
    3       -3.773109   1.000000
    4       -3.245140   1.000000
    5       -3.209878   1.000000
    6       -2.894006   1.000000
    7       -2.500715   1.000000
    8       -2.014954   1.000000
    9       -1.241219   1.000000
   10       -0.442981   1.000000
   11       -0.246294   1.000000
   12        0.087970   1.000000
   13        0.251085   1.000000
   14        0.372035   1.000000
   15        1.002680   1.000000
   16        1.745877   1.000000
   17        1.996362   1.000000
   18        2.165510   1.000000
   19        2.183757   1.000000
   20        2.457070   1.000000
   21        2.466071   1.000000
   22        2.688951   1.000000
   23        3.083782   1.000000
   24        3.223094   1.000000
   25        3.302091   1.000000
   26        3.599005   1.000000
   27        3.639528   1.000000
   28        3.863567   1.000000
   29        3.885078   1.000000
   30        4.146059   1.000000
   31        4.328585   1.000000
   32        4.499670   1.000000
   33        4.628420   1.000000
   34        4.820624   1.000000
   35        4.907275   1.000000
   36        4.935608   1.000000
   37        5.014567   1.000000
   38        5.465014   1.000000
   39        6.328046   1.000000
   40        6.636579   1.000000
   41        6.782973   1.000000
   42        7.488790   1.000000
   43        7.725682   1.000000
   44        8.049843   1.006522
   45        8.448028  -0.010251
   46        8.746323  -0.000000
   47        8.843615  -0.000000
   48        8.885679  -0.000000
   49        9.024932  -0.000000
   50        9.063004  -0.000000
   51        9.317168  -0.000000
   52        9.713269  -0.000000
   53        9.857908  -0.000000
   54       10.034160  -0.000000
   55       10.311785  -0.000000
   56       11.353835   0.000000

  0.3333333E+00  0.1111111E+00  0.3742002E-15  0.5486968E-02
    1       -5.375286   1.000000
    2       -4.373430   1.000000
    3       -3.669746   1.000000
    4       -3.390461   1.000000
    5       -3.339255   1.000000
    6       -2.959865   1.000000
    7       -2.383956   1.000000
    8       -2.122007   1.000000
    9       -0.689915   1.000000
   10       -0.654662   1.000000
   11        0.205715   1.000000
   12        0.388666   1.000000
   13        0.646928   1.000000
   14        0.904199   1.000000
   15        1.081326   1.000000
   16        1.615584   1.000000
   17        1.753354   1.000000
   18        2.057189   1.000000
   19        2.157404   1.000000
   20        2.269320   1.000000
   21        2.322978   1.000000
   22        2.713807   1.000000
   23        2.786231   1.000000
   24        2.983331   1.000000
   25        3.337546   1.000000
   26        3.407796   1.000000
   27        3.720899   1.000000
   28        3.775262   1.000000
   29        3.824287   1.000000
   30        3.965491   1.000000
   31        4.276358   1.000000
   32        4.281229   1.000000
   33        4.545974   1.000000
   34        4.581925   1.000000
   35        4.821224   1.000000
   36        4.949712   1.000000
   37        5.016346   1.000000
   38        5.772727   1.000000
   39        6.320250   1.000000
   40        6.401010   1.000000
   41        7.028618   1.000000
   42        7.560872   1.000000
   43        7.678753   1.000000
   44        8.092027   1.021245
   45        8.279456   0.307337
   46        8.316283   0.078667
   47        8.822985  -0.000000
   48        8.931826  -0.000000
   49        8.957846  -0.000000
   50        9.197202  -0.000000
   51        9.296648  -0.000000
   52        9.458655  -0.000000
   53        9.645606  -0.000000
   54        9.682313  -0.000000
   55       10.222036  -0.000000
   56       10.502176  -0.000000

  0.4444444E+00  0.1111111E+00  0.3742002E-15  0.5486968E-02
    1       -5.049069   1.000000
    2       -4.786249   1.000000
    3       -3.570673   1.000000
    4       -3.465551   1.000000
    5       -3.436498   1.000000
    6       -2.965987   1.000000
    7       -2.330692   1.000000
    8       -2.161567   1.000000
    9       -0.734490   1.000000
   10       -0.349009   1.000000
   11        0.388386   1.000000
   12        0.435035   1.000000
   13        0.696568   1.000000
   14        1.054409   1.000000
   15        1.345424   1.000000
   16        1.602381   1.000000
   17        1.714465   1.000000
   18        1.926170   1.000000
   19        2.062310   1.000000
   20        2.252658   1.000000
   21        2.290924   1.000000
   22        2.387334   1.000000
   23        2.758322   1.000000
   24        3.022645   1.000000
   25        3.112616   1.000000
   26        3.539812   1.000000
   27        3.576689   1.000000
   28        3.738905   1.000000
   29        3.905342   1.000000
   30        4.031897   1.000000
   31        4.174168   1.000000
   32        4.178595   1.000000
   33        4.363899   1.000000
   34        4.651294   1.000000
   35        4.716231   1.000000
   36        5.069184   1.000000
   37        5.126954   1.000000
   38        5.779801   1.000000
   39        6.100415   1.000000
   40        6.481649   1.000000
   41        7.471256   1.000000
   42        7.471411   1.000000
   43        7.725303   1.000000
   44        7.880193   1.000001
   45        8.074614   1.013909
   46        8.105940   1.027630
   47        8.748606  -0.000000
   48        8.958434  -0.000000
   49        9.122822  -0.000000
   50        9.212292  -0.000000
   51        9.215452  -0.000000
   52        9.252166  -0.000000
   53        9.562274  -0.000000
   54        9.943642  -0.000000
   55        9.993359  -0.000000
   56       10.604731  -0.000000

 -0.4444444E+00  0.1111111E+00  0.3742002E-15  0.5486968E-02
    1       -5.377455   1.000000
    2       -4.370223   1.000000
    3       -3.667760   1.000000
    4       -3.388191   1.000000
    5       -3.360400   1.000000
    6       -2.949943   1.000000
    7       -2.367827   1.000000
    8       -2.126643   1.000000
    9       -0.693736   1.000000
   10       -0.646824   1.000000
   11        0.195624   1.000000
   12        0.392112   1.000000
   13        0.644948   1.000000
   14        0.889714   1.000000
   15        1.132772   1.000000
   16        1.543769   1.000000
   17        1.766306   1.000000
   18        2.091803   1.000000
   19        2.124754   1.000000
   20        2.303612   1.000000
   21        2.388288   1.000000
   22        2.685403   1.000000
   23        2.738447   1.000000
   24        3.019152   1.000000
   25        3.248246   1.000000
   26        3.426140   1.000000
   27        3.666623   1.000000
   28        3.756373   1.000000
   29        3.839968   1.000000
   30        4.054409   1.000000
   31        4.174267   1.000000
   32        4.235323   1.000000
   33        4.528928   1.000000
   34        4.650543   1.000000
   35        4.800847   1.000000
   36        5.037259   1.000000
   37        5.067476   1.000000
   38        5.893173   1.000000
   39        6.320685   1.000000
   40        6.321075   1.000000
   41        6.917781   1.000000
   42        7.521926   1.000000
   43        7.745872   1.000000
   44        8.101290   1.025518
   45        8.269525   0.386600
   46        8.340063   0.000249
   47        8.811876  -0.000000
   48        8.950788  -0.000000
   49        8.991301  -0.000000
   50        9.185435  -0.000000
   51        9.275759  -0.000000
   52        9.467199  -0.000000
   53        9.625427  -0.000000
   54        9.664993  -0.000000
   55       10.153764  -0.000000
   56       10.530810  -0.000000

 -0.3333333E+00  0.1111111E+00  0.3742002E-15  0.5486968E-02
    1       -5.710580   1.000000
    2       -3.782073   1.000000
    3       -3.774264   1.000000
    4       -3.241635   1.000000
    5       -3.232188   1.000000
    6       -2.906792   1.000000
    7       -2.449236   1.000000
    8       -2.025754   1.000000
    9       -1.240493   1.000000
   10       -0.437882   1.000000
   11       -0.263988   1.000000
   12        0.092055   1.000000
   13        0.261461   1.000000
   14        0.383144   1.000000
   15        0.938686   1.000000
   16        1.797528   1.000000
   17        2.053717   1.000000
   18        2.190765   1.000000
   19        2.215708   1.000000
   20        2.393945   1.000000
   21        2.549520   1.000000
   22        2.635649   1.000000
   23        3.003543   1.000000
   24        3.126436   1.000000
   25        3.334873   1.000000
   26        3.564279   1.000000
   27        3.570196   1.000000
   28        3.850901   1.000000
   29        3.970525   1.000000
   30        4.149853   1.000000
   31        4.306908   1.000000
   32        4.497583   1.000000
   33        4.502596   1.000000
   34        4.783256   1.000000
   35        4.978433   1.000000
   36        5.000026   1.000000
   37        5.136906   1.000000
   38        5.704157   1.000000
   39        6.166165   1.000000
   40        6.531278   1.000000
   41        6.800110   1.000000
   42        7.530625   1.000000
   43        7.659812   1.000000
   44        8.064798   1.010516
   45        8.492806  -0.002045
   46        8.767845  -0.000000
   47        8.833906  -0.000000
   48        8.873874  -0.000000
   49        9.027348  -0.000000
   50        9.065296  -0.000000
   51        9.356097  -0.000000
   52        9.420864  -0.000000
   53        9.924155  -0.000000
   54        9.988941  -0.000000
   55       10.199630  -0.000000
   56       11.027860   0.000000

 -0.2222222E+00  0.1111111E+00  0.3742002E-15  0.5486968E-02
    1       -5.940852   1.000000
    2       -3.845674   1.000000
    3       -3.191636   1.000000
    4       -3.163959   1.000000
    5       -2.948276   1.000000
    6       -2.837032   1.000000
    7       -2.504569   1.000000
    8       -1.979254   1.000000
    9       -1.627776   1.000000
   10       -0.790846   1.000000
   11       -0.605828   1.000000
   12       -0.185228   1.000000
   13       -0.073960   1.000000
   14        0.259077   1.000000
   15        0.563057   1.000000
   16        1.978024   1.000000
   17        2.120307   1.000000
   18        2.198954   1.000000
   19        2.359904   1.000000
   20        2.491180   1.000000
   21        2.560717   1.000000
   22        2.831438   1.000000
   23        3.116133   1.000000
   24        3.177669   1.000000
   25        3.364174   1.000000
   26        3.775554   1.000000
   27        3.825198   1.000000
   28        3.911495   1.000000
   29        4.101570   1.000000
   30        4.231712   1.000000
   31        4.317123   1.000000
   32        4.571382   1.000000
   33        4.718211   1.000000
   34        4.995028   1.000000
   35        5.051676   1.000000
   36        5.218045   1.000000
   37        5.383782   1.000000
   38        5.480207   1.000000
   39        5.634539   1.000000
   40        6.813145   1.000000
   41        7.291397   1.000000
   42        7.306810   1.000000
   43        7.737630   1.000000
   44        7.837594   1.000000
   45        8.039043   1.004453
   46        8.431332  -0.016283
   47        8.803506  -0.000000
   48        9.117967  -0.000000
   49        9.198231  -0.000000
   50        9.324435  -0.000000
   51        9.398029  -0.000000
   52       10.157921  -0.000000
   53       10.376614  -0.000000
   54       10.416553  -0.000000
   55       10.421558  -0.000000
   56       11.305224   0.000000

 -0.1111111E+00  0.1111111E+00  0.3742002E-15  0.2743484E-02
    1       -6.057805   1.000000
    2       -3.880567   1.000000
    3       -3.144564   1.000000
    4       -2.796393   1.000000
    5       -2.782126   1.000000
    6       -2.522432   1.000000
    7       -2.476779   1.000000
    8       -2.206807   1.000000
    9       -1.544154   1.000000
   10       -1.411684   1.000000
   11       -1.071427   1.000000
   12       -0.239863   1.000000
   13        0.027058   1.000000
   14        0.064532   1.000000
   15        0.426396   1.000000
   16        1.898005   1.000000
   17        2.050398   1.000000
   18        2.129113   1.000000
   19        2.330832   1.000000
   20        2.593018   1.000000
   21        2.679014   1.000000
   22        3.094513   1.000000
   23        3.231421   1.000000
   24        3.298102   1.000000
   25        3.369341   1.000000
   26        3.893020   1.000000
   27        3.938943   1.000000
   28        4.160218   1.000000
   29        4.168290   1.000000
   30        4.309328   1.000000
   31        4.310740   1.000000
   32        4.592250   1.000000
   33        4.655563   1.000000
   34        4.899127   1.000000
   35        4.938343   1.000000
   36        5.207658   1.000000
   37        5.501906   1.000000
   38        5.735963   1.000000
   39        5.884798   1.000000
   40        7.045302   1.000000
   41        7.156717   1.000000
   42        7.352433   1.000000
   43        7.390207   1.000000
   44        7.676754   1.000000
   45        7.998585   1.000827
   46        8.188152   0.952093
   47        8.772206  -0.000000
   48        9.275146  -0.000000
   49        9.302436  -0.000000
   50        9.358902  -0.000000
   51        9.484837  -0.000000
   52       10.297855  -0.000000
   53       10.441062  -0.000000
   54       11.030881   0.000000
   55       11.263696   0.000000
   56       11.334292   0.000000

  0.2222222E+00  0.2222222E+00  0.3742002E-15  0.2743484E-02
    1       -5.427885   1.000000
    2       -4.100529   1.000000
    3       -3.756479   1.000000
    4       -3.686584   1.000000
    5       -3.239842   1.000000
    6       -3.103070   1.000000
    7       -2.269482   1.000000
    8       -1.417516   1.000000
    9       -1.385285   1.000000
   10       -0.838863   1.000000
   11        0.450638   1.000000
   12        0.528752   1.000000
   13        0.670929   1.000000
   14        0.762008   1.000000
   15        0.988769   1.000000
   16        1.286208   1.000000
   17        2.031846   1.000000
   18        2.034002   1.000000
   19        2.230281   1.000000
   20        2.301741   1.000000
   21        2.558179   1.000000
   22        2.656366   1.000000
   23        2.906000   1.000000
   24        3.030875   1.000000
   25        3.083463   1.000000
   26        3.488804   1.000000
   27        3.502372   1.000000
   28        3.769447   1.000000
   29        3.802335   1.000000
   30        3.984309   1.000000
   31        4.382039   1.000000
   32        4.386074   1.000000
   33        4.402926   1.000000
   34        4.622221   1.000000
   35        4.860166   1.000000
   36        4.981472   1.000000
   37        5.072281   1.000000
   38        5.632079   1.000000
   39        6.329615   1.000000
   40        6.373056   1.000000
   41        6.959025   1.000000
   42        7.626180   1.000000
   43        7.722381   1.000000
   44        8.200552   0.898481
   45        8.446744  -0.010653
   46        8.639085  -0.000000
   47        8.654093  -0.000000
   48        8.738479  -0.000000
   49        8.933724  -0.000000
   50        9.074665  -0.000000
   51        9.305017  -0.000000
   52        9.377774  -0.000000
   53        9.712207  -0.000000
   54        9.790435  -0.000000
   55       10.011735  -0.000000
   56       10.631036  -0.000000

  0.3333333E+00  0.2222222E+00  0.3742002E-15  0.5486968E-02
    1       -5.058641   1.000000
    2       -4.553428   1.000000
    3       -3.947446   1.000000
    4       -3.576481   1.000000
    5       -3.359750   1.000000
    6       -3.180246   1.000000
    7       -2.051095   1.000000
    8       -1.477722   1.000000
    9       -1.137706   1.000000
   10       -0.810956   1.000000
   11        0.313139   1.000000
   12        0.818241   1.000000
   13        0.954367   1.000000
   14        1.041841   1.000000
   15        1.308507   1.000000
   16        1.596843   1.000000
   17        1.766791   1.000000
   18        1.952870   1.000000
   19        2.045422   1.000000
   20        2.244688   1.000000
   21        2.361104   1.000000
   22        2.498581   1.000000
   23        2.579300   1.000000
   24        2.921824   1.000000
   25        3.210475   1.000000
   26        3.240925   1.000000
   27        3.585761   1.000000
   28        3.747158   1.000000
   29        3.790328   1.000000
   30        4.003770   1.000000
   31        4.148982   1.000000
   32        4.267521   1.000000
   33        4.324109   1.000000
   34        4.537786   1.000000
   35        4.781012   1.000000
   36        5.090493   1.000000
   37        5.343442   1.000000
   38        5.809110   1.000000
   39        5.946167   1.000000
   40        6.169924   1.000000
   41        7.499376   1.000000
   42        7.580345   1.000000
   43        7.992147   1.000610
   44        8.131879   1.035418
   45        8.281444   0.292118
   46        8.303435   0.144247
   47        8.599656  -0.000007
   48        8.806662  -0.000000
   49        8.831208  -0.000000
   50        8.989521  -0.000000
   51        9.064155  -0.000000
   52        9.267266  -0.000000
   53        9.429171  -0.000000
   54        9.903634  -0.000000
   55       10.242799  -0.000000
   56       10.740496  -0.000000

  0.4444444E+00  0.2222222E+00  0.3742002E-15  0.5486968E-02
    1       -5.065899   1.000000
    2       -4.540933   1.000000
    3       -3.951493   1.000000
    4       -3.570942   1.000000
    5       -3.391530   1.000000
    6       -3.162495   1.000000
    7       -2.027380   1.000000
    8       -1.479743   1.000000
    9       -1.145856   1.000000
   10       -0.817604   1.000000
   11        0.322176   1.000000
   12        0.802502   1.000000
   13        0.981067   1.000000
   14        1.039300   1.000000
   15        1.311139   1.000000
   16        1.616387   1.000000
   17        1.682634   1.000000
   18        1.997749   1.000000
   19        2.060235   1.000000
   20        2.242410   1.000000
   21        2.326984   1.000000
   22        2.562261   1.000000
   23        2.634240   1.000000
   24        2.863813   1.000000
   25        3.238233   1.000000
   26        3.268342   1.000000
   27        3.442651   1.000000
   28        3.661336   1.000000
   29        3.842014   1.000000
   30        3.947507   1.000000
   31        4.060803   1.000000
   32        4.307859   1.000000
   33        4.435923   1.000000