 running on    4 total cores
 distrk:  each k-point on    4 cores,    1 groups
 distr:  one band on    2 cores,    2 groups
 using from now: INCAR     
 vasp.5.4.4.18Apr17-6-g9f103f2a35 (build Dec  7 2020 12:43:57) complex           
 POSCAR found type information on POSCAR  Mo B 
 POSCAR found :  2 types and       3 ions
 scaLAPACK will be used
 LDA part: xc-table for Pade appr. of Perdew
 WARNING: stress and forces are not correct
 POSCAR, INCAR and KPOINTS ok, starting setup
 FFT: planning ...
 WAVECAR not read
 augmentation electrons   12.019473928388933     
 soft         electrons   0.0000000000000000     
 augmentation electrons   12.019473928388933     
 soft         electrons   0.0000000000000000     
 augmentation electrons   12.019473928388933     
 soft         electrons   0.0000000000000000     
 augmentation electrons   12.019473928388933     
 soft         electrons   0.0000000000000000     
 total        electrons   12.019473928388933     
 total        electrons   12.019473928388933     
 total        electrons   12.019473928388933     
 total        electrons   12.019473928388933     
 augmentation electrons   177.20266100097092     
 soft         electrons   0.0000000000000000     
 augmentation electrons   177.20266100097092     
 soft         electrons   0.0000000000000000     
 augmentation electrons   177.20266100097092     
 soft         electrons   0.0000000000000000     
 augmentation electrons   177.20266100097092     
 soft         electrons   0.0000000000000000     
 total        electrons   177.20266100097092     
 total        electrons   177.20266100097092     
 total        electrons   177.20266100097092     
 total        electrons   177.20266100097092     
 charge-density read from file: Name                                    
 entering main loop
       N       E                     dE             d eps       ncg     rms          rms(c)
DAV:   1     0.295777942858E+02    0.29578E+02   -0.56338E+03 98260   0.104E+03
DAV:   2    -0.232366182276E+02   -0.52814E+02   -0.50574E+02120268   0.215E+02
DAV:   3    -0.251829646888E+02   -0.19463E+01   -0.18808E+01121790   0.369E+01
DAV:   4    -0.252047040669E+02   -0.21739E-01   -0.21616E-01118544   0.328E+00
DAV:   5    -0.252049171687E+02   -0.21310E-03   -0.21341E-03117144   0.265E-01
RMM:   6    -0.252049206893E+02   -0.35206E-05   -0.35188E-05 72658   0.250E-02
RMM:   7    -0.252049210398E+02   -0.35051E-06   -0.35332E-06 68404   0.403E-03
   1 F= -.25204921E+02 E0= -.25204921E+02  d E =0.000000E+00
 writing wavefunctions
 augmentation electrons   1.1773916600977117     
 soft         electrons   10.844947379291021     
 total        electrons   12.022339039388733     
 augmentation electrons   1.1773916600977117     
 soft         electrons   10.844947379291021     
 total        electrons   12.022339039388733     
 augmentation electrons   1.1773916600977117     
 soft         electrons   10.844947379291021     
 total        electrons   12.022339039388733     
 augmentation electrons   1.1773916600977117     
 soft         electrons   10.844947379291021     
 total        electrons   12.022339039388733     
