   76   76    1    1
  0.2054817E+02  0.1053953E-08  0.6141200E-09  0.2412750E-08  0.5000000E-15
   1.0000000000000000E-004
  CAR 
 Name                                    
    286     15    184

  0.3742002E-15  0.3742002E-15  0.1262379E-14  0.2222222E-01
    1      -13.709292   1.000000
    2      -12.605445   1.000000
    3      -12.555222   1.000000
    4      -12.498292   1.000000
    5      -11.614405   1.000000
    6      -11.535128   1.000000
    7      -11.361934   1.000000
    8      -11.307139   1.000000
    9      -11.144261   1.000000
   10      -11.142962   1.000000
   11      -11.007938   1.000000
   12      -10.828693   1.000000
   13      -10.751311   1.000000
   14      -10.548141   1.000000
   15      -10.444444   1.000000
   16      -10.426756   1.000000
   17      -10.375523   1.000000
   18      -10.035868   1.000000
   19       -9.916513   1.000000
   20       -9.799606   1.000000
   21       -9.657435   1.000000
   22       -9.507283   1.000000
   23       -9.381606   1.000000
   24       -9.283643   1.000000
   25       -9.233569   1.000000
   26       -8.706752   1.000000
   27       -8.648624   1.000000
   28       -8.617513   1.000000
   29       -8.234983   1.000000
   30       -8.093758   1.000000
   31       -7.873345   1.000000
   32       -7.608821   1.000000
   33       -7.581953   1.000000
   34       -7.551717   1.000000
   35       -7.447036   1.000000
   36       -7.392846   1.000000
   37       -6.939501   1.000000
   38       -6.818395   1.000000
   39       -6.668779   1.000000
   40       -6.563683   1.000000
   41       -6.474676   1.000000
   42       -6.468685   1.000000
   43       -6.362396   1.000000
   44       -6.338865   1.000000
   45       -6.273587   1.000000
   46       -6.189519   1.000000
   47       -6.146771   1.000000
   48       -6.017097   1.000000
   49       -5.906076   1.000000
   50       -5.895884   1.000000
   51       -5.885221   1.000000
   52       -5.828597   1.000000
   53       -5.716886   1.000000
   54       -5.501332   1.000000
   55       -5.464495   1.000000
   56       -5.364691   1.000000
   57       -5.361503   1.000000
   58       -5.186560   1.000000
   59       -5.183570   1.000000
   60       -5.067457   1.000000
   61       -5.044467   1.000000
   62       -5.021085   1.000000
   63       -5.015607   1.000000
   64       -4.934050   1.000000
   65       -4.677089   1.000000
   66       -4.587243   1.000000
   67       -4.446956   1.000000
   68       -4.334989   1.000000
   69       -4.334815   1.000000
   70       -4.204603   1.000000
   71       -4.189805   1.000000
   72       -4.092393   1.000000
   73       -3.923555   1.000000
   74       -3.917171   1.000000
   75       -3.913779   1.000000
   76       -3.911357   1.000000
   77       -3.910025   1.000000
   78       -3.854835   1.000000
   79       -3.789065   1.000000
   80       -3.740496   1.000000
   81       -3.688629   1.000000
   82       -3.671673   1.000000
   83       -3.574253   1.000000
   84       -3.567261   1.000000
   85       -3.521496   1.000000
   86       -3.444190   1.000000
   87       -3.402742   1.000000
   88       -3.375490   1.000000
   89       -3.336230   1.000000
   90       -3.256569   1.000000
   91       -3.239593   1.000000
   92       -3.201904   1.000000
   93       -3.048013   1.000000
   94       -2.975955   1.000000
   95       -2.940701   1.000000
   96       -2.850542   1.000000
   97       -2.836938   1.000000
   98       -2.681703   1.000000
   99       -2.540183   1.000000
  100       -2.495540   1.000000
  101       -2.366879   1.000000
  102       -2.348555   1.000000
  103       -2.323543   1.000000
  104       -2.263654   1.000000
  105       -2.108364   1.000000
  106       -2.095811   1.000000
  107       -2.069902   1.000000
  108       -2.031836   1.000000
  109       -1.969540   1.000000
  110       -1.876669   1.000000
  111       -1.787265   1.000000
  112       -1.680531   1.000000
  113       -1.658830   1.000000
  114       -1.655475   1.000000
  115       -1.589976   1.000000
  116       -1.514692   1.000000
  117       -1.492188   1.000000
  118       -1.415810   1.000000
  119       -1.403412   1.000000
  120       -1.401821   1.000000
  121       -1.255412   1.000000
  122       -1.157824   1.000000
  123       -0.828746   1.000000
  124       -0.781066   1.000000
  125       -0.715553   1.000000
  126       -0.698957   1.000000
  127       -0.472528   1.000000
  128       -0.343770   1.000000
  129       -0.226828   1.000000
  130       -0.215656   1.000000
  131       -0.118339   1.000000
  132        0.071254   1.000000
  133        0.087521   1.000000
  134        0.120687   1.000000
  135        0.291982   1.000000
  136        0.501877   1.000267
  137        0.511768   1.000439
  138        0.602105   1.014332
  139        0.615475   1.019922
  140        0.617898   1.021015
  141        0.646195   1.033076
  142        0.728184   0.892193
  143        0.755085   0.721611
  144        0.841711   0.082944
  145        0.877681  -0.019558
  146        0.878705  -0.020900
  147        0.954687  -0.017547
  148        0.956694  -0.016703
  149        1.094482  -0.000047
  150        1.136563  -0.000003
  151        1.238209  -0.000000
  152        1.324984  -0.000000
  153        1.346034  -0.000000
  154        1.456526  -0.000000
  155        1.495206  -0.000000
  156        1.554692  -0.000000
  157        1.585985  -0.000000
  158        1.601310  -0.000000
  159        1.634418  -0.000000
  160        1.635963  -0.000000
  161        1.685601  -0.000000
  162        1.711789  -0.000000
  163        1.736269  -0.000000
  164        1.787357  -0.000000
  165        1.885149  -0.000000
  166        1.889225  -0.000000
  167        1.986484  -0.000000
  168        2.035868  -0.000000
  169        2.056982  -0.000000
  170        2.062848  -0.000000
  171        2.081942  -0.000000
  172        2.121163  -0.000000
  173        2.208544  -0.000000
  174        2.350193  -0.000000
  175        2.353757  -0.000000
  176        2.402203  -0.000000
  177        2.458021  -0.000000
  178        2.546043  -0.000000
  179        2.809830  -0.000000
  180        2.875708  -0.000000
  181        2.926759  -0.000000
  182        3.175105  -0.000000
  183        3.221927  -0.000000
  184        3.896947   0.000000

  0.2000000E+00  0.3742002E-15  0.1262379E-14  0.4444444E-01
    1      -13.660870   1.000000
    2      -12.958162   1.000000
    3      -12.511206   1.000000
    4      -12.085235   1.000000
    5      -11.861889   1.000000
    6      -11.524420   1.000000
    7      -11.362563   1.000000
    8      -11.115026   1.000000
    9      -11.074378   1.000000
   10      -11.066615   1.000000
   11      -11.003350   1.000000
   12      -10.864494   1.000000
   13      -10.690253   1.000000
   14      -10.577783   1.000000
   15      -10.487264   1.000000
   16      -10.478086   1.000000
   17      -10.398397   1.000000
   18      -10.340645   1.000000
   19       -9.940033   1.000000
   20       -9.873275   1.000000
   21       -9.785824   1.000000
   22       -9.324088   1.000000
   23       -9.265503   1.000000
   24       -9.203107   1.000000
   25       -9.157685   1.000000
   26       -8.979906   1.000000
   27       -8.552843   1.000000
   28       -8.309303   1.000000
   29       -8.213724   1.000000
   30       -8.071642   1.000000
   31       -7.905160   1.000000
   32       -7.809069   1.000000
   33       -7.569517   1.000000
   34       -7.450085   1.000000
   35       -7.411533   1.000000
   36       -7.283110   1.000000
   37       -7.149772   1.000000
   38       -6.886842   1.000000
   39       -6.838777   1.000000
   40       -6.623055   1.000000
   41       -6.573361   1.000000
   42       -6.496109   1.000000
   43       -6.457560   1.000000
   44       -6.340643   1.000000
   45       -6.330187   1.000000
   46       -6.132874   1.000000
   47       -5.991682   1.000000
   48       -5.914049   1.000000
   49       -5.908923   1.000000
   50       -5.813729   1.000000
   51       -5.782364   1.000000
   52       -5.709714   1.000000
   53       -5.644396   1.000000
   54       -5.572931   1.000000
   55       -5.493674   1.000000
   56       -5.301231   1.000000
   57       -5.247583   1.000000
   58       -5.238783   1.000000
   59       -5.183656   1.000000
   60       -5.091404   1.000000
   61       -5.074819   1.000000
   62       -5.020696   1.000000
   63       -4.974100   1.000000
   64       -4.922601   1.000000
   65       -4.843794   1.000000
   66       -4.506105   1.000000
   67       -4.396363   1.000000
   68       -4.365940   1.000000
   69       -4.363340   1.000000
   70       -4.281787   1.000000
   71       -4.239766   1.000000
   72       -4.055219   1.000000
   73       -3.995222   1.000000
   74       -3.992831   1.000000
   75       -3.889720   1.000000
   76       -3.875662   1.000000
   77       -3.867446   1.000000
   78       -3.764811   1.000000
   79       -3.757017   1.000000
   80       -3.729952   1.000000
   81       -3.681923   1.000000
   82       -3.659363   1.000000
   83       -3.638100   1.000000
   84       -3.628144   1.000000
   85       -3.498944   1.000000
   86       -3.473906   1.000000
   87       -3.374733   1.000000
   88       -3.341541   1.000000
   89       -3.283776   1.000000
   90       -3.258823   1.000000
   91       -3.227152   1.000000
   92       -3.149033   1.000000
   93       -3.118975   1.000000
   94       -3.019731   1.000000
   95       -3.001224   1.000000
   96       -2.869707   1.000000
   97       -2.847016   1.000000
   98       -2.720809   1.000000
   99       -2.593531   1.000000
  100       -2.491846   1.000000
  101       -2.450908   1.000000
  102       -2.406452   1.000000
  103       -2.349358   1.000000
  104       -2.076098   1.000000
  105       -2.068432   1.000000
  106       -2.058327   1.000000
  107       -1.996579   1.000000
  108       -1.976461   1.000000
  109       -1.944107   1.000000
  110       -1.928114   1.000000
  111       -1.756041   1.000000
  112       -1.714772   1.000000
  113       -1.660277   1.000000
  114       -1.627865   1.000000
  115       -1.550745   1.000000
  116       -1.517069   1.000000
  117       -1.439508   1.000000
  118       -1.434542   1.000000
  119       -1.334352   1.000000
  120       -1.254269   1.000000
  121       -1.242959   1.000000
  122       -1.122088   1.000000
  123       -0.915674   1.000000
  124       -0.856602   1.000000
  125       -0.782227   1.000000
  126       -0.737927   1.000000
  127       -0.541016   1.000000
  128       -0.272739   1.000000
  129       -0.259433   1.000000
  130       -0.237393   1.000000
  131       -0.205104   1.000000
  132       -0.174811   1.000000
  133        0.007224   1.000000
  134        0.106585   1.000000
  135        0.221202   1.000000
  136        0.356041   1.000000
  137        0.439520   1.000007
  138        0.600610   1.013766
  139        0.604914   1.015430
  140        0.611276   1.018075
  141        0.668753   1.034096
  142        0.801778   0.339098
  143        0.873106  -0.012660
  144        0.904725  -0.035458
  145        0.949954  -0.019610
  146        0.984882  -0.007364
  147        0.992409  -0.005702
  148        1.001938  -0.004040
  149        1.016617  -0.002273
  150        1.050150  -0.000504
  151        1.197758  -0.000000
  152        1.399536  -0.000000
  153        1.405974  -0.000000
  154        1.512231  -0.000000
  155        1.519989  -0.000000
  156        1.579780  -0.000000
  157        1.590783  -0.000000
  158        1.635114  -0.000000
  159        1.657546  -0.000000
  160        1.663695  -0.000000
  161        1.722994  -0.000000
  162        1.775673  -0.000000
  163        1.785586  -0.000000
  164        1.817750  -0.000000
  165        1.848993  -0.000000
  166        1.900715  -0.000000
  167        1.996979  -0.000000
  168        2.036229  -0.000000
  169        2.047774  -0.000000
  170        2.091091  -0.000000
  171        2.128149  -0.000000
  172        2.159677  -0.000000
  173        2.189184  -0.000000
  174        2.226671  -0.000000
  175        2.272173  -0.000000
  176        2.361168  -0.000000
  177        2.424652  -0.000000
  178        2.479431  -0.000000
  179        2.689017  -0.000000
  180        2.749763  -0.000000
  181        3.035150  -0.000000
  182        3.358729  -0.000000
  183        3.587180   0.000000
  184        3.697271   0.000000

  0.4000000E+00  0.3742002E-15  0.1262379E-14  0.4444444E-01
    1      -13.516761   1.000000
    2      -13.280435   1.000000
    3      -12.380458   1.000000
    4      -12.168355   1.000000
    5      -11.538113   1.000000
    6      -11.491897   1.000000
    7      -11.436969   1.000000
    8      -11.081054   1.000000
    9      -10.990395   1.000000
   10      -10.984175   1.000000
   11      -10.890246   1.000000
   12      -10.871113   1.000000
   13      -10.839264   1.000000
   14      -10.695745   1.000000
   15      -10.607783   1.000000
   16      -10.546397   1.000000
   17      -10.404948   1.000000
   18      -10.299341   1.000000
   19      -10.117405   1.000000
   20      -10.072759   1.000000
   21       -9.659907   1.000000
   22       -9.537836   1.000000
   23       -9.224383   1.000000
   24       -9.212816   1.000000
   25       -9.016912   1.000000
   26       -8.769168   1.000000
   27       -8.293609   1.000000
   28       -8.198690   1.000000
   29       -8.192145   1.000000
   30       -7.937084   1.000000
   31       -7.931329   1.000000
   32       -7.892840   1.000000
   33       -7.619281   1.000000
   34       -7.542670   1.000000
   35       -7.453175   1.000000
   36       -7.306562   1.000000
   37       -7.162557   1.000000
   38       -7.148163   1.000000
   39       -6.938526   1.000000
   40       -6.848819   1.000000
   41       -6.725924   1.000000
   42       -6.440167   1.000000
   43       -6.280376   1.000000
   44       -6.268104   1.000000
   45       -6.194831   1.000000
   46       -6.180121   1.000000
   47       -6.055302   1.000000
   48       -5.923837   1.000000
   49       -5.849966   1.000000
   50       -5.821334   1.000000
   51       -5.693198   1.000000
   52       -5.688185   1.000000
   53       -5.575016   1.000000
   54       -5.560399   1.000000
   55       -5.389848   1.000000
   56       -5.359228   1.000000
   57       -5.339251   1.000000
   58       -5.203820   1.000000
   59       -5.197077   1.000000
   60       -5.053232   1.000000
   61       -5.013247   1.000000
   62       -4.966059   1.000000
   63       -4.856676   1.000000
   64       -4.755999   1.000000
   65       -4.636479   1.000000
   66       -4.568601   1.000000
   67       -4.566666   1.000000
   68       -4.488126   1.000000
   69       -4.423796   1.000000
   70       -4.339025   1.000000
   71       -4.332749   1.000000
   72       -4.150985   1.000000
   73       -4.115202   1.000000
   74       -3.992203   1.000000
   75       -3.956554   1.000000
   76       -3.857629   1.000000
   77       -3.827322   1.000000
   78       -3.810805   1.000000
   79       -3.664063   1.000000
   80       -3.651344   1.000000
   81       -3.644150   1.000000
   82       -3.591346   1.000000
   83       -3.581359   1.000000
   84       -3.527178   1.000000
   85       -3.522991   1.000000
   86       -3.455398   1.000000
   87       -3.395236   1.000000
   88       -3.349502   1.000000
   89       -3.348639   1.000000
   90       -3.213417   1.000000
   91       -3.184798   1.000000
   92       -3.138798   1.000000
   93       -3.129897   1.000000
   94       -3.070738   1.000000
   95       -3.067614   1.000000
   96       -2.919742   1.000000
   97       -2.916456   1.000000
   98       -2.749452   1.000000
   99       -2.748287   1.000000
  100       -2.623012   1.000000
  101       -2.499395   1.000000
  102       -2.337620   1.000000
  103       -2.162650   1.000000
  104       -2.126636   1.000000
  105       -2.080937   1.000000
  106       -2.019177   1.000000
  107       -1.984576   1.000000
  108       -1.971062   1.000000
  109       -1.812025   1.000000
  110       -1.766936   1.000000
  111       -1.756430   1.000000
  112       -1.718595   1.000000
  113       -1.606647   1.000000
  114       -1.552886   1.000000
  115       -1.510984   1.000000
  116       -1.498901   1.000000
  117       -1.419993   1.000000
  118       -1.325606   1.000000
  119       -1.214674   1.000000
  120       -1.189955   1.000000
  121       -1.113364   1.000000
  122       -1.053171   1.000000
  123       -1.020579   1.000000
  124       -0.922807   1.000000
  125       -0.850807   1.000000
  126       -0.821725   1.000000
  127       -0.595764   1.000000
  128       -0.594330   1.000000
  129       -0.592613   1.000000
  130       -0.343122   1.000000
  131       -0.259963   1.000000
  132       -0.229950   1.000000
  133        0.031056   1.000000
  134        0.134762   1.000000
  135        0.147498   1.000000
  136        0.282038   1.000000
  137        0.350989   1.000000
  138        0.530035   1.001043
  139        0.556950   1.003234
  140        0.582136   1.007935
  141        0.644094   1.032385
  142        0.767448   0.624694
  143        0.879841  -0.022306
  144        0.972524  -0.010843
  145        0.980810  -0.008404
  146        0.985618  -0.007187
  147        1.023866  -0.001679
  148        1.057001  -0.000359
  149        1.106944  -0.000022
  150        1.226362  -0.000000
  151        1.258515  -0.000000
  152        1.363297  -0.000000
  153        1.405765  -0.000000
  154        1.530593  -0.000000
  155        1.612257  -0.000000
  156        1.656184  -0.000000
  157        1.676615  -0.000000
  158        1.705872  -0.000000
  159        1.753025  -0.000000
  160        1.788434  -0.000000
  161        1.822438  -0.000000
  162        1.848944  -0.000000
  163        1.860694  -0.000000
  164        1.880594  -0.000000
  165        1.920831  -0.000000
  166        1.930930  -0.000000
  167        1.943887  -0.000000
  168        1.963792  -0.000000
  169        1.966825  -0.000000
  170        2.037485  -0.000000
  171        2.091853  -0.000000
  172        2.132182  -0.000000
  173        2.166244  -0.000000
  174        2.288188  -0.000000
  175        2.324214  -0.000000
  176        2.388327  -0.000000
  177        2.432846  -0.000000
  178        2.551130  -0.000000
  179        2.788159  -0.000000
  180        2.806453  -0.000000
  181        3.135122  -0.000000
  182        3.239688  -0.000000
  183        3.445333  -0.000000
  184        3.562754   0.000000

  0.3742002E-15  0.1111111E+00  0.1262379E-14  0.4444444E-01
    1      -13.662341   1.000000
    2      -12.565317   1.000000
    3      -12.515591   1.000000
    4      -12.465326   1.000000
    5      -11.639856   1.000000
    6      -11.581031   1.000000
    7      -11.345692   1.000000
    8      -11.338396   1.000000
    9      -11.181832   1.000000
   10      -11.119915   1.000000
   11      -11.060281   1.000000
   12      -10.832976   1.000000
   13      -10.761947   1.000000
   14      -10.566130   1.000000
   15      -10.450502   1.000000
   16      -10.428176   1.000000
   17      -10.363872   1.000000
   18      -10.007931   1.000000
   19       -9.895777   1.000000
   20       -9.774718   1.000000
   21       -9.661658   1.000000
   22       -9.480529   1.000000
   23       -9.415569   1.000000
   24       -9.304648   1.000000
   25       -9.194233   1.000000
   26       -8.688016   1.000000
   27       -8.685208   1.000000
   28       -8.640973   1.000000
   29       -8.224476   1.000000
   30       -8.076608   1.000000
   31       -7.747132   1.000000
   32       -7.634058   1.000000
   33       -7.621924   1.000000
   34       -7.504539   1.000000
   35       -7.486476   1.000000
   36       -7.444419   1.000000
   37       -7.066058   1.000000
   38       -6.790732   1.000000
   39       -6.647158   1.000000
   40       -6.628008   1.000000
   41       -6.411854   1.000000
   42       -6.405110   1.000000
   43       -6.364668   1.000000
   44       -6.343436   1.000000
   45       -6.276949   1.000000
   46       -6.179189   1.000000
   47       -6.134037   1.000000
   48       -6.038564   1.000000
   49       -5.910719   1.000000
   50       -5.883128   1.000000
   51       -5.867126   1.000000
   52       -5.795626   1.000000
   53       -5.743375   1.000000
   54       -5.550491   1.000000
   55       -5.410714   1.000000
   56       -5.354137   1.000000
   57       -5.260118   1.000000
   58       -5.220483   1.000000
   59       -5.198095   1.000000
   60       -5.023224   1.000000
   61       -5.008223   1.000000
   62       -4.977360   1.000000
   63       -4.974194   1.000000
   64       -4.918284   1.000000
   65       -4.682488   1.000000
   66       -4.511831   1.000000
   67       -4.500983   1.000000
   68       -4.390717   1.000000
   69       -4.260705   1.000000
   70       -4.213300   1.000000
   71       -4.204609   1.000000
   72       -4.091152   1.000000
   73       -3.963288   1.000000
   74       -3.958990   1.000000
   75       -3.928397   1.000000
   76       -3.908022   1.000000
   77       -3.899775   1.000000
   78       -3.853029   1.000000
   79       -3.833691   1.000000
   80       -3.790764   1.000000
   81       -3.735216   1.000000
   82       -3.645075   1.000000
   83       -3.637855   1.000000
   84       -3.627269   1.000000
   85       -3.621657   1.000000
   86       -3.533382   1.000000
   87       -3.395953   1.000000
   88       -3.380844   1.000000
   89       -3.268880   1.000000
   90       -3.238578   1.000000
   91       -3.237447   1.000000
   92       -3.211747   1.000000
   93       -3.121407   1.000000
   94       -2.993334   1.000000
   95       -2.921279   1.000000
   96       -2.833903   1.000000
   97       -2.645874   1.000000
   98       -2.633610   1.000000
   99       -2.594869   1.000000
  100       -2.545973   1.000000
  101       -2.373462   1.000000
  102       -2.313681   1.000000
  103       -2.270249   1.000000
  104       -2.257828   1.000000
  105       -2.202248   1.000000
  106       -2.145949   1.000000
  107       -2.090673   1.000000
  108       -1.941125   1.000000
  109       -1.935854   1.000000
  110       -1.877797   1.000000
  111       -1.841728   1.000000
  112       -1.806526   1.000000
  113       -1.665966   1.000000
  114       -1.663705   1.000000
  115       -1.622518   1.000000
  116       -1.590190   1.000000
  117       -1.428456   1.000000
  118       -1.405717   1.000000
  119       -1.347136   1.000000
  120       -1.336033   1.000000
  121       -1.240307   1.000000
  122       -1.219270   1.000000
  123       -0.894215   1.000000
  124       -0.798672   1.000000
  125       -0.786143   1.000000
  126       -0.553885   1.000000
  127       -0.526636   1.000000
  128       -0.418238   1.000000
  129       -0.331763   1.000000
  130       -0.244677   1.000000
  131       -0.033619   1.000000
  132       -0.010373   1.000000
  133        0.058349   1.000000
  134        0.192352   1.000000
  135        0.289748   1.000000
  136        0.501039   1.000255
  137        0.518338   1.000605
  138        0.546695   1.002144
  139        0.580830   1.007605
  140        0.605636   1.015720
  141        0.619919   1.021938
  142        0.621627   1.022725
  143        0.691268   1.013252
  144        0.847598   0.057885
  145        0.870302  -0.007659
  146        0.890552  -0.031670
  147        1.016945  -0.002243
  148        1.058346  -0.000336
  149        1.085935  -0.000076
  150        1.258375  -0.000000
  151        1.284940  -0.000000
  152        1.350682  -0.000000
  153        1.373638  -0.000000
  154        1.427779  -0.000000
  155        1.516543  -0.000000
  156        1.545402  -0.000000
  157        1.579631  -0.000000
  158        1.603888  -0.000000
  159        1.649337  -0.000000
  160        1.731982  -0.000000
  161        1.746259  -0.000000
  162        1.753175  -0.000000
  163        1.785262  -0.000000
  164        1.799588  -0.000000
  165        1.879019  -0.000000
  166        1.882316  -0.000000
  167        1.914364  -0.000000
  168        2.008530  -0.000000
  169        2.031226  -0.000000
  170        2.035136  -0.000000
  171        2.089354  -0.000000
  172        2.114706  -0.000000
  173        2.130195  -0.000000
  174        2.155912  -0.000000
  175        2.215049  -0.000000
  176        2.250034  -0.000000
  177        2.280505  -0.000000
  178        2.308881  -0.000000
  179        2.428810  -0.000000
  180        2.500889  -0.000000
  181        2.582866  -0.000000
  182        2.716204  -0.000000
  183        2.857328  -0.000000
  184        3.336653  -0.000000

  0.2000000E+00  0.1111111E+00  0.1262379E-14  0.8888889E-01
    1      -13.614314   1.000000
    2      -12.917492   1.000000
    3      -12.471968   1.000000
    4      -12.053236   1.000000
    5      -11.828521   1.000000
    6      -11.625442   1.000000
    7      -11.417900   1.000000
    8      -11.094273   1.000000
    9      -11.085206   1.000000
   10      -11.069302   1.000000
   11      -11.033638   1.000000
   12      -10.884695   1.000000
   13      -10.690869   1.000000
   14      -10.584975   1.000000
   15      -10.496990   1.000000
   16      -10.451817   1.000000
   17      -10.420277   1.000000
   18      -10.316260   1.000000
   19       -9.931081   1.000000
   20       -9.866076   1.000000
   21       -9.771209   1.000000
   22       -9.319214   1.000000
   23       -9.285587   1.000000
   24       -9.162183   1.000000
   25       -9.153291   1.000000
   26       -8.987017   1.000000
   27       -8.580432   1.000000
   28       -8.300904   1.000000
   29       -8.205722   1.000000
   30       -8.075662   1.000000
   31       -7.913118   1.000000
   32       -7.675641   1.000000
   33       -7.632232   1.000000
   34       -7.499838   1.000000
   35       -7.408354   1.000000
   36       -7.257178   1.000000
   37       -7.224985   1.000000
   38       -6.850522   1.000000
   39       -6.827712   1.000000
   40       -6.655355   1.000000
   41       -6.553948   1.000000
   42       -6.487672   1.000000
   43       -6.418420   1.000000
   44       -6.348381   1.000000
   45       -6.307816   1.000000
   46       -6.208479   1.000000
   47       -6.035628   1.000000
   48       -6.016560   1.000000
   49       -5.902012   1.000000
   50       -5.781380   1.000000
   51       -5.767453   1.000000
   52       -5.646262   1.000000
   53       -5.592095   1.000000
   54       -5.569341   1.000000
   55       -5.484187   1.000000
   56       -5.274180   1.000000
   57       -5.236925   1.000000
   58       -5.231085   1.000000
   59       -5.189624   1.000000
   60       -5.044677   1.000000
   61       -5.026616   1.000000
   62       -4.978090   1.000000
   63       -4.962475   1.000000
   64       -4.876170   1.000000
   65       -4.825431   1.000000
   66       -4.470700   1.000000
   67       -4.450971   1.000000
   68       -4.353188   1.000000
   69       -4.288699   1.000000
   70       -4.280957   1.000000
   71       -4.241620   1.000000
   72       -4.069059   1.000000
   73       -4.009536   1.000000
   74       -3.981699   1.000000
   75       -3.913209   1.000000
   76       -3.899079   1.000000
   77       -3.876679   1.000000
   78       -3.870482   1.000000
   79       -3.796728   1.000000
   80       -3.771378   1.000000
   81       -3.745623   1.000000
   82       -3.669870   1.000000
   83       -3.656974   1.000000
   84       -3.643732   1.000000
   85       -3.540242   1.000000
   86       -3.486462   1.000000
   87       -3.430593   1.000000
   88       -3.411796   1.000000
   89       -3.277278   1.000000
   90       -3.237739   1.000000
   91       -3.214784   1.000000
   92       -3.162671   1.000000
   93       -3.056441   1.000000
   94       -3.038453   1.000000
   95       -2.983728   1.000000
   96       -2.837348   1.000000
   97       -2.760160   1.000000
   98       -2.721212   1.000000
   99       -2.585467   1.000000
  100       -2.524440   1.000000
  101       -2.484062   1.000000
  102       -2.402738   1.000000
  103       -2.269900   1.000000
  104       -2.190376   1.000000
  105       -2.119184   1.000000
  106       -2.061213   1.000000
  107       -1.985525   1.000000
  108       -1.982027   1.000000
  109       -1.945332   1.000000
  110       -1.904811   1.000000
  111       -1.796080   1.000000
  112       -1.699143   1.000000
  113       -1.627829   1.000000
  114       -1.620176   1.000000
  115       -1.615259   1.000000
  116       -1.562180   1.000000
  117       -1.465981   1.000000
  118       -1.433930   1.000000
  119       -1.377251   1.000000
  120       -1.266195   1.000000
  121       -1.209802   1.000000
  122       -1.175223   1.000000
  123       -0.979746   1.000000
  124       -0.903481   1.000000
  125       -0.775814   1.000000
  126       -0.675935   1.000000
  127       -0.571554   1.000000
  128       -0.521676   1.000000
  129       -0.244639   1.000000
  130       -0.157154   1.000000
  131       -0.104985   1.000000
  132       -0.049673   1.000000
  133        0.037815   1.000000
  134        0.210792   1.000000
  135        0.281788   1.000000
  136        0.328102   1.000000
  137        0.377378   1.000000
  138        0.458854   1.000024
  139        0.542714   1.001816
  140        0.662055   1.035384
  141        0.684351   1.022942
  142        0.754932   0.722757
  143        0.784202   0.484461
  144        0.789579   0.439130
  145        0.849304   0.051272
  146        0.911216  -0.034884
  147        0.935755  -0.026118
  148        1.135104  -0.000004
  149        1.174771  -0.000000
  150        1.222367  -0.000000
  151        1.285296  -0.000000
  152        1.345512  -0.000000
  153        1.394057  -0.000000
  154        1.515781  -0.000000
  155        1.546841  -0.000000
  156        1.617793  -0.000000
  157        1.644349  -0.000000