   49   49    1    1
  0.2046891E+02  0.8733603E-09  0.6079487E-09  0.2183401E-08  0.5000000E-15
   1.0000000000000000E-004
  CAR 
 Name                                    
    185     50    120

  0.3742002E-15  0.3742002E-15  0.1262379E-14  0.1010101E-01
    1      -13.236893   1.000000
    2      -11.870063   1.000000
    3      -11.797392   1.000000
    4      -11.380764   1.000000
    5      -10.616466   1.000000
    6      -10.457633   1.000000
    7      -10.326181   1.000000
    8      -10.247085   1.000000
    9      -10.104175   1.000000
   10       -9.942631   1.000000
   11       -9.930489   1.000000
   12       -9.536839   1.000000
   13       -9.406222   1.000000
   14       -9.397494   1.000000
   15       -8.985191   1.000000
   16       -8.974398   1.000000
   17       -8.050585   1.000000
   18       -7.949617   1.000000
   19       -7.946913   1.000000
   20       -7.662231   1.000000
   21       -7.658093   1.000000
   22       -7.391760   1.000000
   23       -7.351330   1.000000
   24       -7.269448   1.000000
   25       -7.243147   1.000000
   26       -7.178449   1.000000
   27       -6.513565   1.000000
   28       -6.117140   1.000000
   29       -5.638834   1.000000
   30       -5.576121   1.000000
   31       -5.539649   1.000000
   32       -5.248584   1.000000
   33       -4.956479   1.000000
   34       -4.932176   1.000000
   35       -4.843912   1.000000
   36       -4.633027   1.000000
   37       -4.531145   1.000000
   38       -4.485917   1.000000
   39       -4.385132   1.000000
   40       -4.228535   1.000000
   41       -4.170621   1.000000
   42       -4.115024   1.000000
   43       -4.023083   1.000000
   44       -3.955733   1.000000
   45       -3.860688   1.000000
   46       -3.781916   1.000000
   47       -3.748602   1.000000
   48       -3.700176   1.000000
   49       -3.688214   1.000000
   50       -3.609151   1.000000
   51       -3.606714   1.000000
   52       -3.388865   1.000000
   53       -3.241597   1.000000
   54       -3.168151   1.000000
   55       -3.141365   1.000000
   56       -3.051347   1.000000
   57       -3.027103   1.000000
   58       -2.964606   1.000000
   59       -2.803679   1.000000
   60       -2.737260   1.000000
   61       -2.718727   1.000000
   62       -2.688729   1.000000
   63       -2.563218   1.000000
   64       -2.514319   1.000000
   65       -2.462419   1.000000
   66       -2.372582   1.000000
   67       -2.339527   1.000000
   68       -2.268542   1.000000
   69       -2.219949   1.000000
   70       -2.150923   1.000000
   71       -1.758636   1.000000
   72       -1.653385   1.000000
   73       -1.645778   1.000000
   74       -1.470775   1.000000
   75       -1.402315   1.000000
   76       -1.371370   1.000000
   77       -1.356889   1.000000
   78       -1.211652   1.000000
   79       -1.160130   1.000000
   80       -1.088939   1.000000
   81       -0.983413   1.000000
   82       -0.748124   1.000000
   83       -0.565381   1.000000
   84       -0.320219   1.000000
   85       -0.289617   1.000000
   86       -0.062354   1.000000
   87        0.028741   1.000000
   88        0.045573   1.000000
   89        0.081104   1.000000
   90        0.500110   1.005972
   91        0.502718   1.006530
   92        0.746511   0.204805
   93        0.823463  -0.034407
   94        0.852153  -0.030495
   95        0.927613  -0.004160
   96        0.978779  -0.000454
   97        1.108361  -0.000000
   98        1.190716  -0.000000
   99        1.305388  -0.000000
  100        1.340463  -0.000000
  101        1.351046  -0.000000
  102        1.437696  -0.000000
  103        1.468270  -0.000000
  104        1.497520  -0.000000
  105        1.509126  -0.000000
  106        1.862825  -0.000000
  107        1.880617  -0.000000
  108        1.932104  -0.000000
  109        1.942060  -0.000000
  110        1.952827  -0.000000
  111        2.015302  -0.000000
  112        2.065767  -0.000000
  113        2.099779  -0.000000
  114        2.132572  -0.000000
  115        2.225012  -0.000000
  116        2.274538  -0.000000
  117        2.343875  -0.000000
  118        2.560471  -0.000000
  119        2.605911  -0.000000
  120        5.098564   0.000000

  0.1111111E+00  0.3694577E-15  0.1266495E-14  0.2020202E-01
    1      -13.211842   1.000000
    2      -11.924024   1.000000
    3      -11.848223   1.000000
    4      -11.303491   1.000000
    5      -10.606171   1.000000
    6      -10.485710   1.000000
    7      -10.314680   1.000000
    8      -10.249035   1.000000
    9      -10.105916   1.000000
   10       -9.934468   1.000000
   11       -9.921861   1.000000
   12       -9.539153   1.000000
   13       -9.407499   1.000000
   14       -9.400816   1.000000
   15       -8.967745   1.000000
   16       -8.956336   1.000000
   17       -8.039081   1.000000
   18       -7.950757   1.000000
   19       -7.941378   1.000000
   20       -7.673327   1.000000
   21       -7.669654   1.000000
   22       -7.446120   1.000000
   23       -7.435567   1.000000
   24       -7.247694   1.000000
   25       -7.242639   1.000000
   26       -7.114685   1.000000
   27       -6.599753   1.000000
   28       -6.131643   1.000000
   29       -5.606176   1.000000
   30       -5.547628   1.000000
   31       -5.452623   1.000000
   32       -5.229689   1.000000
   33       -4.979883   1.000000
   34       -4.930116   1.000000
   35       -4.841658   1.000000
   36       -4.801058   1.000000
   37       -4.489687   1.000000
   38       -4.462474   1.000000
   39       -4.278074   1.000000
   40       -4.240875   1.000000
   41       -4.229308   1.000000
   42       -4.012403   1.000000
   43       -3.987346   1.000000
   44       -3.943005   1.000000
   45       -3.812366   1.000000
   46       -3.795751   1.000000
   47       -3.776274   1.000000
   48       -3.692853   1.000000
   49       -3.668992   1.000000
   50       -3.595655   1.000000
   51       -3.586012   1.000000
   52       -3.379223   1.000000
   53       -3.231280   1.000000
   54       -3.169074   1.000000
   55       -3.121447   1.000000
   56       -3.072284   1.000000
   57       -3.052600   1.000000
   58       -2.993601   1.000000
   59       -2.830876   1.000000
   60       -2.731952   1.000000
   61       -2.716894   1.000000
   62       -2.666414   1.000000
   63       -2.573613   1.000000
   64       -2.557737   1.000000
   65       -2.444046   1.000000
   66       -2.403080   1.000000
   67       -2.308141   1.000000
   68       -2.238413   1.000000
   69       -2.224838   1.000000
   70       -2.132686   1.000000
   71       -1.791677   1.000000
   72       -1.731612   1.000000
   73       -1.621044   1.000000
   74       -1.502229   1.000000
   75       -1.446692   1.000000
   76       -1.392961   1.000000
   77       -1.382109   1.000000
   78       -1.254626   1.000000
   79       -1.181439   1.000000
   80       -1.112812   1.000000
   81       -0.907754   1.000000
   82       -0.657395   1.000000
   83       -0.606020   1.000000
   84       -0.355642   1.000000
   85       -0.320795   1.000000
   86       -0.067990   1.000000
   87        0.026578   1.000000
   88        0.095371   1.000000
   89        0.148863   1.000000
   90        0.455106   1.000979
   91        0.462841   1.001383
   92        0.720537   0.401649
   93        0.810880  -0.027129
   94        0.950494  -0.001667
   95        0.963524  -0.000936
   96        1.010343  -0.000086
   97        1.050449  -0.000008
   98        1.211509  -0.000000
   99        1.263851  -0.000000
  100        1.369149  -0.000000
  101        1.379608  -0.000000
  102        1.454555  -0.000000
  103        1.488076  -0.000000
  104        1.511032  -0.000000
  105        1.532200  -0.000000
  106        1.885395  -0.000000
  107        1.898616  -0.000000
  108        1.927065  -0.000000
  109        1.934415  -0.000000
  110        1.974319  -0.000000
  111        2.026274  -0.000000
  112        2.059108  -0.000000
  113        2.112106  -0.000000
  114        2.156689  -0.000000
  115        2.243147  -0.000000
  116        2.268785  -0.000000
  117        2.394040  -0.000000
  118        2.522167  -0.000000
  119        2.593568  -0.000000
  120        2.699359  -0.000000

  0.2222222E+00  0.3681327E-15  0.1265439E-14  0.2020202E-01
    1      -13.137337   1.000000
    2      -12.161162   1.000000
    3      -11.783950   1.000000
    4      -11.232458   1.000000
    5      -10.578572   1.000000
    6      -10.528101   1.000000
    7      -10.289442   1.000000
    8      -10.253944   1.000000
    9      -10.095748   1.000000
   10       -9.917420   1.000000
   11       -9.898560   1.000000
   12       -9.569954   1.000000
   13       -9.420945   1.000000
   14       -9.401744   1.000000
   15       -8.915215   1.000000
   16       -8.903580   1.000000
   17       -7.997665   1.000000
   18       -7.960739   1.000000
   19       -7.918407   1.000000
   20       -7.726551   1.000000
   21       -7.721117   1.000000
   22       -7.538917   1.000000
   23       -7.528540   1.000000
   24       -7.273017   1.000000
   25       -7.259752   1.000000
   26       -6.957606   1.000000
   27       -6.806011   1.000000
   28       -6.111510   1.000000
   29       -5.550078   1.000000
   30       -5.515228   1.000000
   31       -5.373085   1.000000
   32       -5.219008   1.000000
   33       -5.119982   1.000000
   34       -4.905802   1.000000
   35       -4.801739   1.000000
   36       -4.789923   1.000000
   37       -4.500783   1.000000
   38       -4.343069   1.000000
   39       -4.255684   1.000000
   40       -4.226788   1.000000
   41       -4.172456   1.000000
   42       -4.006531   1.000000
   43       -3.916921   1.000000
   44       -3.891388   1.000000
   45       -3.855391   1.000000
   46       -3.749231   1.000000
   47       -3.707234   1.000000
   48       -3.676790   1.000000
   49       -3.609654   1.000000
   50       -3.575301   1.000000
   51       -3.524831   1.000000
   52       -3.373081   1.000000
   53       -3.231457   1.000000
   54       -3.171405   1.000000
   55       -3.139886   1.000000
   56       -3.122197   1.000000
   57       -3.055167   1.000000
   58       -2.998455   1.000000
   59       -2.854158   1.000000
   60       -2.746013   1.000000
   61       -2.714045   1.000000
   62       -2.650583   1.000000
   63       -2.608603   1.000000
   64       -2.560897   1.000000
   65       -2.476771   1.000000
   66       -2.456309   1.000000
   67       -2.287517   1.000000
   68       -2.241377   1.000000
   69       -2.126556   1.000000
   70       -2.083934   1.000000
   71       -1.914481   1.000000
   72       -1.849458   1.000000
   73       -1.604740   1.000000
   74       -1.594082   1.000000
   75       -1.515355   1.000000
   76       -1.463089   1.000000
   77       -1.433607   1.000000
   78       -1.341680   1.000000
   79       -1.221517   1.000000
   80       -1.138490   1.000000
   81       -0.789460   1.000000
   82       -0.719509   1.000000
   83       -0.452467   1.000000
   84       -0.442614   1.000000
   85       -0.389875   1.000000
   86       -0.026945   1.000000
   87        0.060067   1.000000
   88        0.137347   1.000000
   89        0.334168   1.000001
   90        0.356831   1.000004
   91        0.370945   1.000010
   92        0.638392   0.961382
   93        0.887564  -0.014922
   94        0.941502  -0.002424
   95        1.001111  -0.000143
   96        1.036260  -0.000019
   97        1.145908  -0.000000
   98        1.222662  -0.000000
   99        1.284794  -0.000000
  100        1.361354  -0.000000
  101        1.433191  -0.000000
  102        1.479488  -0.000000
  103        1.517814  -0.000000
  104        1.568249  -0.000000
  105        1.611728  -0.000000
  106        1.860004  -0.000000
  107        1.912141  -0.000000
  108        1.937524  -0.000000
  109        1.967588  -0.000000
  110        2.015327  -0.000000
  111        2.049306  -0.000000
  112        2.071647  -0.000000
  113        2.112852  -0.000000
  114        2.190792  -0.000000
  115        2.267926  -0.000000
  116        2.332799  -0.000000
  117        2.379066  -0.000000
  118        2.502816  -0.000000
  119        2.572680  -0.000000
  120        3.055279  -0.000000

  0.3333333E+00  0.3672355E-15  0.1308213E-14  0.2020202E-01
    1      -13.015391   1.000000
    2      -12.411197   1.000000
    3      -11.681273   1.000000
    4      -11.276410   1.000000
    5      -10.543647   1.000000
    6      -10.529391   1.000000
    7      -10.273195   1.000000
    8      -10.258954   1.000000
    9      -10.045121   1.000000
   10       -9.900085   1.000000
   11       -9.871818   1.000000
   12       -9.658291   1.000000
   13       -9.428579   1.000000
   14       -9.407355   1.000000
   15       -8.835482   1.000000
   16       -8.826275   1.000000
   17       -8.013842   1.000000
   18       -8.009235   1.000000
   19       -7.836973   1.000000
   20       -7.795801   1.000000
   21       -7.776374   1.000000
   22       -7.586302   1.000000
   23       -7.540366   1.000000
   24       -7.326785   1.000000
   25       -7.316073   1.000000
   26       -7.054579   1.000000
   27       -6.739327   1.000000
   28       -5.991895   1.000000
   29       -5.756503   1.000000
   30       -5.505292   1.000000
   31       -5.491841   1.000000
   32       -5.256275   1.000000
   33       -4.928568   1.000000
   34       -4.834734   1.000000
   35       -4.726173   1.000000
   36       -4.704501   1.000000
   37       -4.414214   1.000000
   38       -4.369547   1.000000
   39       -4.180452   1.000000
   40       -4.132566   1.000000
   41       -4.108086   1.000000
   42       -4.079106   1.000000
   43       -3.968134   1.000000
   44       -3.912670   1.000000
   45       -3.840221   1.000000
   46       -3.680728   1.000000
   47       -3.672906   1.000000
   48       -3.596807   1.000000
   49       -3.578487   1.000000
   50       -3.517843   1.000000
   51       -3.445374   1.000000
   52       -3.394573   1.000000
   53       -3.302623   1.000000
   54       -3.210966   1.000000
   55       -3.137633   1.000000
   56       -3.109613   1.000000
   57       -2.975187   1.000000
   58       -2.963474   1.000000
   59       -2.870999   1.000000
   60       -2.750659   1.000000
   61       -2.726776   1.000000
   62       -2.682272   1.000000
   63       -2.661891   1.000000
   64       -2.554699   1.000000
   65       -2.513366   1.000000
   66       -2.438389   1.000000
   67       -2.345353   1.000000
   68       -2.211536   1.000000
   69       -2.113722   1.000000
   70       -2.038465   1.000000
   71       -2.018421   1.000000
   72       -1.899378   1.000000
   73       -1.708850   1.000000
   74       -1.695531   1.000000
   75       -1.543299   1.000000
   76       -1.509427   1.000000
   77       -1.450432   1.000000
   78       -1.432962   1.000000
   79       -1.251626   1.000000
   80       -1.147627   1.000000
   81       -0.945372   1.000000
   82       -0.589100   1.000000
   83       -0.552645   1.000000
   84       -0.504101   1.000000
   85       -0.195704   1.000000
   86        0.023902   1.000000
   87        0.145808   1.000000
   88        0.172320   1.000000
   89        0.248256   1.000000
   90        0.278965   1.000000
   91        0.527055   1.013760
   92        0.574453   1.033612
   93        0.836295  -0.035099
   94        0.928767  -0.003985
   95        1.032606  -0.000023
   96        1.086325  -0.000001
   97        1.169442  -0.000000
   98        1.209660  -0.000000
   99        1.320206  -0.000000
  100        1.448274  -0.000000
  101        1.539638  -0.000000
  102        1.582461  -0.000000
  103        1.603243  -0.000000
  104        1.620106  -0.000000
  105        1.673777  -0.000000
  106        1.738002  -0.000000
  107        1.891882  -0.000000
  108        1.946721  -0.000000
  109        1.987350  -0.000000
  110        2.050178  -0.000000
  111        2.101197  -0.000000
  112        2.130232  -0.000000
  113        2.148597  -0.000000
  114        2.198495  -0.000000
  115        2.268025  -0.000000
  116        2.369168  -0.000000
  117        2.392886  -0.000000
  118        2.450609  -0.000000
  119        2.471160  -0.000000
  120        2.842776  -0.000000

  0.4444444E+00  0.3795814E-15  0.1235432E-14  0.2020202E-01
    1      -12.849641   1.000000
    2      -12.645145   1.000000
    3      -11.548513   1.000000
    4      -11.402129   1.000000
    5      -10.517270   1.000000
    6      -10.512393   1.000000
    7      -10.271285   1.000000
    8      -10.261438   1.000000
    9       -9.957086   1.000000
   10       -9.898927   1.000000
   11       -9.844070   1.000000
   12       -9.773604   1.000000
   13       -9.427785   1.000000
   14       -9.416991   1.000000
   15       -8.763699   1.000000
   16       -8.759086   1.000000
   17       -8.093473   1.000000
   18       -8.088343   1.000000
   19       -7.804709   1.000000
   20       -7.800753   1.000000
   21       -7.698556   1.000000
   22       -7.625142   1.000000
   23       -7.472801   1.000000
   24       -7.372862   1.000000
   25       -7.364708   1.000000
   26       -7.289034   1.000000
   27       -6.465636   1.000000
   28       -6.132346   1.000000
   29       -5.777288   1.000000
   30       -5.520844   1.000000
   31       -5.483271   1.000000
   32       -5.476737   1.000000
   33       -4.734262   1.000000
   34       -4.696736   1.000000
   35       -4.623319   1.000000
   36       -4.581924   1.000000
   37       -4.454210   1.000000
   38       -4.394642   1.000000
   39       -4.178926   1.000000
   40       -4.163595   1.000000
   41       -4.110214   1.000000
   42       -4.022825   1.000000
   43       -3.981681   1.000000
   44       -3.934499   1.000000
   45       -3.745005   1.000000
   46       -3.716670   1.000000
   47       -3.696492   1.000000
   48       -3.631022   1.000000
   49       -3.501614   1.000000
   50       -3.454236   1.000000
   51       -3.427754   1.000000
   52       -3.394733   1.000000
   53       -3.317525   1.000000
   54       -3.242474   1.000000
   55       -3.102160   1.000000
   56       -3.057712   1.000000
   57       -2.972409   1.000000
   58       -2.923948   1.000000
   59       -2.833055   1.000000
   60       -2.769980   1.000000
   61       -2.757437   1.000000
   62       -2.705465   1.000000
   63       -2.672027   1.000000
   64       -2.638192   1.000000
   65       -2.454230   1.000000
   66       -2.402955   1.000000
   67       -2.359867   1.000000
   68       -2.273655   1.000000
   69       -2.190541   1.000000
   70       -2.077225   1.000000
   71       -2.024652   1.000000
   72       -1.852337   1.000000
   73       -1.777192   1.000000
   74       -1.710513   1.000000
   75       -1.601557   1.000000
   76       -1.559123   1.000000
   77       -1.537000   1.000000
   78       -1.324505   1.000000
   79       -1.266915   1.000000
   80       -1.188141   1.000000
   81       -1.080551   1.000000
   82       -0.633571   1.000000
   83       -0.620722   1.000000
   84       -0.383710   1.000000
   85       -0.045908   1.000000
   86        0.002463   1.000000
   87        0.078195   1.000000
   88        0.197789   1.000000
   89        0.247070   1.000000
   90        0.395243   1.000043
   91        0.449101   1.000742
   92        0.674365   0.773324
   93        0.820593  -0.033423
   94        0.826717  -0.035113
   95        1.014211  -0.000069
   96        1.082377  -0.000001
   97        1.187372  -0.000000
   98        1.265930  -0.000000
   99        1.408744  -0.000000
  100        1.454336  -0.000000
  101        1.560299  -0.000000
  102        1.583545  -0.000000
  103        1.651380  -0.000000
  104        1.664124  -0.000000
  105        1.739332  -0.000000
  106        1.849484  -0.000000
  107        1.882021  -0.000000
  108        1.927468  -0.000000
  109        2.031612  -0.000000
  110        2.071454  -0.000000
  111        2.171928  -0.000000
  112        2.193255  -0.000000
  113        2.221472  -0.000000
  114        2.259750  -0.000000
  115        2.335129  -0.000000
  116        2.498440  -0.000000
  117        2.615381  -0.000000
  118        2.687631  -0.000000
  119        2.874499  -0.000000
  120        4.311870   0.000000

  0.3742002E-15  0.9090909E-01  0.1339361E-14  0.2020202E-01
    1      -13.204260   1.000000
    2      -11.841403   1.000000
    3      -11.805819   1.000000
    4      -11.341750   1.000000
    5      -10.602088   1.000000
    6      -10.515509   1.000000
    7      -10.466906   1.000000
    8      -10.442258   1.000000
    9      -10.184793   1.000000
   10       -9.881001   1.000000
   11       -9.793801   1.000000
   12       -9.499304   1.000000
   13       -9.403346   1.000000
   14       -9.387657   1.000000
   15       -8.930235   1.000000
   16       -8.926053   1.000000
   17       -8.071436   1.000000
   18       -7.985789   1.000000
   19       -7.960241   1.000000
   20       -7.844350   1.000000
   21       -7.797362   1.000000
   22       -7.231394   1.000000
   23       -7.154017   1.000000
   24       -7.134551   1.000000
   25       -7.063882   1.000000
   26       -7.016367   1.000000
   27       -6.556571   1.000000
   28       -6.094189   1.000000
   29       -5.662747   1.000000
   30       -5.570641   1.000000
   31       -5.518782   1.000000
   32       -5.271228   1.000000
   33       -5.105633   1.000000
   34       -4.841361   1.000000
   35       -4.785699   1.000000
   36       -4.667616   1.000000
   37       -4.508165   1.000000
   38       -4.465963   1.000000
   39       -4.358439   1.000000
   40       -4.273472   1.000000
   41       -4.247837   1.000000
   42       -4.141819   1.000000
   43       -4.132628   1.000000
   44       -3.974698   1.000000
   45       -3.940734   1.000000
   46       -3.882273   1.000000
   47       -3.757350   1.000000
   48       -3.688491   1.000000
   49       -3.668090   1.000000
   50       -3.656346   1.000000
   51       -3.561391   1.000000
   52       -3.389949   1.000000
   53       -3.326925   1.000000
   54       -3.274049   1.000000
   55       -3.165853   1.000000
   56       -3.034148   1.000000
   57       -3.005257   1.000000
   58       -2.939982   1.000000
   59       -2.819401   1.000000
   60       -2.736286   1.000000
   61       -2.687533   1.000000
   62       -2.661819   1.000000
   63       -2.595089   1.000000
   64       -2.493494   1.000000
   65       -2.470214   1.000000
   66       -2.375733   1.000000
   67       -2.343096   1.000000
   68       -2.243075   1.000000
   69       -2.186245   1.000000
   70       -2.105423   1.000000
   71       -1.891172   1.000000
   72       -1.731716   1.000000
   73       -1.640283   1.000000
   74       -1.431138   1.000000
   75       -1.408512   1.000000
   76       -1.370653   1.000000
   77       -1.335904   1.000000
   78       -1.204060   1.000000
   79       -1.119301   1.000000
   80       -1.073806   1.000000
   81       -0.958938   1.000000
   82       -0.751429   1.000000
   83       -0.507106   1.000000
   84       -0.372635   1.000000
   85       -0.275555   1.000000
   86       -0.118952   1.000000
   87       -0.056554   1.000000
   88       -0.001103   1.000000
   89        0.077381   1.000000
   90        0.400820   1.000059
   91        0.535552   1.017144
   92        0.693729   0.626162
   93        0.761339   0.116415
   94        0.794559  -0.003295
   95        0.854005  -0.029738
   96        0.989882  -0.000259
   97        1.102551  -0.000000
   98        1.172975  -0.000000
   99        1.218306  -0.000000
  100        1.320908  -0.000000
  101        1.413254  -0.000000
  102        1.499690  -0.000000
  103        1.533343  -0.000000
  104        1.572769  -0.000000
  105        1.672770  -0.000000
  106        1.827283  -0.000000
  107        1.865730  -0.000000
  108        1.899910  -0.000000
  109        1.951487  -0.000000
  110        1.973111  -0.000000
  111        2.040039  -0.000000
  112        2.059470  -0.000000
  113        2.101152  -0.000000
  114        2.144569  -0.000000
  115        2.262103  -0.000000
  116        2.299958  -0.000000
  117        2.357841  -0.000000
  118        2.500348  -0.000000
  119        2.618724  -0.000000
  120        5.276285   0.000000

  0.1111111E+00  0.9090909E-01  0.1250028E-14  0.2020202E-01
    1      -13.158903   1.000000
    2      -11.996240   1.000000
    3      -11.802207   1.000000
    4      -11.242499   1.000000
    5      -10.583487   1.000000
    6      -10.578718   1.000000
    7      -10.483713   1.000000
    8      -10.408952   1.000000
    9      -10.131941   1.000000
   10       -9.874231   1.000000
   11       -9.766535   1.000000
   12       -9.512456   1.000000
   13       -9.449267   1.000000
   14       -9.414836   1.000000
   15       -8.899940   1.000000
   16       -8.856411   1.000000
   17       -8.100528   1.000000
   18       -7.974668   1.000000
   19       -7.925528   1.000000
   20       -7.921963   1.000000
   21       -7.784341   1.000000
   22       -7.385152   1.000000
   23       -7.197403   1.000000
   24       -7.060483   1.000000
   25       -7.025326   1.000000
   26       -6.995546   1.000000
   27       -6.682279   1.000000
   28       -6.106614   1.000000
   29       -5.669367   1.000000
   30       -5.505581   1.000000
   31       -5.341130   1.000000
   32       -5.250231   1.000000
   33       -5.146927   1.000000
   34       -4.988018   1.000000
   35       -4.808669   1.000000
   36       -4.676440   1.000000
   37       -4.476565   1.000000
   38       -4.417172   1.000000
   39       -4.313965   1.000000
   40       -4.267104   1.000000
   41       -4.263748   1.000000
   42       -4.133591   1.000000
   43       -4.019063   1.000000
   44       -3.929346   1.000000
   45       -3.908186   1.000000
   46       -3.802114   1.000000
   47       -3.741315   1.000000
   48       -3.694442   1.000000
   49       -3.674394   1.000000
   50       -3.616017   1.000000
   51       -3.551148   1.000000
   52       -3.402263   1.000000
   53       -3.299793   1.000000
   54       -3.266590   1.000000
   55       -3.105558   1.000000
   56       -3.093203   1.000000
   57       -3.024372   1.000000
   58       -2.922267   1.000000
   59       -2.863341   1.000000
   60       -2.756585   1.000000
   61       -2.701059   1.000000
   62       -2.657191   1.000000
   63       -2.631001   1.000000
   64       -2.533696   1.000000
   65       -2.474699   1.000000
   66       -2.401200   1.000000
   67       -2.329737   1.000000
   68       -2.190384   1.000000
   69       -2.154784   1.000000
   70       -2.110687   1.000000
   71       -1.949964   1.000000
   72       -1.804973   1.000000
   73       -1.603509   1.000000
   74       -1.528216   1.000000
   75       -1.495232   1.000000
   76       -1.410598   1.000000
   77       -1.401198   1.000000
   78       -1.253206   1.000000
   79       -1.157803   1.000000
   80       -1.052013   1.000000
   81       -0.850994   1.000000
   82       -0.758300   1.000000
   83       -0.502789   1.000000
   84       -0.465222   1.000000
   85       -0.291601   1.000000
   86       -0.113122   1.000000
   87       -0.035527   1.000000
   88        0.134947   1.000000
   89        0.164865   1.000000
   90        0.352002   1.000003
   91        0.482307   1.003098
   92        0.686178   0.686326
   93        0.784560   0.021688
   94        0.860853  -0.026740
   95        0.956171  -0.001303
   96        0.990891  -0.000246
   97        1.077839  -0.000001
   98        1.151784  -0.000000
   99        1.173787  -0.000000
  100        1.376666  -0.000000
  101        1.486655  -0.000000
  102        1.517551  -0.000000
  103        1.529505  -0.000000
  104        1.626985  -0.000000
  105        1.643849  -0.000000
  106        1.824248  -0.000000
  107        1.910768  -0.000000
  108        1.921670  -0.000000
  109        1.931056  -0.000000
  110        1.966470  -0.000000
  111        2.045109  -0.000000
  112        2.066251  -0.000000
  113        2.129852  -0.000000
  114        2.169003  -0.000000
  115        2.228152  -0.000000
  116        2.290725  -0.000000
  117        2.347435  -0.000000
  118        2.457159  -0.000000
  119        2.621369  -0.000000
  120        2.674285  -0.000000

  0.2222222E+00  0.9090909E-01  0.1327369E-14  0.2020202E-01
    1      -13.064984   1.000000
    2      -12.241525   1.000000
    3      -11.722347   1.000000
    4      -11.216134   1.000000
    5      -10.633587   1.000000
    6      -10.548556   1.000000
    7      -10.511505   1.000000
    8      -10.353158   1.000000
    9      -10.054096   1.000000
   10       -9.840530   1.000000
   11       -9.716587   1.000000
   12       -9.585622   1.000000
   13       -9.517053   1.000000
   14       -9.450805   1.000000
   15       -8.822010   1.000000
   16       -8.746566   1.000000
   17       -8.143222   1.000000
   18       -8.104268   1.000000
   19       -7.852875   1.000000
   20       -7.850444   1.000000
   21       -7.808503   1.000000
   22       -7.547286   1.000000
   23       -7.296876   1.000000
   24       -7.063238   1.000000
   25       -7.030000   1.000000
   26       -6.865050   1.000000
   27       -6.845707   1.000000
   28       -6.054204   1.000000
   29       -5.686942   1.000000
   30       -5.502062   1.000000
   31       -5.428750   1.000000
   32       -5.182426   1.000000
   33       -5.076851   1.000000
   34       -5.006840   1.000000
   35       -4.817463   1.000000
   36       -4.604199   1.000000
   37       -4.471168   1.000000
   38       -4.343324   1.000000
   39       -4.301203   1.000000
   40       -4.226928   1.000000
   41       -4.208624   1.000000
   42       -4.111635   1.000000
   43       -3.941561   1.000000
   44       -3.898037   1.000000
   45       -3.858907   1.000000
   46       -3.749613   1.000000
   47       -3.720192   1.000000
   48       -3.686248   1.000000