   70   70   85    1
  0.2230945E+02  0.1053953E-08  0.6141200E-09  0.2412750E-08  0.5000000E-15
   1.0000000000000000E-004
  CAR 
 Name                                    
    265     23    168

  0.3742002E-15  0.3742002E-15  0.1262379E-14  0.2222222E-01
    1      -14.055907   1.000000
    2      -13.068310   1.000000
    3      -12.916892   1.000000
    4      -12.500601   1.000000
    5      -11.940640   1.000000
    6      -11.753342   1.000000
    7      -11.722986   1.000000
    8      -11.697255   1.000000
    9      -11.544036   1.000000
   10      -11.319446   1.000000
   11      -11.189553   1.000000
   12      -11.088319   1.000000
   13      -10.923544   1.000000
   14      -10.512000   1.000000
   15      -10.322769   1.000000
   16      -10.284919   1.000000
   17      -10.196112   1.000000
   18      -10.109530   1.000000
   19       -9.963532   1.000000
   20       -9.744408   1.000000
   21       -9.685786   1.000000
   22       -9.558949   1.000000
   23       -9.348314   1.000000
   24       -9.082265   1.000000
   25       -8.994042   1.000000
   26       -8.835361   1.000000
   27       -8.616190   1.000000
   28       -8.434546   1.000000
   29       -8.335675   1.000000
   30       -8.223549   1.000000
   31       -8.172880   1.000000
   32       -7.905582   1.000000
   33       -7.623175   1.000000
   34       -7.456702   1.000000
   35       -7.294032   1.000000
   36       -7.194344   1.000000
   37       -7.163259   1.000000
   38       -6.936484   1.000000
   39       -6.872677   1.000000
   40       -6.833178   1.000000
   41       -6.772493   1.000000
   42       -6.709634   1.000000
   43       -6.593666   1.000000
   44       -6.528040   1.000000
   45       -6.472006   1.000000
   46       -6.403959   1.000000
   47       -6.231390   1.000000
   48       -6.149514   1.000000
   49       -6.122972   1.000000
   50       -5.955916   1.000000
   51       -5.896184   1.000000
   52       -5.863801   1.000000
   53       -5.795765   1.000000
   54       -5.734758   1.000000
   55       -5.674396   1.000000
   56       -5.596123   1.000000
   57       -5.472556   1.000000
   58       -5.326884   1.000000
   59       -5.301420   1.000000
   60       -5.231641   1.000000
   61       -5.124367   1.000000
   62       -5.014116   1.000000
   63       -4.854252   1.000000
   64       -4.823853   1.000000
   65       -4.752330   1.000000
   66       -4.702226   1.000000
   67       -4.662495   1.000000
   68       -4.625968   1.000000
   69       -4.599452   1.000000
   70       -4.572116   1.000000
   71       -4.398781   1.000000
   72       -4.372584   1.000000
   73       -4.339145   1.000000
   74       -4.311305   1.000000
   75       -4.163115   1.000000
   76       -4.117752   1.000000
   77       -4.052009   1.000000
   78       -3.946359   1.000000
   79       -3.868820   1.000000
   80       -3.848963   1.000000
   81       -3.755805   1.000000
   82       -3.724959   1.000000
   83       -3.578699   1.000000
   84       -3.480607   1.000000
   85       -3.468168   1.000000
   86       -3.453231   1.000000
   87       -3.416334   1.000000
   88       -3.359321   1.000000
   89       -3.291412   1.000000
   90       -3.209157   1.000000
   91       -3.166503   1.000000
   92       -3.069791   1.000000
   93       -3.029302   1.000000
   94       -2.944380   1.000000
   95       -2.831567   1.000000
   96       -2.786779   1.000000
   97       -2.776319   1.000000
   98       -2.677541   1.000000
   99       -2.566441   1.000000
  100       -2.543234   1.000000
  101       -2.453825   1.000000
  102       -2.440270   1.000000
  103       -2.415832   1.000000
  104       -2.287182   1.000000
  105       -2.274010   1.000000
  106       -2.222894   1.000000
  107       -2.212116   1.000000
  108       -2.138268   1.000000
  109       -2.106768   1.000000
  110       -2.091966   1.000000
  111       -1.904597   1.000000
  112       -1.886929   1.000000
  113       -1.819179   1.000000
  114       -1.709642   1.000000
  115       -1.518778   1.000000
  116       -1.419538   1.000000
  117       -1.366527   1.000000
  118       -1.250678   1.000000
  119       -1.196576   1.000000
  120       -1.088415   1.000000
  121       -1.039962   1.000000
  122       -1.020226   1.000000
  123       -0.762029   1.000001
  124       -0.647957   1.000039
  125       -0.590651   1.000195
  126       -0.452525   1.004380
  127       -0.413900   1.008502
  128       -0.310424   1.029248
  129       -0.267411   1.035375
  130       -0.163312   0.969221
  131       -0.157052   0.958663
  132       -0.131205   0.904807
  133       -0.051691   0.641377
  134        0.066459   0.176316
  135        0.097074   0.091954
  136        0.124925   0.035555
  137        0.130854   0.026010
  138        0.177407  -0.022424
  139        0.248910  -0.033899
  140        0.300026  -0.023582
  141        0.443960  -0.002609
  142        0.540342  -0.000287
  143        0.575421  -0.000113
  144        0.639122  -0.000017
  145        0.719470  -0.000001
  146        0.806925  -0.000000
  147        0.857245  -0.000000
  148        0.922182  -0.000000
  149        0.971481  -0.000000
  150        1.020625  -0.000000
  151        1.045418  -0.000000
  152        1.080575  -0.000000
  153        1.138050  -0.000000
  154        1.145463  -0.000000
  155        1.170717  -0.000000
  156        1.205904  -0.000000
  157        1.241233  -0.000000
  158        1.270254  -0.000000
  159        1.310882  -0.000000
  160        1.334622  -0.000000
  161        1.368326  -0.000000
  162        1.430722  -0.000000
  163        1.456176  -0.000000
  164        1.476688  -0.000000
  165        1.531421  -0.000000
  166        1.590202  -0.000000
  167        1.606093  -0.000000
  168        1.655467  -0.000000

  0.2000000E+00  0.3742002E-15  0.1262379E-14  0.4444444E-01
    1      -14.015570   1.000000
    2      -13.309757   1.000000
    3      -12.787729   1.000000
    4      -12.276033   1.000000
    5      -12.070774   1.000000
    6      -11.930730   1.000000
    7      -11.759702   1.000000
    8      -11.514211   1.000000
    9      -11.357670   1.000000
   10      -11.328812   1.000000
   11      -11.153754   1.000000
   12      -11.012425   1.000000
   13      -10.915234   1.000000
   14      -10.679286   1.000000
   15      -10.576847   1.000000
   16      -10.415566   1.000000
   17      -10.290373   1.000000
   18      -10.111114   1.000000
   19       -9.816155   1.000000
   20       -9.738095   1.000000
   21       -9.533403   1.000000
   22       -9.512549   1.000000
   23       -9.387428   1.000000
   24       -9.139461   1.000000
   25       -9.040158   1.000000
   26       -8.805946   1.000000
   27       -8.413649   1.000000
   28       -8.331291   1.000000
   29       -8.202220   1.000000
   30       -8.165904   1.000000
   31       -8.129493   1.000000
   32       -8.092676   1.000000
   33       -7.572411   1.000000
   34       -7.512942   1.000000
   35       -7.458052   1.000000
   36       -7.269384   1.000000
   37       -7.228032   1.000000
   38       -7.042158   1.000000
   39       -6.912749   1.000000
   40       -6.856889   1.000000
   41       -6.764572   1.000000
   42       -6.721188   1.000000
   43       -6.608110   1.000000
   44       -6.538100   1.000000
   45       -6.457378   1.000000
   46       -6.350818   1.000000
   47       -6.187479   1.000000
   48       -6.129378   1.000000
   49       -6.073891   1.000000
   50       -6.016245   1.000000
   51       -5.875041   1.000000
   52       -5.834700   1.000000
   53       -5.763724   1.000000
   54       -5.647303   1.000000
   55       -5.618273   1.000000
   56       -5.513485   1.000000
   57       -5.481717   1.000000
   58       -5.383438   1.000000
   59       -5.296347   1.000000
   60       -5.260294   1.000000
   61       -5.137975   1.000000
   62       -4.977948   1.000000
   63       -4.921423   1.000000
   64       -4.813809   1.000000
   65       -4.791482   1.000000
   66       -4.704538   1.000000
   67       -4.648563   1.000000
   68       -4.594096   1.000000
   69       -4.555197   1.000000
   70       -4.508655   1.000000
   71       -4.486832   1.000000
   72       -4.372867   1.000000
   73       -4.356796   1.000000
   74       -4.250502   1.000000
   75       -4.161302   1.000000
   76       -4.118967   1.000000
   77       -3.988578   1.000000
   78       -3.975379   1.000000
   79       -3.944236   1.000000
   80       -3.860317   1.000000
   81       -3.768062   1.000000
   82       -3.661121   1.000000
   83       -3.577830   1.000000
   84       -3.550953   1.000000
   85       -3.518405   1.000000
   86       -3.438717   1.000000
   87       -3.427658   1.000000
   88       -3.367184   1.000000
   89       -3.271585   1.000000
   90       -3.235165   1.000000
   91       -3.153309   1.000000
   92       -3.122697   1.000000
   93       -3.102665   1.000000
   94       -2.970451   1.000000
   95       -2.823627   1.000000
   96       -2.803779   1.000000
   97       -2.688230   1.000000
   98       -2.659351   1.000000
   99       -2.600804   1.000000
  100       -2.568306   1.000000
  101       -2.450159   1.000000
  102       -2.401264   1.000000
  103       -2.363201   1.000000
  104       -2.306239   1.000000
  105       -2.271572   1.000000
  106       -2.187001   1.000000
  107       -2.161563   1.000000
  108       -2.108809   1.000000
  109       -2.083108   1.000000
  110       -2.018690   1.000000
  111       -1.921553   1.000000
  112       -1.858519   1.000000
  113       -1.745320   1.000000
  114       -1.700253   1.000000
  115       -1.520245   1.000000
  116       -1.448515   1.000000
  117       -1.402999   1.000000
  118       -1.280852   1.000000
  119       -1.225649   1.000000
  120       -1.123108   1.000000
  121       -1.082490   1.000000
  122       -1.033406   1.000000
  123       -0.812544   1.000000
  124       -0.693169   1.000010
  125       -0.566753   1.000362
  126       -0.482084   1.002474
  127       -0.439509   1.005537
  128       -0.372320   1.015495
  129       -0.318884   1.027396
  130       -0.249624   1.034740
  131       -0.206474   1.018248
  132       -0.135391   0.914668
  133       -0.067814   0.704687
  134        0.028314   0.310731
  135        0.098272   0.089127
  136        0.154743  -0.004340
  137        0.165720  -0.014282
  138        0.268371  -0.030603
  139        0.298781  -0.023870
  140        0.355611  -0.012000
  141        0.419725  -0.004168
  142        0.544993  -0.000255
  143        0.603982  -0.000050
  144        0.674319  -0.000006
  145        0.785469  -0.000000
  146        0.838953  -0.000000
  147        0.872000  -0.000000
  148        0.903672  -0.000000
  149        0.946319  -0.000000
  150        0.986401  -0.000000
  151        1.039684  -0.000000
  152        1.084484  -0.000000
  153        1.160840  -0.000000
  154        1.178458  -0.000000
  155        1.213635  -0.000000
  156        1.237132  -0.000000
  157        1.260364  -0.000000
  158        1.290693  -0.000000
  159        1.316321  -0.000000
  160        1.348172  -0.000000
  161        1.402515  -0.000000
  162        1.441900  -0.000000
  163        1.479725  -0.000000
  164        1.514130  -0.000000
  165        1.535127  -0.000000
  166        1.592071  -0.000000
  167        1.632922  -0.000000
  168        1.664473  -0.000000

  0.4000000E+00  0.3742002E-15  0.1262379E-14  0.4444444E-01
    1      -13.914437   1.000000
    2      -13.562890   1.000000
    3      -12.663496   1.000000
    4      -12.335395   1.000000
    5      -11.913267   1.000000
    6      -11.809688   1.000000
    7      -11.797593   1.000000
    8      -11.476259   1.000000
    9      -11.347395   1.000000
   10      -11.251876   1.000000
   11      -11.118046   1.000000
   12      -11.077823   1.000000
   13      -10.906753   1.000000
   14      -10.793382   1.000000
   15      -10.684117   1.000000
   16      -10.571925   1.000000
   17      -10.300814   1.000000
   18      -10.112654   1.000000
   19      -10.065901   1.000000
   20       -9.809003   1.000000
   21       -9.493084   1.000000
   22       -9.442381   1.000000
   23       -9.242417   1.000000
   24       -9.000263   1.000000
   25       -8.958992   1.000000
   26       -8.797481   1.000000
   27       -8.454469   1.000000
   28       -8.235037   1.000000
   29       -8.080410   1.000000
   30       -7.987977   1.000000
   31       -7.941788   1.000000
   32       -7.844027   1.000000
   33       -7.761713   1.000000
   34       -7.715502   1.000000
   35       -7.574856   1.000000
   36       -7.537465   1.000000
   37       -7.355139   1.000000
   38       -7.244393   1.000000
   39       -7.119300   1.000000
   40       -6.869289   1.000000
   41       -6.722476   1.000000
   42       -6.642848   1.000000
   43       -6.600823   1.000000
   44       -6.507519   1.000000
   45       -6.343932   1.000000
   46       -6.254259   1.000000
   47       -6.149948   1.000000
   48       -6.131838   1.000000
   49       -6.054046   1.000000
   50       -6.017266   1.000000
   51       -5.900897   1.000000
   52       -5.808130   1.000000
   53       -5.734079   1.000000
   54       -5.640416   1.000000
   55       -5.614138   1.000000
   56       -5.546562   1.000000
   57       -5.406125   1.000000
   58       -5.337577   1.000000
   59       -5.245282   1.000000
   60       -5.227790   1.000000
   61       -5.162536   1.000000
   62       -4.986227   1.000000
   63       -4.865461   1.000000
   64       -4.838363   1.000000
   65       -4.780814   1.000000
   66       -4.746078   1.000000
   67       -4.652088   1.000000
   68       -4.631918   1.000000
   69       -4.570700   1.000000
   70       -4.496271   1.000000
   71       -4.438547   1.000000
   72       -4.404657   1.000000
   73       -4.245086   1.000000
   74       -4.218335   1.000000
   75       -4.140123   1.000000
   76       -4.080758   1.000000
   77       -4.053467   1.000000
   78       -4.021408   1.000000
   79       -3.964251   1.000000
   80       -3.845168   1.000000
   81       -3.773701   1.000000
   82       -3.690048   1.000000
   83       -3.635696   1.000000
   84       -3.600798   1.000000
   85       -3.554482   1.000000
   86       -3.493613   1.000000
   87       -3.374525   1.000000
   88       -3.356598   1.000000
   89       -3.269305   1.000000
   90       -3.257319   1.000000
   91       -3.228944   1.000000
   92       -3.104006   1.000000
   93       -3.077670   1.000000
   94       -3.019391   1.000000
   95       -2.979348   1.000000
   96       -2.809609   1.000000
   97       -2.727107   1.000000
   98       -2.674704   1.000000
   99       -2.586499   1.000000
  100       -2.491394   1.000000
  101       -2.442037   1.000000
  102       -2.378279   1.000000
  103       -2.363177   1.000000
  104       -2.242893   1.000000
  105       -2.144020   1.000000
  106       -2.132487   1.000000
  107       -2.076086   1.000000
  108       -2.030343   1.000000
  109       -2.003406   1.000000
  110       -1.978165   1.000000
  111       -1.847633   1.000000
  112       -1.791289   1.000000
  113       -1.703704   1.000000
  114       -1.683748   1.000000
  115       -1.628893   1.000000
  116       -1.504358   1.000000
  117       -1.468268   1.000000
  118       -1.353662   1.000000
  119       -1.239062   1.000000
  120       -1.190924   1.000000
  121       -1.136232   1.000000
  122       -1.012426   1.000000
  123       -0.892177   1.000000
  124       -0.792171   1.000000
  125       -0.607225   1.000125
  126       -0.509291   1.001396
  127       -0.480457   1.002557
  128       -0.468272   1.003253
  129       -0.406536   1.009541
  130       -0.349902   1.020285
  131       -0.259757   1.035424
  132       -0.149458   0.944571
  133        0.010144   0.383265
  134        0.046008   0.244842
  135        0.097954   0.089875
  136        0.154755  -0.004352
  137        0.202936  -0.032797
  138        0.282406  -0.027618
  139        0.324350  -0.018094
  140        0.386511  -0.007459
  141        0.515916  -0.000528
  142        0.556471  -0.000189
  143        0.670673  -0.000006
  144        0.711815  -0.000002
  145        0.776529  -0.000000
  146        0.790809  -0.000000
  147        0.909859  -0.000000
  148        0.945403  -0.000000
  149        1.024980  -0.000000
  150        1.049316  -0.000000
  151        1.075796  -0.000000
  152        1.100563  -0.000000
  153        1.130066  -0.000000
  154        1.182875  -0.000000
  155        1.217342  -0.000000
  156        1.247963  -0.000000
  157        1.274302  -0.000000
  158        1.310589  -0.000000
  159        1.354580  -0.000000
  160        1.394806  -0.000000
  161        1.467062  -0.000000
  162        1.477362  -0.000000
  163        1.502836  -0.000000
  164        1.545426  -0.000000
  165        1.567206  -0.000000
  166        1.627305  -0.000000
  167        1.646679  -0.000000
  168        1.802047  -0.000000

  0.3742002E-15  0.1111111E+00  0.1262379E-14  0.4444444E-01
    1      -14.010221   1.000000
    2      -13.029324   1.000000
    3      -12.882181   1.000000
    4      -12.470337   1.000000
    5      -12.036267   1.000000
    6      -11.762607   1.000000
    7      -11.715605   1.000000
    8      -11.675546   1.000000
    9      -11.588519   1.000000
   10      -11.340233   1.000000
   11      -11.198894   1.000000
   12      -11.062603   1.000000
   13      -10.950692   1.000000
   14      -10.509104   1.000000
   15      -10.318462   1.000000
   16      -10.277870   1.000000
   17      -10.189334   1.000000
   18      -10.113112   1.000000
   19       -9.936371   1.000000
   20       -9.773254   1.000000
   21       -9.680543   1.000000
   22       -9.558746   1.000000
   23       -9.341544   1.000000
   24       -9.116796   1.000000
   25       -9.009618   1.000000
   26       -8.812687   1.000000
   27       -8.605084   1.000000
   28       -8.439552   1.000000
   29       -8.354197   1.000000
   30       -8.244303   1.000000
   31       -8.024272   1.000000
   32       -7.915412   1.000000
   33       -7.707768   1.000000
   34       -7.491038   1.000000
   35       -7.360713   1.000000
   36       -7.291471   1.000000
   37       -7.131527   1.000000
   38       -6.869416   1.000000
   39       -6.860315   1.000000
   40       -6.816904   1.000000
   41       -6.765979   1.000000
   42       -6.665962   1.000000
   43       -6.574864   1.000000
   44       -6.505220   1.000000
   45       -6.453481   1.000000
   46       -6.403186   1.000000
   47       -6.244250   1.000000
   48       -6.166412   1.000000
   49       -6.080150   1.000000
   50       -5.958079   1.000000
   51       -5.913494   1.000000
   52       -5.859423   1.000000
   53       -5.809310   1.000000
   54       -5.721517   1.000000
   55       -5.646980   1.000000
   56       -5.513610   1.000000
   57       -5.402549   1.000000
   58       -5.350535   1.000000
   59       -5.296871   1.000000
   60       -5.177842   1.000000
   61       -5.103457   1.000000
   62       -4.988644   1.000000
   63       -4.869450   1.000000
   64       -4.824879   1.000000
   65       -4.762812   1.000000
   66       -4.726288   1.000000
   67       -4.680499   1.000000
   68       -4.662974   1.000000
   69       -4.598096   1.000000
   70       -4.522465   1.000000
   71       -4.423534   1.000000
   72       -4.357203   1.000000
   73       -4.321564   1.000000
   74       -4.287110   1.000000
   75       -4.175070   1.000000
   76       -4.119736   1.000000
   77       -4.038845   1.000000
   78       -3.971289   1.000000
   79       -3.924500   1.000000
   80       -3.874366   1.000000
   81       -3.817811   1.000000
   82       -3.732306   1.000000
   83       -3.625046   1.000000
   84       -3.610265   1.000000
   85       -3.511928   1.000000
   86       -3.415902   1.000000
   87       -3.390194   1.000000
   88       -3.337759   1.000000
   89       -3.291514   1.000000
   90       -3.236461   1.000000
   91       -3.187190   1.000000
   92       -3.132991   1.000000
   93       -3.042266   1.000000
   94       -2.956980   1.000000
   95       -2.852801   1.000000
   96       -2.817442   1.000000
   97       -2.756669   1.000000
   98       -2.672963   1.000000
   99       -2.630106   1.000000
  100       -2.536119   1.000000
  101       -2.504843   1.000000
  102       -2.461809   1.000000
  103       -2.403162   1.000000
  104       -2.335108   1.000000
  105       -2.289115   1.000000
  106       -2.264811   1.000000
  107       -2.192968   1.000000
  108       -2.106195   1.000000
  109       -2.042471   1.000000
  110       -2.034709   1.000000
  111       -1.944594   1.000000
  112       -1.838164   1.000000
  113       -1.780623   1.000000
  114       -1.679237   1.000000
  115       -1.548255   1.000000
  116       -1.459246   1.000000
  117       -1.384859   1.000000
  118       -1.299560   1.000000
  119       -1.133264   1.000000
  120       -1.079805   1.000000
  121       -1.036946   1.000000
  122       -0.918593   1.000000
  123       -0.755477   1.000001
  124       -0.683817   1.000013
  125       -0.566094   1.000368
  126       -0.458750   1.003901
  127       -0.409066   1.009174
  128       -0.380797   1.013851
  129       -0.306890   1.029988
  130       -0.284489   1.033887
  131       -0.223791   1.027988
  132       -0.072127   0.720958
  133        0.006111   0.399856
  134        0.030734   0.301406
  135        0.112187   0.058949
  136        0.148434   0.002468
  137        0.185294  -0.026632
  138        0.231952  -0.035374
  139        0.322985  -0.018389
  140        0.359907  -0.011277
  141        0.461530  -0.001817
  142        0.528134  -0.000391
  143        0.622122  -0.000029
  144        0.661260  -0.000009
  145        0.728509  -0.000001
  146        0.777727  -0.000000
  147        0.843400  -0.000000
  148        0.876676  -0.000000
  149        0.954590  -0.000000
  150        1.023253  -0.000000
  151        1.032873  -0.000000
  152        1.066619  -0.000000
  153        1.117576  -0.000000
  154        1.137396  -0.000000
  155        1.173732  -0.000000
  156        1.214091  -0.000000
  157        1.242254  -0.000000
  158        1.276501  -0.000000
  159        1.301089  -0.000000
  160        1.332090  -0.000000
  161        1.369875  -0.000000
  162        1.415321  -0.000000
  163        1.441576  -0.000000
  164        1.461119  -0.000000
  165        1.521223  -0.000000
  166        1.584722  -0.000000
  167        1.592571  -0.000000
  168        1.658383  -0.000000

  0.2000000E+00  0.1111111E+00  0.1262379E-14  0.4444444E-01
    1      -13.970307   1.000000
    2      -13.269975   1.000000
    3      -12.751292   1.000000
    4      -12.253908   1.000000
    5      -12.039864   1.000000
    6      -12.018746   1.000000
    7      -11.805530   1.000000
    8      -11.549868   1.000000
    9      -11.366587   1.000000
   10      -11.316990   1.000000
   11      -11.165621   1.000000
   12      -10.988647   1.000000
   13      -10.938711   1.000000
   14      -10.660021   1.000000
   15      -10.575975   1.000000
   16      -10.394515   1.000000
   17      -10.304138   1.000000
   18      -10.120547   1.000000
   19       -9.816038   1.000000
   20       -9.726306   1.000000
   21       -9.553503   1.000000
   22       -9.495854   1.000000
   23       -9.386727   1.000000
   24       -9.143741   1.000000
   25       -9.066298   1.000000
   26       -8.798172   1.000000
   27       -8.419257   1.000000
   28       -8.339694   1.000000
   29       -8.219022   1.000000
   30       -8.172197   1.000000
   31       -8.109638   1.000000
   32       -7.975016   1.000000
   33       -7.659984   1.000000
   34       -7.589090   1.000000
   35       -7.464820   1.000000
   36       -7.317095   1.000000
   37       -7.127410   1.000000
   38       -7.018635   1.000000
   39       -6.926929   1.000000
   40       -6.834312   1.000000
   41       -6.789813   1.000000
   42       -6.721363   1.000000
   43       -6.587969   1.000000
   44       -6.513944   1.000000
   45       -6.474443   1.000000
   46       -6.434024   1.000000
   47       -6.224959   1.000000
   48       -6.089221   1.000000
   49       -5.987279   1.000000
   50       -5.958364   1.000000
   51       -5.883339   1.000000
   52       -5.803364   1.000000
   53       -5.751638   1.000000
   54       -5.651483   1.000000
   55       -5.573119   1.000000
   56       -5.537515   1.000000
   57       -5.446431   1.000000
   58       -5.332734   1.000000
   59       -5.286440   1.000000
   60       -5.227014   1.000000
   61       -5.116973   1.000000
   62       -4.975153   1.000000
   63       -4.901439   1.000000
   64       -4.846663   1.000000
   65       -4.777656   1.000000
   66       -4.697330   1.000000
   67       -4.658009   1.000000
   68       -4.635509   1.000000
   69       -4.566511   1.000000
   70       -4.479017   1.000000
   71       -4.459489   1.000000
   72       -4.417128   1.000000
   73       -4.340342   1.000000
   74       -4.211650   1.000000
   75       -4.167988   1.000000
   76       -4.130584   1.000000
   77       -4.014184   1.000000
   78       -4.003415   1.000000
   79       -3.953215   1.000000
   80       -3.850348   1.000000
   81       -3.796177   1.000000
   82       -3.731957   1.000000
   83       -3.657132   1.000000
   84       -3.605198   1.000000
   85       -3.547098   1.000000
   86       -3.465304   1.000000
   87       -3.390291   1.000000
   88       -3.347804   1.000000
   89       -3.297749   1.000000
   90       -3.251046   1.000000
   91       -3.208073   1.000000
   92       -3.151415   1.000000
   93       -3.100059   1.000000
   94       -2.930607   1.000000
   95       -2.866985   1.000000
   96       -2.801209   1.000000
   97       -2.695878   1.000000
   98       -2.686969   1.000000
   99       -2.593861   1.000000
  100       -2.562909   1.000000
  101       -2.464386   1.000000
  102       -2.452469   1.000000
  103       -2.393695   1.000000
  104       -2.369048   1.000000
  105       -2.320433   1.000000
  106       -2.222450   1.000000
  107       -2.153626   1.000000
  108       -2.064109   1.000000
  109       -2.032507   1.000000
  110       -1.979754   1.000000
  111       -1.904967   1.000000
  112       -1.861526   1.000000
  113       -1.798436   1.000000
  114       -1.629666   1.000000
  115       -1.540482   1.000000
  116       -1.499987   1.000000
  117       -1.386721   1.000000
  118       -1.332368   1.000000
  119       -1.197116   1.000000
  120       -1.139247   1.000000
  121       -1.011593   1.000000
  122       -0.969940   1.000000
  123       -0.802890   1.000000
  124       -0.694548   1.000009
  125       -0.564043   1.000387
  126       -0.500939   1.001672
  127       -0.425567   1.007031
  128       -0.378031   1.014376
  129       -0.355394   1.019062
  130       -0.306085   1.030153
  131       -0.201794   1.014750
  132       -0.109678   0.847153
  133       -0.012934   0.479661
  134        0.044082   0.251741
  135        0.080583   0.134533
  136        0.148754   0.002102
  137        0.215576  -0.034894
  138        0.266948  -0.030884
  139        0.326921  -0.017543
  140        0.428779  -0.003514
  141        0.460469  -0.001858
  142        0.526206  -0.000410
  143        0.620682  -0.000031
  144        0.672069  -0.000006
  145        0.769446  -0.000000
  146        0.815613  -0.000000
  147        0.867433  -0.000000
  148        0.923985  -0.000000
  149        0.941579  -0.000000
  150        1.009245  -0.000000
  151        1.040556  -0.000000
  152        1.100949  -0.000000
  153        1.130639  -0.000000
  154        1.158705  -0.000000
  155        1.185440  -0.000000
  156        1.214731  -0.000000
  157        1.244797  -0.000000
  158        1.269084  -0.000000
  159        1.307869  -0.000000
  160        1.366762  -0.000000
  161        1.388033  -0.000000
  162        1.429324  -0.000000
  163        1.467107  -0.000000
  164        1.510813  -0.000000
  165        1.531617  -0.000000
  166        1.561862  -0.000000
  167        1.655160  -0.000000
  168        1.680253  -0.000000

  0.4000000E+00  0.1111111E+00  0.1262379E-14  0.4444444E-01
    1      -13.869968   1.000000
    2      -13.521313   1.000000
    3      -12.627797   1.000000
    4      -12.303090   1.000000
    5      -12.004317   1.000000
    6      -11.872505   1.000000
    7      -11.767993   1.000000
    8      -11.504248   1.000000
    9      -11.368984   1.000000
   10      -11.225638   1.000000
   11      -11.113404   1.000000
   12      -11.069350   1.000000
   13      -10.933570   1.000000
   14      -10.769669   1.000000
   15      -10.688496   1.000000
   16      -10.549591   1.000000
   17      -10.311172   1.000000
   18      -10.113496   1.000000
   19      -10.062961   1.000000
   20       -9.821832   1.000000
   21       -9.504772   1.000000
   22       -9.419696   1.000000
   23       -9.242443   1.000000
   24       -9.031619   1.000000
   25       -8.958110   1.000000
   26       -8.786177   1.000000
   27       -8.456802   1.000000
   28       -8.264362   1.000000
   29       -8.086937   1.000000
   30       -7.972830   1.000000
   31       -7.883699   1.000000
   32       -7.836087   1.000000
   33       -7.792096   1.000000
   34       -7.719892   1.000000
   35       -7.586442   1.000000
   36       -7.418634   1.000000
   37       -7.371432   1.000000
   38       -7.272111   1.000000
   39       -7.127426   1.000000
   40       -6.920109   1.000000
   41       -6.804771   1.000000
   42       -6.721948   1.000000
   43       -6.561621   1.000000
   44       -6.468591   1.000000
   45       -6.345015   1.000000
   46       -6.242771   1.000000
   47       -6.138510   1.000000
   48       -6.112615   1.000000
   49       -6.053773   1.000000
   50       -6.022788   1.000000
   51       -5.881976   1.000000