 running on   72 total cores
 distrk:  each k-point on   72 cores,    1 groups
 distr:  one band on    9 cores,    8 groups
 using from now: INCAR     
 vasp.5.4.4.18Apr17-6-g9f103f2a35 (build Dec  7 2020 12:43:57) complex           
 POSCAR found type information on POSCAR  Mo V  B  H 
 POSCAR found :  4 types and      70 ions
 scaLAPACK will be used
 LDA part: xc-table for Pade appr. of Perdew
 POSCAR, INCAR and KPOINTS ok, starting setup
 resort distribution
 resort distribution
 resort distribution
 resort distribution
 resort distribution
 resort distribution
 resort distribution
 resort distribution
 resort distribution
 resort distribution
 resort distribution
 resort distribution
 resort distribution
 resort distribution
 resort distribution
 resort distribution
 resort distribution
 resort distribution
 resort distribution
 resort distribution
 resort distribution
 resort distribution
 resort distribution
 resort distribution
 resort distribution
 resort distribution
 resort distribution
 resort distribution
 resort distribution
 resort distribution
 resort distribution
 resort distribution
 resort distribution
 resort distribution
 resort distribution
 resort distribution
 resort distribution
 resort distribution
 resort distribution
 resort distribution
 resort distribution
 resort distribution
 resort distribution
 resort distribution
 resort distribution
 resort distribution
 resort distribution
 resort distribution
 resort distribution
 resort distribution
 resort distribution
 resort distribution
 resort distribution
 resort distribution
 resort distribution
 resort distribution
 resort distribution
 resort distribution
 resort distribution
 resort distribution
 resort distribution
 resort distribution
 resort distribution
 resort distribution
 resort distribution
 resort distribution
 resort distribution
 resort distribution
 resort distribution
 resort distribution
 resort distribution
 resort distribution
 FFT: planning ...
 WAVECAR not read
 augmentation electrons   265.05813904419875     
 soft         electrons   0.0000000000000000     
 augmentation electrons   265.05813904419875     
 soft         electrons   0.0000000000000000     
 augmentation electrons   265.05813904419875     
 soft         electrons   0.0000000000000000     
 augmentation electrons   265.05813904419875     
 soft         electrons   0.0000000000000000     
 augmentation electrons   265.05813904419875     
 soft         electrons   0.0000000000000000     
 augmentation electrons   265.05813904419875     
 soft         electrons   0.0000000000000000     
 augmentation electrons   265.05813904419875     
 soft         electrons   0.0000000000000000     
 augmentation electrons   265.05813904419875     
 soft         electrons   0.0000000000000000     
 augmentation electrons   265.05813904419875     
 soft         electrons   0.0000000000000000     
 augmentation electrons   265.05813904419875     
 soft         electrons   0.0000000000000000     
 augmentation electrons   265.05813904419875     
 soft         electrons   0.0000000000000000     
 augmentation electrons   265.05813904419875     
 soft         electrons   0.0000000000000000     
 augmentation electrons   265.05813904419875     
 soft         electrons   0.0000000000000000     
 augmentation electrons   265.05813904419875     
 soft         electrons   0.0000000000000000     
 augmentation electrons   265.05813904419875     
 soft         electrons   0.0000000000000000     
 augmentation electrons   265.05813904419875     
 soft         electrons   0.0000000000000000     
 augmentation electrons   265.05813904419875     
 soft         electrons   0.0000000000000000     
 augmentation electrons   265.05813904419875     
 soft         electrons   0.0000000000000000     
 augmentation electrons   265.05813904419875     
 soft         electrons   0.0000000000000000     
 augmentation electrons   265.05813904419875     
 soft         electrons   0.0000000000000000     
 augmentation electrons   265.05813904419875     
 soft         electrons   0.0000000000000000     
 augmentation electrons   265.05813904419875     
 soft         electrons   0.0000000000000000     
 augmentation electrons   265.05813904419875     
 soft         electrons   0.0000000000000000     
 augmentation electrons   265.05813904419875     
 soft         electrons   0.0000000000000000     
 augmentation electrons   265.05813904419875     
 soft         electrons   0.0000000000000000     
 augmentation electrons   265.05813904419875     
 soft         electrons   0.0000000000000000     
 augmentation electrons   265.05813904419875     
 soft         electrons   0.0000000000000000     
 augmentation electrons   265.05813904419875     
 soft         electrons   0.0000000000000000     
 augmentation electrons   265.05813904419875     
 soft         electrons   0.0000000000000000     
 augmentation electrons   265.05813904419875     
 soft         electrons   0.0000000000000000     
 augmentation electrons   265.05813904419875     
 soft         electrons   0.0000000000000000     
 augmentation electrons   265.05813904419875     
 soft         electrons   0.0000000000000000     
 augmentation electrons   265.05813904419875     
 soft         electrons   0.0000000000000000     
 augmentation electrons   265.05813904419875     
 soft         electrons   0.0000000000000000     
 augmentation electrons   265.05813904419875     
 soft         electrons   0.0000000000000000     
 augmentation electrons   265.05813904419875     
 soft         electrons   0.0000000000000000     
 augmentation electrons   265.05813904419875     
 soft         electrons   0.0000000000000000     
 augmentation electrons   265.05813904419875     
 soft         electrons   0.0000000000000000     
 augmentation electrons   265.05813904419875     
 soft         electrons   0.0000000000000000     
 augmentation electrons   265.05813904419875     
 soft         electrons   0.0000000000000000     
 augmentation electrons   265.05813904419875     
 soft         electrons   0.0000000000000000     
 augmentation electrons   265.05813904419875     
 soft         electrons   0.0000000000000000     
 augmentation electrons   265.05813904419875     
 soft         electrons   0.0000000000000000     
 augmentation electrons   265.05813904419875     
 soft         electrons   0.0000000000000000     
 augmentation electrons   265.05813904419875     
 soft         electrons   0.0000000000000000     
 augmentation electrons   265.05813904419875     
 soft         electrons   0.0000000000000000     
 augmentation electrons   265.05813904419875     
 soft         electrons   0.0000000000000000     
 augmentation electrons   265.05813904419875     
 soft         electrons   0.0000000000000000     
 augmentation electrons   265.05813904419875     
 soft         electrons   0.0000000000000000     
 augmentation electrons   265.05813904419875     
 soft         electrons   0.0000000000000000     
 augmentation electrons   265.05813904419875     
 soft         electrons   0.0000000000000000     
 augmentation electrons   265.05813904419875     
 soft         electrons   0.0000000000000000     
 augmentation electrons   265.05813904419875     
 soft         electrons   0.0000000000000000     
 augmentation electrons   265.05813904419875     
 soft         electrons   0.0000000000000000     
 augmentation electrons   265.05813904419875     
 soft         electrons   0.0000000000000000     
 augmentation electrons   265.05813904419875     
 soft         electrons   0.0000000000000000     
 augmentation electrons   265.05813904419875     
 soft         electrons   0.0000000000000000     
 augmentation electrons   265.05813904419875     
 soft         electrons   0.0000000000000000     
 augmentation electrons   265.05813904419875     
 soft         electrons   0.0000000000000000     
 augmentation electrons   265.05813904419875     
 soft         electrons   0.0000000000000000     
 augmentation electrons   265.05813904419875     
 soft         electrons   0.0000000000000000     
 augmentation electrons   265.05813904419875     
 soft         electrons   0.0000000000000000     
 augmentation electrons   265.05813904419875     
 soft         electrons   0.0000000000000000     
 augmentation electrons   265.05813904419875     
 soft         electrons   0.0000000000000000     
 augmentation electrons   265.05813904419875     
 soft         electrons   0.0000000000000000     
 augmentation electrons   265.05813904419875     
 soft         electrons   0.0000000000000000     
 augmentation electrons   265.05813904419875     
 soft         electrons   0.0000000000000000     
 augmentation electrons   265.05813904419875     
 soft         electrons   0.0000000000000000     
 augmentation electrons   265.05813904419875     
 soft         electrons   0.0000000000000000     
 augmentation electrons   265.05813904419875     
 soft         electrons   0.0000000000000000     
 augmentation electrons   265.05813904419875     
 soft         electrons   0.0000000000000000     
 total        electrons   265.05813904419875     
 total        electrons   265.05813904419875     
 total        electrons   265.05813904419875     
 total        electrons   265.05813904419875     
 total        electrons   265.05813904419875     
 total        electrons   265.05813904419875     
 total        electrons   265.05813904419875     
 augmentation electrons   265.05813904419875     
 soft         electrons   0.0000000000000000     
 total        electrons   265.05813904419875     
 total        electrons   265.05813904419875     
 total        electrons   265.05813904419875     
 total        electrons   265.05813904419875     
 total        electrons   265.05813904419875     
 total        electrons   265.05813904419875     
 total        electrons   265.05813904419875     
 total        electrons   265.05813904419875     
 total        electrons   265.05813904419875     
 total        electrons   265.05813904419875     
 total        electrons   265.05813904419875     
 total        electrons   265.05813904419875     
 total        electrons   265.05813904419875     
 total        electrons   265.05813904419875     
 total        electrons   265.05813904419875     
 total        electrons   265.05813904419875     
 total        electrons   265.05813904419875     
 total        electrons   265.05813904419875     
 total        electrons   265.05813904419875     
 total        electrons   265.05813904419875     
 total        electrons   265.05813904419875     
 total        electrons   265.05813904419875     
 total        electrons   265.05813904419875     
 total        electrons   265.05813904419875     
 total        electrons   265.05813904419875     
 total        electrons   265.05813904419875     
 total        electrons   265.05813904419875     
 total        electrons   265.05813904419875     
 total        electrons   265.05813904419875     
 total        electrons   265.05813904419875     
 total        electrons   265.05813904419875     
 total        electrons   265.05813904419875     
 total        electrons   265.05813904419875     
 total        electrons   265.05813904419875     
 total        electrons   265.05813904419875     
 total        electrons   265.05813904419875     
 total        electrons   265.05813904419875     
 total        electrons   265.05813904419875     
 total        electrons   265.05813904419875     
 total        electrons   265.05813904419875     
 total        electrons   265.05813904419875     
 total        electrons   265.05813904419875     
 total        electrons   265.05813904419875     
 total        electrons   265.05813904419875     
 total        electrons   265.05813904419875     
 total        electrons   265.05813904419875     
 total        electrons   265.05813904419875     
 total        electrons   265.05813904419875     
 total        electrons   265.05813904419875     
 total        electrons   265.05813904419875     
 total        electrons   265.05813904419875     
 total        electrons   265.05813904419875     
 total        electrons   265.05813904419875     
 total        electrons   265.05813904419875     
 total        electrons   265.05813904419875     
 total        electrons   265.05813904419875     
 total        electrons   265.05813904419875     
 total        electrons   265.05813904419875     
 total        electrons   265.05813904419875     
 total        electrons   265.05813904419875     
 total        electrons   265.05813904419875     
 total        electrons   265.05813904419875     
 total        electrons   265.05813904419875     
 total        electrons   265.05813904419875     
 total        electrons   265.05813904419875     
 augmentation electrons   1134.5113766423656     
 soft         electrons   0.0000000000000000     
 augmentation electrons   1134.5113766423656     
 soft         electrons   0.0000000000000000     
 augmentation electrons   1134.5113766423656     
 soft         electrons   0.0000000000000000     
 augmentation electrons   1134.5113766423656     
 augmentation electrons   1134.5113766423656     
 soft         electrons   0.0000000000000000     
 augmentation electrons   1134.5113766423656     
 soft         electrons   0.0000000000000000     
 augmentation electrons   1134.5113766423656     
 soft         electrons   0.0000000000000000     
 augmentation electrons   1134.5113766423656     
 soft         electrons   0.0000000000000000     
 augmentation electrons   1134.5113766423656     
 soft         electrons   0.0000000000000000     
 augmentation electrons   1134.5113766423656     
 soft         electrons   0.0000000000000000     
 augmentation electrons   1134.5113766423656     
 soft         electrons   0.0000000000000000     
 augmentation electrons   1134.5113766423656     
 soft         electrons   0.0000000000000000     
 augmentation electrons   1134.5113766423656     
 soft         electrons   0.0000000000000000     
 augmentation electrons   1134.5113766423656     
 soft         electrons   0.0000000000000000     
 augmentation electrons   1134.5113766423656     
 soft         electrons   0.0000000000000000     
 augmentation electrons   1134.5113766423656     
 soft         electrons   0.0000000000000000     
 augmentation electrons   1134.5113766423656     
 soft         electrons   0.0000000000000000     
 augmentation electrons   1134.5113766423656     
 soft         electrons   0.0000000000000000     
 augmentation electrons   1134.5113766423656     
 soft         electrons   0.0000000000000000     
 augmentation electrons   1134.5113766423656     
 soft         electrons   0.0000000000000000     
 augmentation electrons   1134.5113766423656     
 soft         electrons   0.0000000000000000     
 augmentation electrons   1134.5113766423656     
 soft         electrons   0.0000000000000000     
 augmentation electrons   1134.5113766423656     
 soft         electrons   0.0000000000000000     
 augmentation electrons   1134.5113766423656     
 soft         electrons   0.0000000000000000     
 augmentation electrons   1134.5113766423656     
 soft         electrons   0.0000000000000000     
 augmentation electrons   1134.5113766423656     
 soft         electrons   0.0000000000000000     
 augmentation electrons   1134.5113766423656     
 soft         electrons   0.0000000000000000     
 augmentation electrons   1134.5113766423656     
 soft         electrons   0.0000000000000000     
 augmentation electrons   1134.5113766423656     
 soft         electrons   0.0000000000000000     
 augmentation electrons   1134.5113766423656     
 soft         electrons   0.0000000000000000     
 augmentation electrons   1134.5113766423656     
 soft         electrons   0.0000000000000000     
 augmentation electrons   1134.5113766423656     
 soft         electrons   0.0000000000000000     
 augmentation electrons   1134.5113766423656     
 soft         electrons   0.0000000000000000     
 augmentation electrons   1134.5113766423656     
 soft         electrons   0.0000000000000000     
 augmentation electrons   1134.5113766423656     
 soft         electrons   0.0000000000000000     
 augmentation electrons   1134.5113766423656     
 soft         electrons   0.0000000000000000     
 augmentation electrons   1134.5113766423656     
 soft         electrons   0.0000000000000000     
 augmentation electrons   1134.5113766423656     
 soft         electrons   0.0000000000000000     
 augmentation electrons   1134.5113766423656     
 soft         electrons   0.0000000000000000     
 augmentation electrons   1134.5113766423656     
 soft         electrons   0.0000000000000000     
 augmentation electrons   1134.5113766423656     
 soft         electrons   0.0000000000000000     
 augmentation electrons   1134.5113766423656     
 soft         electrons   0.0000000000000000     
 augmentation electrons   1134.5113766423656     
 soft         electrons   0.0000000000000000     
 augmentation electrons   1134.5113766423656     
 soft         electrons   0.0000000000000000     
 augmentation electrons   1134.5113766423656     
 soft         electrons   0.0000000000000000     
 augmentation electrons   1134.5113766423656     
 soft         electrons   0.0000000000000000     
 augmentation electrons   1134.5113766423656     
 soft         electrons   0.0000000000000000     
 augmentation electrons   1134.5113766423656     
 soft         electrons   0.0000000000000000     
 augmentation electrons   1134.5113766423656     
 soft         electrons   0.0000000000000000     
 augmentation electrons   1134.5113766423656     
 soft         electrons   0.0000000000000000     
 augmentation electrons   1134.5113766423656     
 soft         electrons   0.0000000000000000     
 augmentation electrons   1134.5113766423656     
 soft         electrons   0.0000000000000000     
 augmentation electrons   1134.5113766423656     
 soft         electrons   0.0000000000000000     
 augmentation electrons   1134.5113766423656     
 soft         electrons   0.0000000000000000     
 augmentation electrons   1134.5113766423656     
 soft         electrons   0.0000000000000000     
 augmentation electrons   1134.5113766423656     
 soft         electrons   0.0000000000000000     
 augmentation electrons   1134.5113766423656     
 soft         electrons   0.0000000000000000     
 augmentation electrons   1134.5113766423656     
 soft         electrons   0.0000000000000000     
 augmentation electrons   1134.5113766423656     
 soft         electrons   0.0000000000000000     
 augmentation electrons   1134.5113766423656     
 soft         electrons   0.0000000000000000     
 augmentation electrons   1134.5113766423656     
 soft         electrons   0.0000000000000000     
 augmentation electrons   1134.5113766423656     
 soft         electrons   0.0000000000000000     
 augmentation electrons   1134.5113766423656     
 soft         electrons   0.0000000000000000     
 augmentation electrons   1134.5113766423656     
 soft         electrons   0.0000000000000000     
 augmentation electrons   1134.5113766423656     
 soft         electrons   0.0000000000000000     
 augmentation electrons   1134.5113766423656     
 soft         electrons   0.0000000000000000     
 augmentation electrons   1134.5113766423656     
 soft         electrons   0.0000000000000000     
 augmentation electrons   1134.5113766423656     
 soft         electrons   0.0000000000000000     
 augmentation electrons   1134.5113766423656     
 soft         electrons   0.0000000000000000     
 augmentation electrons   1134.5113766423656     
 soft         electrons   0.0000000000000000     
 augmentation electrons   1134.5113766423656     
 soft         electrons   0.0000000000000000     
 augmentation electrons   1134.5113766423656     
 soft         electrons   0.0000000000000000     
 soft         electrons   0.0000000000000000     
 total        electrons   1134.5113766423656     
 total        electrons   1134.5113766423656     
 total        electrons   1134.5113766423656     
 total        electrons   1134.5113766423656     
 total        electrons   1134.5113766423656     
 total        electrons   1134.5113766423656     
 total        electrons   1134.5113766423656     
 total        electrons   1134.5113766423656     
 total        electrons   1134.5113766423656     
 total        electrons   1134.5113766423656     
 total        electrons   1134.5113766423656     
 total        electrons   1134.5113766423656     
 total        electrons   1134.5113766423656     
 total        electrons   1134.5113766423656     
 total        electrons   1134.5113766423656     
 total        electrons   1134.5113766423656     
 total        electrons   1134.5113766423656     
 total        electrons   1134.5113766423656     
 total        electrons   1134.5113766423656     
 total        electrons   1134.5113766423656     
 total        electrons   1134.5113766423656     
 total        electrons   1134.5113766423656     
 total        electrons   1134.5113766423656     
 total        electrons   1134.5113766423656     
 total        electrons   1134.5113766423656     
 total        electrons   1134.5113766423656     
 total        electrons   1134.5113766423656     
 total        electrons   1134.5113766423656     
 total        electrons   1134.5113766423656     
 total        electrons   1134.5113766423656     
 total        electrons   1134.5113766423656     
 total        electrons   1134.5113766423656     
 total        electrons   1134.5113766423656     
 total        electrons   1134.5113766423656     
 total        electrons   1134.5113766423656     
 total        electrons   1134.5113766423656     
 total        electrons   1134.5113766423656     
 total        electrons   1134.5113766423656     
 total        electrons   1134.5113766423656     
 total        electrons   1134.5113766423656     
 total        electrons   1134.5113766423656     
 total        electrons   1134.5113766423656     
 total        electrons   1134.5113766423656     
 total        electrons   1134.5113766423656     
 total        electrons   1134.5113766423656     
 total        electrons   1134.5113766423656     
 total        electrons   1134.5113766423656     
 total        electrons   1134.5113766423656     
 total        electrons   1134.5113766423656     
 total        electrons   1134.5113766423656     
 total        electrons   1134.5113766423656     
 total        electrons   1134.5113766423656     
 total        electrons   1134.5113766423656     
 total        electrons   1134.5113766423656     
 total        electrons   1134.5113766423656     
 total        electrons   1134.5113766423656     
 total        electrons   1134.5113766423656     
 total        electrons   1134.5113766423656     
 total        electrons   1134.5113766423656     
 total        electrons   1134.5113766423656     
 total        electrons   1134.5113766423656     
 total        electrons   1134.5113766423656     
 total        electrons   1134.5113766423656     
 total        electrons   1134.5113766423656     
 total        electrons   1134.5113766423656     
 total        electrons   1134.5113766423656     
 total        electrons   1134.5113766423656     
 total        electrons   1134.5113766423656     
 total        electrons   1134.5113766423656     
 total        electrons   1134.5113766423656     
 total        electrons   1134.5113766423656     
 total        electrons   1134.5113766423656     
 entering main loop
       N       E                     dE             d eps       ncg     rms          rms(c)
DAV:   1     0.232635628660E+04    0.23264E+04   -0.94994E+04  7728   0.128E+03
DAV:   2    -0.181388967563E+03   -0.25077E+04   -0.23402E+04  8968   0.311E+02
DAV:   3    -0.613802272020E+03   -0.43241E+03   -0.41379E+03 10936   0.150E+02
DAV:   4    -0.651402758327E+03   -0.37600E+02   -0.36146E+02 12464   0.493E+01
DAV:   5    -0.653740662550E+03   -0.23379E+01   -0.22558E+01 13112   0.121E+01    0.136E+02
RMM:   6    -0.595956353006E+03    0.57784E+02   -0.11483E+03 11185   0.941E+01    0.675E+01
RMM:   7    -0.634216933304E+03   -0.38261E+02   -0.41145E+02  9955   0.648E+01    0.470E+01
RMM:   8    -0.553038182299E+03    0.81179E+02   -0.67191E+01  8182   0.298E+01    0.240E+01
RMM:   9    -0.553309893148E+03   -0.27171E+00   -0.43580E+01  8628   0.179E+01    0.201E+01
RMM:  10    -0.549283634025E+03    0.40263E+01   -0.11734E+01 10880   0.640E+00    0.175E+01
RMM:  11    -0.549032147531E+03    0.25149E+00   -0.45419E+00  8331   0.596E+00    0.157E+01
RMM:  12    -0.548993262225E+03    0.38885E-01   -0.19874E+00 10735   0.160E+00    0.152E+01
RMM:  13    -0.549218413138E+03   -0.22515E+00   -0.13541E+00  8413   0.347E+00    0.145E+01
RMM:  14    -0.548910315055E+03    0.30810E+00   -0.51731E+00  9044   0.618E+00    0.117E+01
RMM:  15    -0.548548627097E+03    0.36169E+00   -0.35347E+00  7891   0.648E+00    0.902E+00
RMM:  16    -0.547845961956E+03    0.70267E+00   -0.10126E+00  8658   0.336E+00    0.540E+00
RMM:  17    -0.547635525518E+03    0.21044E+00   -0.56278E-01 10249   0.163E+00    0.364E+00
RMM:  18    -0.547551342765E+03    0.84183E-01   -0.22515E-01  9644   0.104E+00    0.262E+00
RMM:  19    -0.547525331004E+03    0.26012E-01   -0.19452E-01 10111   0.101E+00    0.212E+00
RMM:  20    -0.547492543291E+03    0.32788E-01   -0.99805E-02 10867   0.601E-01    0.155E+00
RMM:  21    -0.547474136938E+03    0.18406E-01   -0.83468E-02  9907   0.683E-01    0.100E+00
RMM:  22    -0.547467377581E+03    0.67594E-02   -0.40533E-02  9730   0.463E-01    0.543E-01
RMM:  23    -0.547467151983E+03    0.22560E-03   -0.25626E-02 10905   0.239E-01    0.326E-01
RMM:  24    -0.547467483402E+03   -0.33142E-03   -0.46912E-03  9889   0.125E-01    0.243E-01
RMM:  25    -0.547467940502E+03   -0.45710E-03   -0.18546E-03 10480   0.838E-02    0.144E-01
RMM:  26    -0.547468678695E+03   -0.73819E-03   -0.14408E-03 10000   0.860E-02    0.113E-01
RMM:  27    -0.547469166259E+03   -0.48756E-03   -0.55722E-04  9860   0.552E-02    0.506E-02
RMM:  28    -0.547470058828E+03   -0.89257E-03   -0.60698E-04 10340   0.433E-02    0.603E-02
RMM:  29    -0.547470788863E+03   -0.73004E-03   -0.29373E-04  7772   0.574E-02    0.341E-02
RMM:  30    -0.547471160904E+03   -0.37204E-03   -0.24641E-04  8486   0.424E-02    0.445E-02
RMM:  31    -0.547471239553E+03   -0.78649E-04   -0.10904E-04  8109   0.305E-02    0.173E-02
RMM:  32    -0.547471346534E+03   -0.10698E-03   -0.41696E-05  7662   0.126E-02    0.115E-02
RMM:  33    -0.547471448002E+03   -0.10147E-03   -0.28755E-05  7719   0.140E-02    0.181E-02
RMM:  34    -0.547471522746E+03   -0.74744E-04   -0.17422E-05  6580   0.972E-03    0.559E-03
RMM:  35    -0.547471617955E+03   -0.95209E-04   -0.97647E-06  6374   0.472E-03    0.602E-03
RMM:  36    -0.547471694450E+03   -0.76494E-04   -0.33447E-06  5587   0.404E-03    0.619E-03
RMM:  37    -0.547471750095E+03   -0.55646E-04   -0.31992E-06  5530   0.388E-03    0.323E-03
RMM:  38    -0.547471790111E+03   -0.40016E-04   -0.30415E-06  5414   0.313E-03    0.202E-03
RMM:  39    -0.547471805149E+03   -0.15037E-04   -0.11218E-06  4894   0.293E-03    0.181E-03
RMM:  40    -0.547471817479E+03   -0.12330E-04   -0.12478E-06  4918   0.279E-03    0.163E-03
RMM:  41    -0.547471823419E+03   -0.59407E-05   -0.66308E-07  4526   0.217E-03    0.730E-04
RMM:  42    -0.547471826104E+03   -0.26848E-05   -0.33940E-07  3525   0.151E-03    0.647E-04
RMM:  43    -0.547471826986E+03   -0.88140E-06   -0.17320E-07  3298   0.142E-03
   1 F= -.54747183E+03 E0= -.54746620E+03  d E =-.547472E+03
 curvature:   0.00 expect dE= 0.000E+00 dE for cont linesearch  0.000E+00
 trial: gam= 0.00000 g(F)=  0.355E-04 g(S)=  0.000E+00 ort = 0.000E+00 (trialstep = 0.100E+01)
 search vector abs. value=  0.355E-04
 bond charge predicted
       N       E                     dE             d eps       ncg     rms          rms(c)
DAV:   1    -0.547471856768E+03   -0.30664E-04   -0.59990E-04  8464   0.506E-02    0.793E-03
RMM:   2    -0.547471856703E+03    0.64254E-07   -0.89354E-06  6271   0.868E-03    0.482E-03
RMM:   3    -0.547471857713E+03   -0.10096E-05   -0.38923E-06  5619   0.713E-03    0.884E-03
RMM:   4    -0.547471857255E+03    0.45774E-06   -0.20261E-06  4909   0.644E-03    0.619E-03
RMM:   5    -0.547471856945E+03    0.31009E-06   -0.85019E-07  4501   0.355E-03
   2 F= -.54747186E+03 E0= -.54746622E+03  d E =-.299597E-04
 trial-energy change:   -0.000030  1 .order   -0.000028   -0.000035   -0.000021
 step:   2.4642(harm=  2.4642)  dis= 0.00240  next Energy=  -547.471871 (dE=-0.437E-04)
 reached required accuracy - stopping structural energy minimisation
 augmentation electrons   27.685526469057926     
 soft         electrons   237.43488572319947     
 augmentation electrons   27.685526469057926     
 soft         electrons   237.43488572319947     
 augmentation electrons   27.685526469057926     
 soft         electrons   237.43488572319947     
 augmentation electrons   27.685526469057926     
 soft         electrons   237.43488572319947     
 augmentation electrons   27.685526469057926     
 soft         electrons   237.43488572319947     
 augmentation electrons   27.685526469057926     
 soft         electrons   237.43488572319947     
 augmentation electrons   27.685526469057926     
 soft         electrons   237.43488572319947     
 augmentation electrons   27.685526469057926     
 soft         electrons   237.43488572319947     
 augmentation electrons   27.685526469057926     
 soft         electrons   237.43488572319947     
 augmentation electrons   27.685526469057926     
 soft         electrons   237.43488572319947     
 augmentation electrons   27.685526469057926     
 soft         electrons   237.43488572319947     
 augmentation electrons   27.685526469057926     
 soft         electrons   237.43488572319947     
 augmentation electrons   27.685526469057926     
 soft         electrons   237.43488572319947     
 augmentation electrons   27.685526469057926     
 soft         electrons   237.43488572319947     
 augmentation electrons   27.685526469057926     
 soft         electrons   237.43488572319947     
 augmentation electrons   27.685526469057926     
 soft         electrons   237.43488572319947     
 augmentation electrons   27.685526469057926     
 soft         electrons   237.43488572319947     
 augmentation electrons   27.685526469057926     
 soft         electrons   237.43488572319947     
 augmentation electrons   27.685526469057926     
 soft         electrons   237.43488572319947     
 augmentation electrons   27.685526469057926     
 soft         electrons   237.43488572319947     
 augmentation electrons   27.685526469057926     
 soft         electrons   237.43488572319947     
 augmentation electrons   27.685526469057926     
 soft         electrons   237.43488572319947     
 augmentation electrons   27.685526469057926     
 soft         electrons   237.43488572319947     
 augmentation electrons   27.685526469057926     
 soft         electrons   237.43488572319947     
 augmentation electrons   27.685526469057926     
 soft         electrons   237.43488572319947     
 augmentation electrons   27.685526469057926     
 soft         electrons   237.43488572319947     
 augmentation electrons   27.685526469057926     
 soft         electrons   237.43488572319947     
 augmentation electrons   27.685526469057926     
 soft         electrons   237.43488572319947     
 augmentation electrons   27.685526469057926     
 soft         electrons   237.43488572319947     
 augmentation electrons   27.685526469057926     
 soft         electrons   237.43488572319947     
 augmentation electrons   27.685526469057926     
 soft         electrons   237.43488572319947     
 augmentation electrons   27.685526469057926     
 soft         electrons   237.43488572319947     
 augmentation electrons   27.685526469057926     
 soft         electrons   237.43488572319947     
 augmentation electrons   27.685526469057926     
 soft         electrons   237.43488572319947     
 augmentation electrons   27.685526469057926     
 soft         electrons   237.43488572319947     
 augmentation electrons   27.685526469057926     
 soft         electrons   237.43488572319947     
 augmentation electrons   27.685526469057926     
 soft         electrons   237.43488572319947     
 augmentation electrons   27.685526469057926     
 augmentation electrons   27.685526469057926     
 soft         electrons   237.43488572319947     
 augmentation electrons   27.685526469057926     
 soft         electrons   237.43488572319947     
 augmentation electrons   27.685526469057926     
 soft         electrons   237.43488572319947     
 augmentation electrons   27.685526469057926     
 soft         electrons   237.43488572319947     
 augmentation electrons   27.685526469057926     
 soft         electrons   237.43488572319947     
 augmentation electrons   27.685526469057926     
 soft         electrons   237.43488572319947     
 augmentation electrons   27.685526469057926     
 soft         electrons   237.43488572319947     
 augmentation electrons   27.685526469057926     
 soft         electrons   237.43488572319947     
 augmentation electrons   27.685526469057926     
 soft         electrons   237.43488572319947     
 augmentation electrons   27.685526469057926     
 soft         electrons   237.43488572319947     
 augmentation electrons   27.685526469057926     
 soft         electrons   237.43488572319947     
 augmentation electrons   27.685526469057926     
 soft         electrons   237.43488572319947     
 augmentation electrons   27.685526469057926     
 soft         electrons   237.43488572319947     
 augmentation electrons   27.685526469057926     
 soft         electrons   237.43488572319947     
 augmentation electrons   27.685526469057926     
 soft         electrons   237.43488572319947     
 augmentation electrons   27.685526469057926     
 soft         electrons   237.43488572319947     
 augmentation electrons   27.685526469057926     
 soft         electrons   237.43488572319947     
 augmentation electrons   27.685526469057926     
 soft         electrons   237.43488572319947     
 augmentation electrons   27.685526469057926     
 soft         electrons   237.43488572319947     
 augmentation electrons   27.685526469057926     
 soft         electrons   237.43488572319947     
 augmentation electrons   27.685526469057926     
 soft         electrons   237.43488572319947     
 augmentation electrons   27.685526469057926     
 soft         electrons   237.43488572319947     
 augmentation electrons   27.685526469057926     
 soft         electrons   237.43488572319947     
 augmentation electrons   27.685526469057926     
 soft         electrons   237.43488572319947     
 augmentation electrons   27.685526469057926     
 soft         electrons   237.43488572319947     
 augmentation electrons   27.685526469057926     
 soft         electrons   237.43488572319947     
 augmentation electrons   27.685526469057926     
 soft         electrons   237.43488572319947     
 augmentation electrons   27.685526469057926     
 soft         electrons   237.43488572319947     
 augmentation electrons   27.685526469057926     
 soft         electrons   237.43488572319947     
 augmentation electrons   27.685526469057926     
 soft         electrons   237.43488572319947     
 augmentation electrons   27.685526469057926     
 soft         electrons   237.43488572319947     
 augmentation electrons   27.685526469057926     
 soft         electrons   237.43488572319947     
 augmentation electrons   27.685526469057926     
 soft         electrons   237.43488572319947     
 augmentation electrons   27.685526469057926     
 soft         electrons   237.43488572319947     
 soft         electrons   237.43488572319947     
 total        electrons   265.12041219225739     
 total        electrons   265.12041219225739     
 total        electrons   265.12041219225739     
 total        electrons   265.12041219225739     
 total        electrons   265.12041219225739     
 total        electrons   265.12041219225739     
 total        electrons   265.12041219225739     
 total        electrons   265.12041219225739     
 total        electrons   265.12041219225739     
 total        electrons   265.12041219225739     
 total        electrons   265.12041219225739     
 total        electrons   265.12041219225739     
 total        electrons   265.12041219225739     
 total        electrons   265.12041219225739     
 total        electrons   265.12041219225739     
 total        electrons   265.12041219225739     
 total        electrons   265.12041219225739     
 total        electrons   265.12041219225739     
 total        electrons   265.12041219225739     
 total        electrons   265.12041219225739     
 total        electrons   265.12041219225739     
 total        electrons   265.12041219225739     
 total        electrons   265.12041219225739     
 total        electrons   265.12041219225739     
 total        electrons   265.12041219225739     
 total        electrons   265.12041219225739     
 total        electrons   265.12041219225739     
 total        electrons   265.12041219225739     
 total        electrons   265.12041219225739     
 total        electrons   265.12041219225739     
 total        electrons   265.12041219225739     
 total        electrons   265.12041219225739     
 total        electrons   265.12041219225739     
 total        electrons   265.12041219225739     
 total        electrons   265.12041219225739     
 total        electrons   265.12041219225739     
 total        electrons   265.12041219225739     
 total        electrons   265.12041219225739     
 total        electrons   265.12041219225739     
 total        electrons   265.12041219225739     
 total        electrons   265.12041219225739     
 total        electrons   265.12041219225739     
 total        electrons   265.12041219225739     
 total        electrons   265.12041219225739     
 total        electrons   265.12041219225739     
 total        electrons   265.12041219225739     
 total        electrons   265.12041219225739     
 total        electrons   265.12041219225739     
 total        electrons   265.12041219225739     
 total        electrons   265.12041219225739     
 total        electrons   265.12041219225739     
 total        electrons   265.12041219225739     
 total        electrons   265.12041219225739     
 total        electrons   265.12041219225739     
 total        electrons   265.12041219225739     
 total        electrons   265.12041219225739     
 total        electrons   265.12041219225739     
 total        electrons   265.12041219225739     
 total        electrons   265.12041219225739     
 total        electrons   265.12041219225739     
 total        electrons   265.12041219225739     
 total        electrons   265.12041219225739     
 total        electrons   265.12041219225739     
 total        electrons   265.12041219225739     
 total        electrons   265.12041219225739     
 total        electrons   265.12041219225739     
 total        electrons   265.12041219225739     
 total        electrons   265.12041219225739     
 total        electrons   265.12041219225739     
 total        electrons   265.12041219225739     
 total        electrons   265.12041219225739     
 total        electrons   265.12041219225739     
Note: The following floating-point exceptions are signalling: IEEE_OVERFLOW_FLAG
Note: The following floating-point exceptions are signalling: IEEE_OVERFLOW_FLAG
Note: The following floating-point exceptions are signalling: IEEE_OVERFLOW_FLAG
Note: The following floating-point exceptions are signalling: IEEE_OVERFLOW_FLAG
Note: The following floating-point exceptions are signalling: IEEE_OVERFLOW_FLAG
Note: The following floating-point exceptions are signalling: IEEE_OVERFLOW_FLAG
Note: The following floating-point exceptions are signalling: IEEE_OVERFLOW_FLAG
Note: The following floating-point exceptions are signalling: IEEE_OVERFLOW_FLAG
Note: The following floating-point exceptions are signalling: IEEE_OVERFLOW_FLAG
Note: The following floating-point exceptions are signalling: IEEE_OVERFLOW_FLAG
Note: The following floating-point exceptions are signalling: IEEE_OVERFLOW_FLAG
Note: The following floating-point exceptions are signalling: IEEE_OVERFLOW_FLAG
Note: The following floating-point exceptions are signalling: IEEE_OVERFLOW_FLAG
Note: The following floating-point exceptions are signalling: IEEE_OVERFLOW_FLAG
Note: The following floating-point exceptions are signalling: IEEE_OVERFLOW_FLAG
Note: The following floating-point exceptions are signalling: IEEE_OVERFLOW_FLAG
Note: The following floating-point exceptions are signalling: IEEE_OVERFLOW_FLAG
Note: The following floating-point exceptions are signalling: IEEE_OVERFLOW_FLAG
Note: The following floating-point exceptions are signalling: IEEE_OVERFLOW_FLAG
Note: The following floating-point exceptions are signalling: IEEE_OVERFLOW_FLAG
Note: The following floating-point exceptions are signalling: IEEE_OVERFLOW_FLAG
Note: The following floating-point exceptions are signalling: IEEE_OVERFLOW_FLAG
Note: The following floating-point exceptions are signalling: IEEE_OVERFLOW_FLAG
Note: The following floating-point exceptions are signalling: IEEE_OVERFLOW_FLAG
Note: The following floating-point exceptions are signalling: IEEE_INVALID_FLAG IEEE_OVERFLOW_FLAG
Note: The following floating-point exceptions are signalling: IEEE_OVERFLOW_FLAG
Note: The following floating-point exceptions are signalling: IEEE_OVERFLOW_FLAG
Note: The following floating-point exceptions are signalling: IEEE_OVERFLOW_FLAG
Note: The following floating-point exceptions are signalling: IEEE_OVERFLOW_FLAG
Note: The following floating-point exceptions are signalling: IEEE_OVERFLOW_FLAG
Note: The following floating-point exceptions are signalling: IEEE_OVERFLOW_FLAG
Note: The following floating-point exceptions are signalling: IEEE_OVERFLOW_FLAG
Note: The following floating-point exceptions are signalling: IEEE_OVERFLOW_FLAG
Note: The following floating-point exceptions are signalling: IEEE_OVERFLOW_FLAG
Note: The following floating-point exceptions are signalling: IEEE_OVERFLOW_FLAG
Note: The following floating-point exceptions are signalling: IEEE_OVERFLOW_FLAG
Note: The following floating-point exceptions are signalling: IEEE_OVERFLOW_FLAG
Note: The following floating-point exceptions are signalling: IEEE_OVERFLOW_FLAG
Note: The following floating-point exceptions are signalling: IEEE_OVERFLOW_FLAG
Note: The following floating-point exceptions are signalling: IEEE_OVERFLOW_FLAG
Note: The following floating-point exceptions are signalling: IEEE_OVERFLOW_FLAG
Note: The following floating-point exceptions are signalling: IEEE_OVERFLOW_FLAG
Note: The following floating-point exceptions are signalling: IEEE_OVERFLOW_FLAG
Note: The following floating-point exceptions are signalling: IEEE_OVERFLOW_FLAG
Note: The following floating-point exceptions are signalling: IEEE_OVERFLOW_FLAG
Note: The following floating-point exceptions are signalling: IEEE_OVERFLOW_FLAG
Note: The following floating-point exceptions are signalling: IEEE_OVERFLOW_FLAG
Note: The following floating-point exceptions are signalling: IEEE_OVERFLOW_FLAG
Note: The following floating-point exceptions are signalling: IEEE_OVERFLOW_FLAG
Note: The following floating-point exceptions are signalling: IEEE_OVERFLOW_FLAG
Note: The following floating-point exceptions are signalling: IEEE_OVERFLOW_FLAG
Note: The following floating-point exceptions are signalling: IEEE_OVERFLOW_FLAG
Note: The following floating-point exceptions are signalling: IEEE_OVERFLOW_FLAG
Note: The following floating-point exceptions are signalling: IEEE_OVERFLOW_FLAG
Note: The following floating-point exceptions are signalling: IEEE_OVERFLOW_FLAG
Note: The following floating-point exceptions are signalling: IEEE_OVERFLOW_FLAG
Note: The following floating-point exceptions are signalling: IEEE_OVERFLOW_FLAG
Note: The following floating-point exceptions are signalling: IEEE_INVALID_FLAG IEEE_OVERFLOW_FLAG
Note: The following floating-point exceptions are signalling: IEEE_OVERFLOW_FLAG
Note: The following floating-point exceptions are signalling: IEEE_OVERFLOW_FLAG
Note: The following floating-point exceptions are signalling: IEEE_OVERFLOW_FLAG
Note: The following floating-point exceptions are signalling: IEEE_OVERFLOW_FLAG
Note: The following floating-point exceptions are signalling: IEEE_OVERFLOW_FLAG
Note: The following floating-point exceptions are signalling: IEEE_OVERFLOW_FLAG
Note: The following floating-point exceptions are signalling: IEEE_OVERFLOW_FLAG
Note: The following floating-point exceptions are signalling: IEEE_OVERFLOW_FLAG
Note: The following floating-point exceptions are signalling: IEEE_OVERFLOW_FLAG
Note: The following floating-point exceptions are signalling: IEEE_OVERFLOW_FLAG
Note: The following floating-point exceptions are signalling: IEEE_OVERFLOW_FLAG
Note: The following floating-point exceptions are signalling: IEEE_OVERFLOW_FLAG
Note: The following floating-point exceptions are signalling: IEEE_OVERFLOW_FLAG
Note: The following floating-point exceptions are signalling: IEEE_OVERFLOW_FLAG
