   49   49   40    1
  0.2411350E+02  0.8645320E-09  0.6085000E-09  0.2593596E-08  0.5000000E-15
   1.0000000000000000E-004
  CAR 
 Name                                    
    179    149    114

  0.3742002E-15  0.3742002E-15  0.3742002E-15  0.3367003E-02
    1      -14.017784   1.000000
    2      -12.811854   1.000000
    3      -12.470125   1.000000
    4      -12.011531   1.000000
    5      -11.660584   1.000000
    6      -11.270128   1.000000
    7      -11.231919   1.000000
    8      -10.929382   1.000000
    9      -10.803183   1.000000
   10      -10.775778   1.000000
   11      -10.650446   1.000000
   12      -10.540354   1.000000
   13      -10.386557   1.000000
   14      -10.240364   1.000000
   15       -9.847992   1.000000
   16       -9.342741   1.000000
   17       -9.238268   1.000000
   18       -9.142497   1.000000
   19       -8.947035   1.000000
   20       -8.629002   1.000000
   21       -8.456851   1.000000
   22       -8.286865   1.000000
   23       -8.125397   1.000000
   24       -8.046500   1.000000
   25       -7.648219   1.000000
   26       -7.601812   1.000000
   27       -7.512066   1.000000
   28       -7.294032   1.000000
   29       -7.220292   1.000000
   30       -6.639241   1.000000
   31       -6.380096   1.000000
   32       -6.293256   1.000000
   33       -6.253112   1.000000
   34       -6.148812   1.000000
   35       -5.993170   1.000000
   36       -5.912415   1.000000
   37       -5.632578   1.000000
   38       -5.548400   1.000000
   39       -5.487824   1.000000
   40       -5.409289   1.000000
   41       -5.325287   1.000000
   42       -5.118022   1.000000
   43       -5.049780   1.000000
   44       -4.972712   1.000000
   45       -4.851182   1.000000
   46       -4.837092   1.000000
   47       -4.769338   1.000000
   48       -4.687130   1.000000
   49       -4.614546   1.000000
   50       -4.461846   1.000000
   51       -4.390553   1.000000
   52       -4.316483   1.000000
   53       -4.249677   1.000000
   54       -4.071782   1.000000
   55       -4.069894   1.000000
   56       -4.010571   1.000000
   57       -3.946497   1.000000
   58       -3.880526   1.000000
   59       -3.844345   1.000000
   60       -3.755928   1.000000
   61       -3.733933   1.000000
   62       -3.551110   1.000000
   63       -3.521656   1.000000
   64       -3.392684   1.000000
   65       -3.364720   1.000000
   66       -3.222153   1.000000
   67       -3.076996   1.000000
   68       -3.017632   1.000000
   69       -2.861445   1.000000
   70       -2.785307   1.000000
   71       -2.608521   1.000000
   72       -2.493927   1.000000
   73       -2.368996   1.000000
   74       -2.274938   1.000000
   75       -2.149219   1.000000
   76       -1.833381   1.000000
   77       -1.758402   1.000000
   78       -1.686217   1.000000
   79       -1.605883   1.000000
   80       -1.501959   1.000000
   81       -1.449701   1.000000
   82       -1.207536   1.000000
   83       -1.152167   1.000000
   84       -0.895371   1.000047
   85       -0.672674   1.007840
   86       -0.528815   1.034914
   87       -0.401121   0.940498
   88       -0.313169   0.672269
   89       -0.136536   0.049286
   90       -0.066699  -0.027428
   91       -0.024232  -0.035438
   92        0.006164  -0.032196
   93        0.122136  -0.008853
   94        0.157261  -0.004891
   95        0.358892  -0.000039
   96        0.391707  -0.000014
   97        0.399938  -0.000011
   98        0.441108  -0.000003
   99        0.556622  -0.000000
  100        0.592483  -0.000000
  101        0.682681  -0.000000
  102        0.729190  -0.000000
  103        0.855832  -0.000000
  104        0.985363  -0.000000
  105        1.071073  -0.000000
  106        1.085032  -0.000000
  107        1.149843  -0.000000
  108        1.174105  -0.000000
  109        1.268800  -0.000000
  110        1.338727  -0.000000
  111        1.400543  -0.000000
  112        1.541545  -0.000000
  113        1.635393  -0.000000
  114        1.790030  -0.000000

  0.1111111E+00  0.3729374E-15  0.3860503E-15  0.6734007E-02
    1      -13.994022   1.000000
    2      -12.803745   1.000000
    3      -12.574003   1.000000
    4      -11.947358   1.000000
    5      -11.642461   1.000000
    6      -11.304466   1.000000
    7      -11.242106   1.000000
    8      -10.935851   1.000000
    9      -10.801807   1.000000
   10      -10.773842   1.000000
   11      -10.639610   1.000000
   12      -10.529386   1.000000
   13      -10.354994   1.000000
   14      -10.209835   1.000000
   15       -9.851847   1.000000
   16       -9.372101   1.000000
   17       -9.229429   1.000000
   18       -9.143657   1.000000
   19       -8.949425   1.000000
   20       -8.675309   1.000000
   21       -8.487781   1.000000
   22       -8.277691   1.000000
   23       -8.095716   1.000000
   24       -8.033355   1.000000
   25       -7.677169   1.000000
   26       -7.633478   1.000000
   27       -7.556809   1.000000
   28       -7.350489   1.000000
   29       -7.134543   1.000000
   30       -6.628361   1.000000
   31       -6.347376   1.000000
   32       -6.259760   1.000000
   33       -6.223481   1.000000
   34       -6.138001   1.000000
   35       -5.980891   1.000000
   36       -5.912864   1.000000
   37       -5.665545   1.000000
   38       -5.563326   1.000000
   39       -5.445779   1.000000
   40       -5.377894   1.000000
   41       -5.273792   1.000000
   42       -5.210037   1.000000
   43       -5.076876   1.000000
   44       -4.950813   1.000000
   45       -4.892462   1.000000
   46       -4.837428   1.000000
   47       -4.724637   1.000000
   48       -4.659688   1.000000
   49       -4.616427   1.000000
   50       -4.463051   1.000000
   51       -4.362104   1.000000
   52       -4.290221   1.000000
   53       -4.270801   1.000000
   54       -4.100542   1.000000
   55       -4.051007   1.000000
   56       -4.004717   1.000000
   57       -3.936774   1.000000
   58       -3.915472   1.000000
   59       -3.839634   1.000000
   60       -3.775485   1.000000
   61       -3.713468   1.000000
   62       -3.598649   1.000000
   63       -3.497654   1.000000
   64       -3.435124   1.000000
   65       -3.362365   1.000000
   66       -3.238827   1.000000
   67       -3.055775   1.000000
   68       -2.995643   1.000000
   69       -2.865022   1.000000
   70       -2.769101   1.000000
   71       -2.637862   1.000000
   72       -2.461351   1.000000
   73       -2.353396   1.000000
   74       -2.273263   1.000000
   75       -2.165248   1.000000
   76       -1.870820   1.000000
   77       -1.755547   1.000000
   78       -1.666158   1.000000
   79       -1.612429   1.000000
   80       -1.446952   1.000000
   81       -1.413538   1.000000
   82       -1.225509   1.000000
   83       -1.151405   1.000000
   84       -0.935026   1.000014
   85       -0.654277   1.010448
   86       -0.515136   1.035452
   87       -0.426248   0.983065
   88       -0.300879   0.622971
   89       -0.166419   0.116353
   90       -0.091287  -0.011553
   91       -0.015473  -0.035022
   92        0.041536  -0.024685
   93        0.142889  -0.006296
   94        0.165440  -0.004212
   95        0.296795  -0.000221
   96        0.370948  -0.000027
   97        0.410389  -0.000008
   98        0.440245  -0.000003
   99        0.527434  -0.000000
  100        0.615902  -0.000000
  101        0.703984  -0.000000
  102        0.764364  -0.000000
  103        0.870797  -0.000000
  104        1.027356  -0.000000
  105        1.093280  -0.000000
  106        1.098329  -0.000000
  107        1.147010  -0.000000
  108        1.191988  -0.000000
  109        1.267604  -0.000000
  110        1.343935  -0.000000
  111        1.379126  -0.000000
  112        1.501483  -0.000000
  113        1.616357  -0.000000
  114        1.739298  -0.000000

  0.2222222E+00  0.3922785E-15  0.3630220E-15  0.6734007E-02
    1      -13.924827   1.000000
    2      -12.874873   1.000000
    3      -12.670656   1.000000
    4      -11.885826   1.000000
    5      -11.611956   1.000000
    6      -11.373069   1.000000
    7      -11.234182   1.000000
    8      -10.952906   1.000000
    9      -10.800417   1.000000
   10      -10.766902   1.000000
   11      -10.615909   1.000000
   12      -10.501875   1.000000
   13      -10.286368   1.000000
   14      -10.129468   1.000000
   15       -9.865675   1.000000
   16       -9.446433   1.000000
   17       -9.208236   1.000000
   18       -9.133461   1.000000
   19       -8.938345   1.000000
   20       -8.787102   1.000000
   21       -8.588440   1.000000
   22       -8.263785   1.000000
   23       -8.108184   1.000000
   24       -7.963522   1.000000
   25       -7.781857   1.000000
   26       -7.616038   1.000000
   27       -7.599849   1.000000
   28       -7.398711   1.000000
   29       -7.069784   1.000000
   30       -6.606720   1.000000
   31       -6.297412   1.000000
   32       -6.233542   1.000000
   33       -6.174592   1.000000
   34       -6.078349   1.000000
   35       -5.938810   1.000000
   36       -5.903662   1.000000
   37       -5.679327   1.000000
   38       -5.554227   1.000000
   39       -5.495419   1.000000
   40       -5.316347   1.000000
   41       -5.242645   1.000000
   42       -5.161035   1.000000
   43       -5.063183   1.000000
   44       -4.982530   1.000000
   45       -4.964829   1.000000
   46       -4.819866   1.000000
   47       -4.736756   1.000000
   48       -4.627144   1.000000
   49       -4.556330   1.000000
   50       -4.473522   1.000000
   51       -4.340315   1.000000
   52       -4.293069   1.000000
   53       -4.236445   1.000000
   54       -4.134412   1.000000
   55       -4.058560   1.000000
   56       -4.015669   1.000000
   57       -3.936050   1.000000
   58       -3.923817   1.000000
   59       -3.820022   1.000000
   60       -3.794794   1.000000
   61       -3.684999   1.000000
   62       -3.649310   1.000000
   63       -3.584525   1.000000
   64       -3.455026   1.000000
   65       -3.352912   1.000000
   66       -3.265249   1.000000
   67       -3.033445   1.000000
   68       -2.964102   1.000000
   69       -2.866321   1.000000
   70       -2.734933   1.000000
   71       -2.685205   1.000000
   72       -2.429431   1.000000
   73       -2.316317   1.000000
   74       -2.284540   1.000000
   75       -2.153054   1.000000
   76       -1.955624   1.000000
   77       -1.724259   1.000000
   78       -1.643841   1.000000
   79       -1.607045   1.000000
   80       -1.441917   1.000000
   81       -1.274031   1.000000
   82       -1.203818   1.000000
   83       -1.114230   1.000000
   84       -1.033778   1.000000
   85       -0.660969   1.009437
   86       -0.490331   1.032349
   87       -0.473156   1.025981
   88       -0.271087   0.498388
   89       -0.199141   0.215017
   90       -0.118496   0.019497
   91       -0.023807  -0.035430
   92        0.055435  -0.021478
   93        0.113185  -0.010163
   94        0.184910  -0.002901
   95        0.259264  -0.000567
   96        0.335509  -0.000077
   97        0.388335  -0.000016
   98        0.490542  -0.000000
   99        0.572635  -0.000000
  100        0.614744  -0.000000
  101        0.705327  -0.000000
  102        0.849912  -0.000000
  103        0.940429  -0.000000
  104        1.050511  -0.000000
  105        1.106350  -0.000000
  106        1.125459  -0.000000
  107        1.201341  -0.000000
  108        1.224507  -0.000000
  109        1.289457  -0.000000
  110        1.350251  -0.000000
  111        1.374846  -0.000000
  112        1.480487  -0.000000
  113        1.597358  -0.000000
  114        1.730759  -0.000000

  0.3333333E+00  0.3713828E-15  0.3468587E-15  0.6734007E-02
    1      -13.819137   1.000000
    2      -13.082523   1.000000
    3      -12.611605   1.000000
    4      -11.927052   1.000000
    5      -11.596074   1.000000
    6      -11.375916   1.000000
    7      -11.221123   1.000000
    8      -10.971706   1.000000
    9      -10.800790   1.000000
   10      -10.755320   1.000000
   11      -10.592782   1.000000
   12      -10.475412   1.000000
   13      -10.219282   1.000000
   14      -10.006287   1.000000
   15       -9.893378   1.000000
   16       -9.552679   1.000000
   17       -9.166933   1.000000
   18       -9.105273   1.000000
   19       -8.956950   1.000000
   20       -8.840435   1.000000
   21       -8.737174   1.000000
   22       -8.266926   1.000000
   23       -8.182609   1.000000
   24       -8.042340   1.000000
   25       -7.691340   1.000000
   26       -7.632361   1.000000
   27       -7.525664   1.000000
   28       -7.401762   1.000000
   29       -7.080915   1.000000
   30       -6.587774   1.000000
   31       -6.424035   1.000000
   32       -6.232771   1.000000
   33       -6.112412   1.000000
   34       -5.971474   1.000000
   35       -5.903988   1.000000
   36       -5.842450   1.000000
   37       -5.658882   1.000000
   38       -5.528976   1.000000
   39       -5.472914   1.000000
   40       -5.303050   1.000000
   41       -5.216650   1.000000
   42       -5.142059   1.000000
   43       -5.070751   1.000000
   44       -5.015107   1.000000
   45       -4.892625   1.000000
   46       -4.812935   1.000000
   47       -4.717122   1.000000
   48       -4.603643   1.000000
   49       -4.526959   1.000000
   50       -4.492485   1.000000
   51       -4.351715   1.000000
   52       -4.307040   1.000000
   53       -4.243864   1.000000
   54       -4.178725   1.000000
   55       -4.081485   1.000000
   56       -4.022140   1.000000
   57       -3.956243   1.000000
   58       -3.876743   1.000000
   59       -3.815340   1.000000
   60       -3.764592   1.000000
   61       -3.696415   1.000000
   62       -3.659298   1.000000
   63       -3.638749   1.000000
   64       -3.461851   1.000000
   65       -3.359365   1.000000
   66       -3.272661   1.000000
   67       -3.052714   1.000000
   68       -2.956082   1.000000
   69       -2.914097   1.000000
   70       -2.740297   1.000000
   71       -2.658694   1.000000
   72       -2.479281   1.000000
   73       -2.272575   1.000000
   74       -2.238344   1.000000
   75       -2.141158   1.000000
   76       -1.963775   1.000000
   77       -1.722900   1.000000
   78       -1.652941   1.000000
   79       -1.570312   1.000000
   80       -1.441783   1.000000
   81       -1.274289   1.000000
   82       -1.131152   1.000000
   83       -1.115064   1.000000
   84       -0.908212   1.000032
   85       -0.662939   1.009153
   86       -0.536277   1.034135
   87       -0.501968   1.034572
   88       -0.293591   0.592978
   89       -0.229445   0.326465
   90       -0.198017   0.211222
   91       -0.123481   0.026954
   92        0.053764  -0.021861
   93        0.138404  -0.006794
   94        0.247346  -0.000753
   95        0.283122  -0.000314
   96        0.320108  -0.000118
   97        0.378418  -0.000022
   98        0.550221  -0.000000
   99        0.610391  -0.000000
  100        0.667690  -0.000000
  101        0.731314  -0.000000
  102        0.913974  -0.000000
  103        1.012425  -0.000000
  104        1.028412  -0.000000
  105        1.095636  -0.000000
  106        1.160215  -0.000000
  107        1.237966  -0.000000
  108        1.276305  -0.000000
  109        1.318313  -0.000000
  110        1.375760  -0.000000
  111        1.465938  -0.000000
  112        1.493480  -0.000000
  113        1.561194  -0.000000
  114        1.646011  -0.000000

  0.4444444E+00  0.3870091E-15  0.3932070E-15  0.6734007E-02
    1      -13.711319   1.000000
    2      -13.254090   1.000000
    3      -12.541285   1.000000
    4      -12.010566   1.000000
    5      -11.575292   1.000000
    6      -11.360936   1.000000
    7      -11.212373   1.000000
    8      -10.983251   1.000000
    9      -10.801326   1.000000
   10      -10.746599   1.000000
   11      -10.579517   1.000000
   12      -10.461861   1.000000
   13      -10.171135   1.000000
   14       -9.923735   1.000000
   15       -9.860592   1.000000
   16       -9.680272   1.000000
   17       -9.102126   1.000000
   18       -9.075848   1.000000
   19       -9.038261   1.000000
   20       -8.889487   1.000000
   21       -8.748853   1.000000
   22       -8.354516   1.000000
   23       -8.256580   1.000000
   24       -8.042992   1.000000
   25       -7.668133   1.000000
   26       -7.598647   1.000000
   27       -7.513394   1.000000
   28       -7.245785   1.000000
   29       -7.120528   1.000000
   30       -6.671031   1.000000
   31       -6.556718   1.000000
   32       -6.226052   1.000000
   33       -6.071164   1.000000
   34       -5.900252   1.000000
   35       -5.831299   1.000000
   36       -5.798544   1.000000
   37       -5.642082   1.000000
   38       -5.511759   1.000000
   39       -5.416757   1.000000
   40       -5.353357   1.000000
   41       -5.217678   1.000000
   42       -5.169880   1.000000
   43       -5.059574   1.000000
   44       -4.984570   1.000000
   45       -4.846167   1.000000
   46       -4.750350   1.000000
   47       -4.682326   1.000000
   48       -4.608110   1.000000
   49       -4.546459   1.000000
   50       -4.448320   1.000000
   51       -4.384516   1.000000
   52       -4.356203   1.000000
   53       -4.318962   1.000000
   54       -4.163041   1.000000
   55       -4.119564   1.000000
   56       -4.022305   1.000000
   57       -3.946453   1.000000
   58       -3.885909   1.000000
   59       -3.820432   1.000000
   60       -3.714535   1.000000
   61       -3.676318   1.000000
   62       -3.649005   1.000000
   63       -3.620278   1.000000
   64       -3.486555   1.000000
   65       -3.385217   1.000000
   66       -3.254042   1.000000
   67       -3.084728   1.000000
   68       -3.002712   1.000000
   69       -2.950222   1.000000
   70       -2.733290   1.000000
   71       -2.641260   1.000000
   72       -2.524756   1.000000
   73       -2.242607   1.000000
   74       -2.190979   1.000000
   75       -2.154885   1.000000
   76       -1.893602   1.000000
   77       -1.740661   1.000000
   78       -1.676686   1.000000
   79       -1.563213   1.000000
   80       -1.424907   1.000000
   81       -1.345975   1.000000
   82       -1.094034   1.000000
   83       -1.001146   1.000002
   84       -0.805249   1.000527
   85       -0.682013   1.006717
   86       -0.595058   1.022238
   87       -0.471286   1.025033
   88       -0.395065   0.927923
   89       -0.298923   0.614966
   90       -0.194679   0.200107
   91       -0.107348   0.004869
   92        0.029804  -0.027367
   93        0.091286  -0.013908
   94        0.195473  -0.002347
   95        0.249246  -0.000720
   96        0.391764  -0.000014
   97        0.435083  -0.000003
   98        0.558591  -0.000000
   99        0.673837  -0.000000
  100        0.778751  -0.000000
  101        0.842060  -0.000000
  102        0.915996  -0.000000
  103        0.964141  -0.000000
  104        1.063739  -0.000000
  105        1.107023  -0.000000
  106        1.180753  -0.000000
  107        1.248044  -0.000000
  108        1.281741  -0.000000
  109        1.289298  -0.000000
  110        1.382546  -0.000000
  111        1.424834  -0.000000
  112        1.481584  -0.000000
  113        1.538274  -0.000000
  114        1.657851  -0.000000

  0.3742002E-15  0.9090909E-01  0.3596334E-15  0.6734007E-02
    1      -13.985214   1.000000
    2      -12.785703   1.000000
    3      -12.474149   1.000000
    4      -11.979869   1.000000
    5      -11.638344   1.000000
    6      -11.418151   1.000000
    7      -11.258482   1.000000
    8      -11.148990   1.000000
    9      -10.918901   1.000000
   10      -10.679824   1.000000
   11      -10.544774   1.000000
   12      -10.414044   1.000000
   13      -10.351299   1.000000
   14      -10.303899   1.000000
   15       -9.743584   1.000000
   16       -9.520544   1.000000
   17       -9.192553   1.000000
   18       -9.074789   1.000000
   19       -8.858784   1.000000
   20       -8.619587   1.000000
   21       -8.501645   1.000000
   22       -8.220409   1.000000
   23       -8.113553   1.000000
   24       -7.995622   1.000000
   25       -7.671272   1.000000
   26       -7.580392   1.000000
   27       -7.395895   1.000000
   28       -7.234067   1.000000
   29       -7.169126   1.000000
   30       -6.639336   1.000000
   31       -6.404567   1.000000
   32       -6.304243   1.000000
   33       -6.240387   1.000000
   34       -6.149964   1.000000
   35       -5.986067   1.000000
   36       -5.902283   1.000000
   37       -5.666603   1.000000
   38       -5.534830   1.000000
   39       -5.481683   1.000000
   40       -5.399475   1.000000
   41       -5.305457   1.000000
   42       -5.185773   1.000000
   43       -5.108655   1.000000
   44       -4.970937   1.000000
   45       -4.927153   1.000000
   46       -4.876666   1.000000
   47       -4.785518   1.000000
   48       -4.702084   1.000000
   49       -4.631653   1.000000
   50       -4.481783   1.000000
   51       -4.430378   1.000000
   52       -4.327093   1.000000
   53       -4.281597   1.000000
   54       -4.212891   1.000000
   55       -4.094287   1.000000
   56       -4.005683   1.000000
   57       -3.973984   1.000000
   58       -3.888417   1.000000
   59       -3.790683   1.000000
   60       -3.733123   1.000000
   61       -3.639458   1.000000
   62       -3.584201   1.000000
   63       -3.523637   1.000000
   64       -3.411460   1.000000
   65       -3.321315   1.000000
   66       -3.237501   1.000000
   67       -3.069530   1.000000
   68       -3.029426   1.000000
   69       -2.876641   1.000000
   70       -2.813977   1.000000
   71       -2.586138   1.000000
   72       -2.499507   1.000000
   73       -2.388838   1.000000
   74       -2.250522   1.000000
   75       -2.051705   1.000000
   76       -1.860234   1.000000
   77       -1.770551   1.000000
   78       -1.706093   1.000000
   79       -1.607782   1.000000
   80       -1.569914   1.000000
   81       -1.407249   1.000000
   82       -1.217706   1.000000
   83       -1.141542   1.000000
   84       -0.893436   1.000050
   85       -0.782040   1.000911
   86       -0.558664   1.030386
   87       -0.484490   1.030632
   88       -0.374724   0.878908
   89       -0.233205   0.341338
   90       -0.115833   0.015749
   91       -0.057048  -0.031082
   92        0.016173  -0.030296
   93        0.109050  -0.010811
   94        0.195331  -0.002354
   95        0.324763  -0.000104
   96        0.366315  -0.000031
   97        0.483771  -0.000001
   98        0.518157  -0.000000
   99        0.573072  -0.000000
  100        0.651692  -0.000000
  101        0.697062  -0.000000
  102        0.777491  -0.000000
  103        0.871491  -0.000000
  104        1.008181  -0.000000
  105        1.064965  -0.000000
  106        1.116610  -0.000000
  107        1.166399  -0.000000
  108        1.184720  -0.000000
  109        1.270643  -0.000000
  110        1.324380  -0.000000
  111        1.391583  -0.000000
  112        1.534893  -0.000000
  113        1.642092  -0.000000
  114        1.696971  -0.000000

  0.1111111E+00  0.9090909E-01  0.4822234E-15  0.6734007E-02
    1      -13.942551   1.000000
    2      -12.784932   1.000000
    3      -12.616506   1.000000
    4      -11.896628   1.000000
    5      -11.610163   1.000000
    6      -11.429559   1.000000
    7      -11.329997   1.000000
    8      -11.149870   1.000000
    9      -10.886863   1.000000
   10      -10.670780   1.000000
   11      -10.518919   1.000000
   12      -10.405490   1.000000
   13      -10.317254   1.000000
   14      -10.284373   1.000000
   15       -9.739115   1.000000
   16       -9.539966   1.000000
   17       -9.197359   1.000000
   18       -9.071024   1.000000
   19       -8.868614   1.000000
   20       -8.688804   1.000000
   21       -8.507318   1.000000
   22       -8.278477   1.000000
   23       -8.075786   1.000000
   24       -7.952050   1.000000
   25       -7.697560   1.000000
   26       -7.668118   1.000000
   27       -7.467694   1.000000
   28       -7.229336   1.000000
   29       -7.094587   1.000000
   30       -6.642098   1.000000
   31       -6.347265   1.000000
   32       -6.264922   1.000000
   33       -6.207069   1.000000
   34       -6.120240   1.000000
   35       -5.973222   1.000000
   36       -5.899814   1.000000
   37       -5.695852   1.000000
   38       -5.528584   1.000000
   39       -5.438685   1.000000
   40       -5.387018   1.000000
   41       -5.275959   1.000000
   42       -5.181126   1.000000
   43       -5.116746   1.000000
   44       -5.041684   1.000000
   45       -4.942633   1.000000
   46       -4.855110   1.000000
   47       -4.780888   1.000000
   48       -4.669591   1.000000
   49       -4.593481   1.000000
   50       -4.464549   1.000000
   51       -4.403259   1.000000
   52       -4.342961   1.000000
   53       -4.268508   1.000000
   54       -4.191469   1.000000
   55       -4.114616   1.000000
   56       -4.025444   1.000000
   57       -3.958912   1.000000
   58       -3.888391   1.000000
   59       -3.822784   1.000000
   60       -3.729979   1.000000
   61       -3.656214   1.000000
   62       -3.630329   1.000000
   63       -3.534697   1.000000
   64       -3.466135   1.000000
   65       -3.327333   1.000000
   66       -3.229668   1.000000
   67       -3.057075   1.000000
   68       -2.962622   1.000000
   69       -2.854619   1.000000
   70       -2.822438   1.000000
   71       -2.675218   1.000000
   72       -2.479529   1.000000
   73       -2.340923   1.000000
   74       -2.242818   1.000000
   75       -2.128669   1.000000
   76       -1.886928   1.000000
   77       -1.745072   1.000000
   78       -1.680770   1.000000
   79       -1.627838   1.000000
   80       -1.449021   1.000000
   81       -1.363093   1.000000
   82       -1.243692   1.000000
   83       -1.135642   1.000000
   84       -0.948378   1.000009
   85       -0.743219   1.002126
   86       -0.557959   1.030527
   87       -0.511340   1.035355
   88       -0.354210   0.819097
   89       -0.228734   0.323675
   90       -0.140941   0.057763
   91       -0.050458  -0.032875
   92        0.012243  -0.031074
   93        0.130651  -0.007724
   94        0.204435  -0.001950
   95        0.292217  -0.000249
   96        0.394257  -0.000013
   97        0.437798  -0.000003
   98        0.510548  -0.000000
   99        0.586545  -0.000000
  100        0.660393  -0.000000
  101        0.689890  -0.000000
  102        0.813796  -0.000000
  103        0.910631  -0.000000
  104        1.032998  -0.000000
  105        1.094377  -0.000000
  106        1.146145  -0.000000
  107        1.180308  -0.000000
  108        1.193275  -0.000000
  109        1.280589  -0.000000
  110        1.326599  -0.000000
  111        1.369935  -0.000000
  112        1.528965  -0.000000
  113        1.588030  -0.000000
  114        1.704296  -0.000000

  0.2222222E+00  0.9090909E-01  0.3065600E-15  0.6734007E-02
    1      -13.857072   1.000000
    2      -12.933636   1.000000
    3      -12.631115   1.000000
    4      -11.874271   1.000000
    5      -11.589473   1.000000
    6      -11.447163   1.000000
    7      -11.366438   1.000000
    8      -11.158408   1.000000
    9      -10.828121   1.000000
   10      -10.657469   1.000000
   11      -10.500871   1.000000
   12      -10.400281   1.000000
   13      -10.262087   1.000000
   14      -10.233786   1.000000
   15       -9.753056   1.000000
   16       -9.547240   1.000000
   17       -9.232956   1.000000
   18       -9.039202   1.000000
   19       -8.880222   1.000000
   20       -8.771993   1.000000
   21       -8.537355   1.000000
   22       -8.368933   1.000000
   23       -8.094624   1.000000
   24       -7.975932   1.000000
   25       -7.696585   1.000000
   26       -7.668305   1.000000
   27       -7.460044   1.000000
   28       -7.242112   1.000000
   29       -7.072074   1.000000
   30       -6.649880   1.000000
   31       -6.347252   1.000000
   32       -6.229672   1.000000
   33       -6.131482   1.000000
   34       -6.087500   1.000000
   35       -5.965454   1.000000
   36       -5.857019   1.000000
   37       -5.658872   1.000000
   38       -5.521988   1.000000
   39       -5.479688   1.000000
   40       -5.367741   1.000000
   41       -5.224892   1.000000
   42       -5.136062   1.000000
   43       -5.097455   1.000000
   44       -5.075453   1.000000
   45       -4.949799   1.000000
   46       -4.840764   1.000000
   47       -4.748532   1.000000
   48       -4.654567   1.000000
   49       -4.551571   1.000000
   50       -4.466950   1.000000
   51       -4.402348   1.000000
   52       -4.345183   1.000000
   53       -4.263057   1.000000
   54       -4.198242   1.000000
   55       -4.091055   1.000000
   56       -4.024225   1.000000
   57       -3.951998   1.000000
   58       -3.907307   1.000000
   59       -3.837070   1.000000
   60       -3.743688   1.000000
   61       -3.698026   1.000000
   62       -3.655171   1.000000
   63       -3.569552   1.000000
   64       -3.493793   1.000000
   65       -3.344548   1.000000
   66       -3.219499   1.000000
   67       -3.070367   1.000000
   68       -2.953791   1.000000
   69       -2.834174   1.000000
   70       -2.798472   1.000000
   71       -2.742651   1.000000
   72       -2.435312   1.000000
   73       -2.314497   1.000000
   74       -2.255649   1.000000
   75       -2.173466   1.000000
   76       -1.919031   1.000000
   77       -1.738071   1.000000
   78       -1.716124   1.000000
   79       -1.570980   1.000000
   80       -1.405805   1.000000
   81       -1.263973   1.000000
   82       -1.189140   1.000000
   83       -1.097092   1.000000
   84       -0.998285   1.000002
   85       -0.739537   1.002293
   86       -0.609529   1.018972
   87       -0.523301   1.035284
   88       -0.312827   0.670926
   89       -0.257334   0.440359
   90       -0.125156   0.029591