   55   55    1    1
  0.1298907E+02  0.6078000E-09  0.6078000E-09  0.2233000E-08  0.5000000E-15
   1.0000000000000000E-004
  CAR 
 Name                                    
    203     41    132

  0.3742002E-15  0.3742002E-15  0.1262379E-14  0.1234568E-01
    1      -11.224298   1.000000
    2      -10.650219   1.000000
    3       -9.833714   1.000000
    4       -8.498830   1.000000
    5       -8.351756   1.000000
    6       -8.331723   1.000000
    7       -7.946602   1.000000
    8       -7.892178   1.000000
    9       -7.756610   1.000000
   10       -7.628887   1.000000
   11       -7.486414   1.000000
   12       -7.428228   1.000000
   13       -7.418384   1.000000
   14       -7.417445   1.000000
   15       -7.090652   1.000000
   16       -7.066651   1.000000
   17       -7.035926   1.000000
   18       -6.826487   1.000000
   19       -6.783138   1.000000
   20       -6.532210   1.000000
   21       -6.306591   1.000000
   22       -5.924636   1.000000
   23       -5.883589   1.000000
   24       -5.656876   1.000000
   25       -5.596678   1.000000
   26       -5.540874   1.000000
   27       -5.515959   1.000000
   28       -5.190422   1.000000
   29       -5.010325   1.000000
   30       -4.920190   1.000000
   31       -4.427599   1.000000
   32       -4.333654   1.000000
   33       -4.273110   1.000000
   34       -4.224316   1.000000
   35       -3.995794   1.000000
   36       -3.885463   1.000000
   37       -3.805674   1.000000
   38       -3.284971   1.000000
   39       -3.088913   1.000000
   40       -2.944911   1.000000
   41       -2.754139   1.000000
   42       -2.725493   1.000000
   43       -2.560462   1.000000
   44       -2.432573   1.000000
   45       -2.360988   1.000000
   46       -2.199387   1.000000
   47       -2.197620   1.000000
   48       -2.032036   1.000000
   49       -1.999172   1.000000
   50       -1.837774   1.000000
   51       -1.718484   1.000000
   52       -1.682741   1.000000
   53       -1.631934   1.000000
   54       -1.609810   1.000000
   55       -1.567615   1.000000
   56       -1.481415   1.000000
   57       -1.406607   1.000000
   58       -1.352941   1.000000
   59       -1.292160   1.000000
   60       -1.286326   1.000000
   61       -1.227502   1.000000
   62       -1.197795   1.000000
   63       -1.046284   1.000000
   64       -0.867068   1.000000
   65       -0.838346   1.000000
   66       -0.820806   1.000000
   67       -0.645238   1.000000
   68       -0.637258   1.000000
   69       -0.556406   1.000000
   70       -0.544414   1.000000
   71       -0.505075   1.000000
   72       -0.442041   1.000000
   73       -0.384611   1.000000
   74       -0.302482   1.000000
   75        0.022436   1.000000
   76        0.108926   1.000000
   77        0.132938   1.000000
   78        0.261293   1.000000
   79        0.421663   1.000000
   80        0.579658   1.000000
   81        0.672569   1.000000
   82        0.716413   1.000000
   83        0.833456   1.000000
   84        1.335222   1.000000
   85        1.400181   1.000000
   86        1.494909   1.000000
   87        1.527368   1.000000
   88        1.572626   1.000000
   89        1.684465   1.000000
   90        1.724420   1.000000
   91        1.828613   1.000000
   92        1.868789   1.000000
   93        1.911344   1.000000
   94        1.924749   1.000000
   95        2.080160   1.000000
   96        2.198631   1.000000
   97        2.422372   1.000044
   98        2.484918   1.000246
   99        2.857987   1.019783
  100        2.961348   0.834190
  101        3.028816   0.584737
  102        3.232319  -0.014203
  103        3.254114  -0.027602
  104        3.388633  -0.018617
  105        3.494406  -0.003586
  106        3.634548  -0.000139
  107        3.641401  -0.000115
  108        3.826473  -0.000000
  109        3.847195  -0.000000
  110        3.868913  -0.000000
  111        3.900825  -0.000000
  112        3.986098  -0.000000
  113        4.132462  -0.000000
  114        4.148991  -0.000000
  115        4.198079  -0.000000
  116        4.250667  -0.000000
  117        4.320234  -0.000000
  118        4.389359  -0.000000
  119        4.528938  -0.000000
  120        4.536973  -0.000000
  121        4.580083  -0.000000
  122        4.611718  -0.000000
  123        4.669103  -0.000000
  124        4.712492  -0.000000
  125        5.241209  -0.000000
  126        5.400942  -0.000000
  127        5.407312  -0.000000
  128        5.677498  -0.000000
  129        5.954977  -0.000000
  130        6.271420  -0.000000
  131        6.346392  -0.000000
  132        6.550461  -0.000000

  0.1111111E+00  0.3687552E-15  0.1262379E-14  0.2469136E-01
    1      -11.166702   1.000000
    2      -10.598202   1.000000
    3       -9.795061   1.000000
    4       -8.465609   1.000000
    5       -8.367606   1.000000
    6       -8.315859   1.000000
    7       -8.064314   1.000000
    8       -8.034627   1.000000
    9       -7.927150   1.000000
   10       -7.822854   1.000000
   11       -7.721336   1.000000
   12       -7.671150   1.000000
   13       -7.539485   1.000000
   14       -7.505381   1.000000
   15       -6.926668   1.000000
   16       -6.850493   1.000000
   17       -6.716913   1.000000
   18       -6.664021   1.000000
   19       -6.561135   1.000000
   20       -6.391559   1.000000
   21       -6.248312   1.000000
   22       -5.928327   1.000000
   23       -5.828252   1.000000
   24       -5.712718   1.000000
   25       -5.575643   1.000000
   26       -5.526425   1.000000
   27       -5.410708   1.000000
   28       -5.198280   1.000000
   29       -5.044971   1.000000
   30       -4.936380   1.000000
   31       -4.344207   1.000000
   32       -4.262276   1.000000
   33       -4.204239   1.000000
   34       -4.059723   1.000000
   35       -3.909768   1.000000
   36       -3.806309   1.000000
   37       -3.612349   1.000000
   38       -3.266413   1.000000
   39       -3.078608   1.000000
   40       -2.916944   1.000000
   41       -2.807845   1.000000
   42       -2.686434   1.000000
   43       -2.649537   1.000000
   44       -2.411659   1.000000
   45       -2.386131   1.000000
   46       -2.273270   1.000000
   47       -2.235569   1.000000
   48       -2.151767   1.000000
   49       -2.086152   1.000000
   50       -1.979850   1.000000
   51       -1.770788   1.000000
   52       -1.690314   1.000000
   53       -1.626697   1.000000
   54       -1.614715   1.000000
   55       -1.541642   1.000000
   56       -1.448008   1.000000
   57       -1.395070   1.000000
   58       -1.329800   1.000000
   59       -1.300344   1.000000
   60       -1.239124   1.000000
   61       -1.225906   1.000000
   62       -1.174421   1.000000
   63       -1.079354   1.000000
   64       -0.940404   1.000000
   65       -0.896330   1.000000
   66       -0.849475   1.000000
   67       -0.810072   1.000000
   68       -0.696093   1.000000
   69       -0.677725   1.000000
   70       -0.569155   1.000000
   71       -0.493260   1.000000
   72       -0.457221   1.000000
   73       -0.326553   1.000000
   74       -0.232919   1.000000
   75       -0.040432   1.000000
   76        0.022405   1.000000
   77        0.098337   1.000000
   78        0.267975   1.000000
   79        0.312935   1.000000
   80        0.386996   1.000000
   81        0.574983   1.000000
   82        0.677348   1.000000
   83        0.789181   1.000000
   84        1.153989   1.000000
   85        1.205620   1.000000
   86        1.309307   1.000000
   87        1.481760   1.000000
   88        1.593693   1.000000
   89        1.644670   1.000000
   90        1.760675   1.000000
   91        1.769970   1.000000
   92        1.845575   1.000000
   93        1.878582   1.000000
   94        1.998030   1.000000
   95        2.084661   1.000000
   96        2.198147   1.000000
   97        2.632319   1.006055
   98        2.735202   1.024512
   99        2.906908   0.963396
  100        2.916622   0.945770
  101        3.051749   0.488176
  102        3.116326   0.232067
  103        3.171645   0.074040
  104        3.341286  -0.029323
  105        3.423535  -0.011791
  106        3.699990  -0.000021
  107        3.793972  -0.000001
  108        3.832777  -0.000000
  109        3.863411  -0.000000
  110        3.886559  -0.000000
  111        3.929990  -0.000000
  112        3.980274  -0.000000
  113        4.061038  -0.000000
  114        4.135370  -0.000000
  115        4.165805  -0.000000
  116        4.204599  -0.000000
  117        4.247443  -0.000000
  118        4.273523  -0.000000
  119        4.305143  -0.000000
  120        4.419591  -0.000000
  121        4.461512  -0.000000
  122        4.485167  -0.000000
  123        4.521315  -0.000000
  124        4.594894  -0.000000
  125        4.646843  -0.000000
  126        4.721253  -0.000000
  127        4.885084  -0.000000
  128        5.149016  -0.000000
  129        5.308651  -0.000000
  130        5.974532  -0.000000
  131        6.355416  -0.000000
  132        6.469382  -0.000000

  0.2222222E+00  0.3503827E-15  0.1262379E-14  0.2469136E-01
    1      -10.996099   1.000000
    2      -10.444754   1.000000
    3       -9.682860   1.000000
    4       -8.689090   1.000000
    5       -8.529788   1.000000
    6       -8.425502   1.000000
    7       -8.354565   1.000000
    8       -8.212081   1.000000
    9       -8.035391   1.000000
   10       -7.917279   1.000000
   11       -7.867284   1.000000
   12       -7.851549   1.000000
   13       -7.745158   1.000000
   14       -7.682957   1.000000
   15       -6.835728   1.000000
   16       -6.714367   1.000000
   17       -6.492438   1.000000
   18       -6.435892   1.000000
   19       -6.366451   1.000000
   20       -6.198974   1.000000
   21       -5.895618   1.000000
   22       -5.760297   1.000000
   23       -5.665157   1.000000
   24       -5.598232   1.000000
   25       -5.515792   1.000000
   26       -5.429199   1.000000
   27       -5.265798   1.000000
   28       -5.180569   1.000000
   29       -4.885810   1.000000
   30       -4.748432   1.000000
   31       -4.202439   1.000000
   32       -4.101498   1.000000
   33       -4.076210   1.000000
   34       -3.745345   1.000000
   35       -3.659693   1.000000
   36       -3.559361   1.000000
   37       -3.248663   1.000000
   38       -3.189367   1.000000
   39       -3.077279   1.000000
   40       -3.011667   1.000000
   41       -2.921960   1.000000
   42       -2.830098   1.000000
   43       -2.804471   1.000000
   44       -2.684761   1.000000
   45       -2.535092   1.000000
   46       -2.326352   1.000000
   47       -2.288397   1.000000
   48       -2.224462   1.000000
   49       -2.058430   1.000000
   50       -1.943071   1.000000
   51       -1.835260   1.000000
   52       -1.723179   1.000000
   53       -1.678390   1.000000
   54       -1.632947   1.000000
   55       -1.606741   1.000000
   56       -1.540271   1.000000
   57       -1.469357   1.000000
   58       -1.403897   1.000000
   59       -1.327403   1.000000
   60       -1.259167   1.000000
   61       -1.241478   1.000000
   62       -1.205339   1.000000
   63       -1.180335   1.000000
   64       -1.072302   1.000000
   65       -1.038198   1.000000
   66       -0.970034   1.000000
   67       -0.908089   1.000000
   68       -0.862917   1.000000
   69       -0.775068   1.000000
   70       -0.726783   1.000000
   71       -0.578045   1.000000
   72       -0.485534   1.000000
   73       -0.375730   1.000000
   74       -0.330009   1.000000
   75       -0.266218   1.000000
   76       -0.206003   1.000000
   77        0.079496   1.000000
   78        0.187665   1.000000
   79        0.247874   1.000000
   80        0.326914   1.000000
   81        0.450868   1.000000
   82        0.664096   1.000000
   83        0.775914   1.000000
   84        0.867452   1.000000
   85        0.950614   1.000000
   86        1.179328   1.000000
   87        1.233498   1.000000
   88        1.446276   1.000000
   89        1.561872   1.000000
   90        1.652007   1.000000
   91        1.726972   1.000000
   92        1.738901   1.000000
   93        1.912542   1.000000
   94        2.024161   1.000000
   95        2.109826   1.000000
   96        2.167949   1.000000
   97        2.580863   1.002292
   98        2.646096   1.007632
   99        2.807585   1.035407
  100        3.015185   0.640656
  101        3.046903   0.508679
  102        3.248999  -0.025150
  103        3.356914  -0.025848
  104        3.443425  -0.008733
  105        3.545388  -0.001254
  106        3.646175  -0.000101
  107        3.667938  -0.000054
  108        3.726709  -0.000009
  109        3.740687  -0.000006
  110        3.767092  -0.000002
  111        3.862212  -0.000000
  112        3.943534  -0.000000
  113        3.987640  -0.000000
  114        4.015223  -0.000000
  115        4.062429  -0.000000
  116        4.105389  -0.000000
  117        4.177670  -0.000000
  118        4.212765  -0.000000
  119        4.283132  -0.000000
  120        4.340700  -0.000000
  121        4.385359  -0.000000
  122        4.449422  -0.000000
  123        4.511961  -0.000000
  124        4.569859  -0.000000
  125        4.614596  -0.000000
  126        4.780934  -0.000000
  127        4.852577  -0.000000
  128        4.870494  -0.000000
  129        5.146765  -0.000000
  130        5.327187  -0.000000
  131        5.403429  -0.000000
  132        6.291497  -0.000000

  0.3333333E+00  0.3767071E-15  0.1262379E-14  0.2469136E-01
    1      -10.719720   1.000000
    2      -10.198190   1.000000
    3       -9.510968   1.000000
    4       -9.288438   1.000000
    5       -8.969216   1.000000
    6       -8.684321   1.000000
    7       -8.223770   1.000000
    8       -8.141152   1.000000
    9       -8.073448   1.000000
   10       -8.031887   1.000000
   11       -7.968352   1.000000
   12       -7.884524   1.000000
   13       -7.851395   1.000000
   14       -7.775078   1.000000
   15       -7.068537   1.000000
   16       -7.048300   1.000000
   17       -6.281671   1.000000
   18       -6.185158   1.000000
   19       -6.018276   1.000000
   20       -5.882483   1.000000
   21       -5.763106   1.000000
   22       -5.664402   1.000000
   23       -5.586424   1.000000
   24       -5.521015   1.000000
   25       -5.373926   1.000000
   26       -5.290207   1.000000
   27       -4.836249   1.000000
   28       -4.695923   1.000000
   29       -4.451728   1.000000
   30       -4.326095   1.000000
   31       -4.013655   1.000000
   32       -3.910383   1.000000
   33       -3.811689   1.000000
   34       -3.595064   1.000000
   35       -3.488777   1.000000
   36       -3.418284   1.000000
   37       -3.372549   1.000000
   38       -3.317220   1.000000
   39       -3.260981   1.000000
   40       -3.198230   1.000000
   41       -3.109624   1.000000
   42       -3.041811   1.000000
   43       -2.763947   1.000000
   44       -2.600178   1.000000
   45       -2.492142   1.000000
   46       -2.405350   1.000000
   47       -2.220401   1.000000
   48       -2.170069   1.000000
   49       -2.110258   1.000000
   50       -2.025791   1.000000
   51       -1.957683   1.000000
   52       -1.917015   1.000000
   53       -1.820286   1.000000
   54       -1.788683   1.000000
   55       -1.718784   1.000000
   56       -1.600440   1.000000
   57       -1.570631   1.000000
   58       -1.486981   1.000000
   59       -1.469636   1.000000
   60       -1.412429   1.000000
   61       -1.366150   1.000000
   62       -1.297483   1.000000
   63       -1.258715   1.000000
   64       -1.203365   1.000000
   65       -1.143994   1.000000
   66       -1.060230   1.000000
   67       -0.986460   1.000000
   68       -0.943115   1.000000
   69       -0.850589   1.000000
   70       -0.815557   1.000000
   71       -0.676130   1.000000
   72       -0.574528   1.000000
   73       -0.536509   1.000000
   74       -0.385455   1.000000
   75       -0.330013   1.000000
   76       -0.280493   1.000000
   77       -0.252579   1.000000
   78        0.013560   1.000000
   79        0.155628   1.000000
   80        0.358736   1.000000
   81        0.579421   1.000000
   82        0.616641   1.000000
   83        0.757535   1.000000
   84        0.860449   1.000000
   85        0.917803   1.000000
   86        1.037347   1.000000
   87        1.222984   1.000000
   88        1.275443   1.000000
   89        1.415036   1.000000
   90        1.541935   1.000000
   91        1.629616   1.000000
   92        1.693631   1.000000
   93        1.838627   1.000000
   94        1.931233   1.000000
   95        1.992795   1.000000
   96        2.327892   1.000002
   97        2.400083   1.000022
   98        2.460114   1.000127
   99        2.621185   1.004976
  100        2.938624   0.897138
  101        3.013409   0.647803
  102        3.145606   0.139236
  103        3.194531   0.030768
  104        3.294713  -0.035455
  105        3.326400  -0.032229
  106        3.439131  -0.009339
  107        3.543848  -0.001297
  108        3.603876  -0.000311
  109        3.673915  -0.000046
  110        3.739466  -0.000006
  111        3.779174  -0.000002
  112        3.831408  -0.000000
  113        3.848770  -0.000000
  114        3.966426  -0.000000
  115        4.009900  -0.000000
  116        4.098631  -0.000000
  117        4.148167  -0.000000
  118        4.179343  -0.000000
  119        4.234692  -0.000000
  120        4.305585  -0.000000
  121        4.393326  -0.000000
  122        4.474006  -0.000000
  123        4.575193  -0.000000
  124        4.635511  -0.000000
  125        4.690003  -0.000000
  126        4.735567  -0.000000
  127        4.821209  -0.000000
  128        4.914664  -0.000000
  129        5.175619  -0.000000
  130        5.422510  -0.000000
  131        5.552940  -0.000000
  132        6.031581  -0.000000

  0.4444444E+00  0.3698634E-15  0.1262379E-14  0.2469136E-01
    1      -10.361384   1.000000
    2       -9.894492   1.000000
    3       -9.797152   1.000000
    4       -9.454559   1.000000
    5       -9.252686   1.000000
    6       -8.946215   1.000000
    7       -8.190645   1.000000
    8       -8.139280   1.000000
    9       -8.106437   1.000000
   10       -8.040054   1.000000
   11       -7.910072   1.000000
   12       -7.905444   1.000000
   13       -7.811314   1.000000
   14       -7.758654   1.000000
   15       -7.439504   1.000000
   16       -7.231240   1.000000
   17       -6.185886   1.000000
   18       -6.078663   1.000000
   19       -5.934046   1.000000
   20       -5.701144   1.000000
   21       -5.681090   1.000000
   22       -5.480620   1.000000
   23       -5.452813   1.000000
   24       -5.358587   1.000000
   25       -5.301647   1.000000
   26       -5.241874   1.000000
   27       -4.262795   1.000000
   28       -4.089387   1.000000
   29       -4.051155   1.000000
   30       -3.978423   1.000000
   31       -3.898806   1.000000
   32       -3.831616   1.000000
   33       -3.746695   1.000000
   34       -3.658077   1.000000
   35       -3.600802   1.000000
   36       -3.526868   1.000000
   37       -3.443814   1.000000
   38       -3.387781   1.000000
   39       -3.356924   1.000000
   40       -3.252760   1.000000
   41       -3.164164   1.000000
   42       -3.050294   1.000000
   43       -3.007924   1.000000
   44       -2.941138   1.000000
   45       -2.523835   1.000000
   46       -2.476622   1.000000
   47       -2.327296   1.000000
   48       -2.208239   1.000000
   49       -2.078507   1.000000
   50       -2.027491   1.000000
   51       -1.991965   1.000000
   52       -1.887010   1.000000
   53       -1.861465   1.000000
   54       -1.810549   1.000000
   55       -1.723804   1.000000
   56       -1.678778   1.000000
   57       -1.637156   1.000000
   58       -1.579052   1.000000
   59       -1.519650   1.000000
   60       -1.469518   1.000000
   61       -1.440579   1.000000
   62       -1.412013   1.000000
   63       -1.333091   1.000000
   64       -1.313825   1.000000
   65       -1.184271   1.000000
   66       -1.148915   1.000000
   67       -1.074381   1.000000
   68       -0.957946   1.000000
   69       -0.899212   1.000000
   70       -0.812356   1.000000
   71       -0.755146   1.000000
   72       -0.628102   1.000000
   73       -0.577858   1.000000
   74       -0.456685   1.000000
   75       -0.401786   1.000000
   76       -0.323747   1.000000
   77       -0.301295   1.000000
   78       -0.241968   1.000000
   79        0.249653   1.000000
   80        0.422194   1.000000
   81        0.472091   1.000000
   82        0.480135   1.000000
   83        0.818916   1.000000
   84        0.912538   1.000000
   85        0.991205   1.000000
   86        1.053077   1.000000
   87        1.183288   1.000000
   88        1.241190   1.000000
   89        1.336101   1.000000
   90        1.460332   1.000000
   91        1.608010   1.000000
   92        1.680486   1.000000
   93        1.738460   1.000000
   94        1.975830   1.000000
   95        2.081840   1.000000
   96        2.336120   1.000003
   97        2.373297   1.000010
   98        2.445712   1.000085
   99        2.507542   1.000437
  100        2.575302   1.002044
  101        2.610653   1.004104
  102        2.943840   0.883819
  103        3.045106   0.516281
  104        3.141891   0.149913
  105        3.241149  -0.020589
  106        3.327052  -0.032114
  107        3.432231  -0.010375
  108        3.510656  -0.002609
  109        3.547762  -0.001189
  110        3.640743  -0.000117
  111        3.690379  -0.000028
  112        3.700723  -0.000020
  113        3.781673  -0.000001
  114        3.856742  -0.000000
  115        3.948101  -0.000000
  116        4.042135  -0.000000
  117        4.107174  -0.000000
  118        4.166066  -0.000000
  119        4.213215  -0.000000
  120        4.308251  -0.000000
  121        4.458144  -0.000000
  122        4.591140  -0.000000
  123        4.618890  -0.000000
  124        4.694732  -0.000000
  125        4.761951  -0.000000
  126        4.810615  -0.000000
  127        4.989168  -0.000000
  128        5.135551  -0.000000
  129        5.317766  -0.000000
  130        5.503620  -0.000000
  131        5.557883  -0.000000
  132        5.753599  -0.000000

  0.3742002E-15  0.1111111E+00  0.1262379E-14  0.2469136E-01
    1      -11.166702   1.000000
    2      -10.598201   1.000000
    3       -9.795060   1.000000
    4       -8.465655   1.000000
    5       -8.367629   1.000000
    6       -8.315827   1.000000
    7       -8.064383   1.000000
    8       -8.034754   1.000000
    9       -7.927160   1.000000
   10       -7.822949   1.000000
   11       -7.721261   1.000000
   12       -7.670800   1.000000
   13       -7.539433   1.000000
   14       -7.505307   1.000000
   15       -6.926882   1.000000
   16       -6.850591   1.000000
   17       -6.717202   1.000000
   18       -6.663605   1.000000
   19       -6.560990   1.000000
   20       -6.391474   1.000000
   21       -6.248349   1.000000
   22       -5.928264   1.000000
   23       -5.828403   1.000000
   24       -5.712823   1.000000
   25       -5.575684   1.000000
   26       -5.526469   1.000000
   27       -5.410773   1.000000
   28       -5.198442   1.000000
   29       -5.045191   1.000000
   30       -4.936217   1.000000
   31       -4.344585   1.000000
   32       -4.261971   1.000000
   33       -4.204628   1.000000
   34       -4.059797   1.000000
   35       -3.908175   1.000000
   36       -3.806184   1.000000
   37       -3.613080   1.000000
   38       -3.266573   1.000000
   39       -3.078514   1.000000
   40       -2.917081   1.000000
   41       -2.807907   1.000000
   42       -2.686385   1.000000
   43       -2.649338   1.000000
   44       -2.411581   1.000000
   45       -2.386294   1.000000
   46       -2.273422   1.000000
   47       -2.235602   1.000000
   48       -2.151757   1.000000
   49       -2.085993   1.000000
   50       -1.979634   1.000000
   51       -1.770230   1.000000
   52       -1.690685   1.000000
   53       -1.626476   1.000000
   54       -1.615204   1.000000
   55       -1.541773   1.000000
   56       -1.447945   1.000000
   57       -1.394905   1.000000
   58       -1.329820   1.000000
   59       -1.300423   1.000000
   60       -1.239750   1.000000
   61       -1.224688   1.000000
   62       -1.174956   1.000000
   63       -1.079342   1.000000
   64       -0.940840   1.000000
   65       -0.895995   1.000000
   66       -0.849041   1.000000
   67       -0.809701   1.000000
   68       -0.697099   1.000000
   69       -0.677673   1.000000
   70       -0.569467   1.000000
   71       -0.493431   1.000000
   72       -0.456976   1.000000
   73       -0.326522   1.000000
   74       -0.232338   1.000000
   75       -0.040997   1.000000
   76        0.023208   1.000000
   77        0.097759   1.000000
   78        0.268014   1.000000
   79        0.313445   1.000000
   80        0.386305   1.000000
   81        0.575005   1.000000
   82        0.677059   1.000000
   83        0.789566   1.000000
   84        1.153928   1.000000
   85        1.205236   1.000000
   86        1.309148   1.000000
   87        1.482060   1.000000
   88        1.594743   1.000000
   89        1.643480   1.000000
   90        1.760762   1.000000
   91        1.770111   1.000000
   92        1.845584   1.000000
   93        1.879142   1.000000
   94        1.997412   1.000000
   95        2.085424   1.000000
   96        2.197782   1.000000
   97        2.631682   1.005988
   98        2.735852   1.024662
   99        2.905209   0.966241
  100        2.918076   0.942931
  101        3.052243   0.486086
  102        3.116145   0.232700
  103        3.171220   0.074968
  104        3.341572  -0.029262
  105        3.423785  -0.011748
  106        3.700097  -0.000021
  107        3.793541  -0.000001
  108        3.832543  -0.000000
  109        3.863390  -0.000000
  110        3.886914  -0.000000
  111        3.929752  -0.000000
  112        3.980776  -0.000000
  113        4.061076  -0.000000
  114        4.135317  -0.000000
  115        4.166107  -0.000000
  116        4.204845  -0.000000
  117        4.248553  -0.000000
  118        4.274624  -0.000000
  119        4.306992  -0.000000
  120        4.424168  -0.000000
  121        4.465659  -0.000000
  122        4.486023  -0.000000
  123        4.530399  -0.000000
  124        4.595053  -0.000000
  125        4.646124  -0.000000
  126        4.672010  -0.000000
  127        4.932165  -0.000000
  128        5.134382  -0.000000
  129        5.527694  -0.000000
  130        5.969844  -0.000000
  131        6.387806  -0.000000
  132        6.540893  -0.000000

  0.1111111E+00  0.1111111E+00  0.1262379E-14  0.2469136E-01
    1      -11.052346   1.000000
    2      -10.495444   1.000000
    3       -9.719811   1.000000
    4       -8.435483   1.000000
    5       -8.418975   1.000000
    6       -8.407739   1.000000
    7       -8.286904   1.000000
    8       -8.270087   1.000000
    9       -8.127539   1.000000
   10       -8.051743   1.000000
   11       -7.997880   1.000000
   12       -7.826735   1.000000
   13       -7.542578   1.000000
   14       -7.138637   1.000000
   15       -7.080110   1.000000
   16       -6.752863   1.000000
   17       -6.608257   1.000000
   18       -6.593112   1.000000
   19       -6.461486   1.000000
   20       -6.053324   1.000000
   21       -5.981991   1.000000
   22       -5.900788   1.000000
   23       -5.706458   1.000000
   24       -5.679936   1.000000
   25       -5.457382   1.000000
   26       -5.370753   1.000000
   27       -5.344851   1.000000
   28       -5.092006   1.000000
   29       -5.036933   1.000000
   30       -4.811727   1.000000
   31       -4.430824   1.000000
   32       -4.369239   1.000000
   33       -3.852809   1.000000
   34       -3.813512   1.000000
   35       -3.720517   1.000000
   36       -3.603295   1.000000
   37       -3.341540   1.000000
   38       -3.260836   1.000000
   39       -3.103383   1.000000
   40       -2.991088   1.000000
   41       -2.884815   1.000000
   42       -2.814041   1.000000
   43       -2.655401   1.000000
   44       -2.577034   1.000000
   45       -2.442633   1.000000
   46       -2.287101   1.000000
   47       -2.276726   1.000000
   48       -2.131352   1.000000
   49       -2.081025   1.000000
   50       -1.997472   1.000000
   51       -1.943104   1.000000
   52       -1.769453   1.000000
   53       -1.727448   1.000000
   54       -1.643661   1.000000
   55       -1.529820   1.000000
   56       -1.477355   1.000000
   57       -1.417715   1.000000
   58       -1.346722   1.000000
   59       -1.326673   1.000000
   60       -1.249862   1.000000
   61       -1.204866   1.000000
   62       -1.165239   1.000000
   63       -1.068768   1.000000
   64       -1.064052   1.000000
   65       -1.038176   1.000000
   66       -0.956735   1.000000
   67       -0.887984   1.000000
   68       -0.815437   1.000000
   69       -0.733493   1.000000
   70       -0.636767   1.000000
   71       -0.539265   1.000000
   72       -0.439674   1.000000
   73       -0.405026   1.000000
   74       -0.335527   1.000000
   75       -0.233201   1.000000
   76       -0.155484   1.000000
   77        0.036493   1.000000
   78        0.274001   1.000000
   79        0.285389   1.000000
   80        0.380192   1.000000
   81        0.498564   1.000000
   82        0.626854   1.000000
   83        0.685740   1.000000
   84        0.803110   1.000000
   85        1.059623   1.000000
   86        1.275002   1.000000
   87        1.340468   1.000000
   88        1.608942   1.000000
   89        1.624107   1.000000
   90        1.671562   1.000000
   91        1.687290   1.000000
   92        1.703189   1.000000
   93        1.828564   1.000000
   94        2.063149   1.000000
   95        2.115637   1.000000
   96        2.227862   1.000000
   97        2.632283   1.006051
   98        2.782507   1.033926