   23   23    1    1
  0.2549686E+02  0.6078000E-09  0.6078000E-09  0.1833000E-08  0.5000000E-15
   1.0000000000000000E-004
  CAR 
 Name                                    
     87     41     60

  0.3742002E-15  0.3742002E-15  0.1262379E-14  0.1234568E-01
    1      -13.995455   1.000000
    2      -11.951719   1.000000
    3      -11.262809   1.000000
    4      -10.980700   1.000000
    5      -10.812849   1.000000
    6      -10.189168   1.000000
    7      -10.045391   1.000000
    8       -9.978119   1.000000
    9       -9.212389   1.000000
   10       -9.107694   1.000000
   11       -9.035781   1.000000
   12       -8.022697   1.000000
   13       -7.900807   1.000000
   14       -7.764925   1.000000
   15       -7.457132   1.000000
   16       -6.355436   1.000000
   17       -5.966628   1.000000
   18       -5.581884   1.000000
   19       -5.183147   1.000000
   20       -4.950382   1.000000
   21       -4.754965   1.000000
   22       -4.567356   1.000000
   23       -4.508720   1.000000
   24       -4.474498   1.000000
   25       -4.403377   1.000000
   26       -4.143316   1.000000
   27       -4.092873   1.000000
   28       -3.679223   1.000000
   29       -3.530721   1.000000
   30       -3.505710   1.000000
   31       -3.375174   1.000000
   32       -3.285267   1.000000
   33       -3.168797   1.000000
   34       -2.146418   1.000000
   35       -1.979765   1.000000
   36       -1.928937   1.000000
   37       -1.787931   1.000000
   38       -1.746014   1.000000
   39       -1.650058   1.000000
   40       -1.599986   1.000000
   41       -1.559614   1.000000
   42       -0.992451   1.029406
   43       -0.965313   1.013446
   44       -0.431716  -0.016185
   45       -0.363569  -0.005780
   46        0.074758  -0.000000
   47        0.080459  -0.000000
   48        0.302519  -0.000000
   49        0.355599  -0.000000
   50        0.486745  -0.000000
   51        0.523901  -0.000000
   52        0.567003  -0.000000
   53        0.718104  -0.000000
   54        0.728620  -0.000000
   55        0.863985  -0.000000
   56        0.910906  -0.000000
   57        0.976758  -0.000000
   58        1.118489  -0.000000
   59        2.909858  -0.000000
   60        3.222419  -0.000000

  0.1111111E+00  0.3756941E-15  0.1262379E-14  0.2469136E-01
    1      -13.943184   1.000000
    2      -11.912435   1.000000
    3      -11.399682   1.000000
    4      -11.069555   1.000000
    5      -11.001233   1.000000
    6      -10.044536   1.000000
    7      -10.011509   1.000000
    8       -9.855953   1.000000
    9       -9.181944   1.000000
   10       -9.113662   1.000000
   11       -9.099482   1.000000
   12       -7.830400   1.000000
   13       -7.821315   1.000000
   14       -7.594142   1.000000
   15       -7.385434   1.000000
   16       -6.399443   1.000000
   17       -6.070271   1.000000
   18       -5.623574   1.000000
   19       -5.132806   1.000000
   20       -4.947546   1.000000
   21       -4.762517   1.000000
   22       -4.683239   1.000000
   23       -4.537458   1.000000
   24       -4.478014   1.000000
   25       -4.452019   1.000000
   26       -4.141253   1.000000
   27       -4.073314   1.000000
   28       -3.793200   1.000000
   29       -3.718446   1.000000
   30       -3.498630   1.000000
   31       -3.371658   1.000000
   32       -3.133468   1.000000
   33       -3.012556   1.000000
   34       -2.551964   1.000000
   35       -2.328023   1.000000
   36       -1.944392   1.000000
   37       -1.727304   1.000000
   38       -1.705404   1.000000
   39       -1.645805   1.000000
   40       -1.418988   1.000033
   41       -1.310500   1.000611
   42       -1.086935   1.026740
   43       -0.988604   1.027847
   44       -0.550112  -0.034838
   45       -0.437095  -0.017305
   46       -0.077906  -0.000004
   47       -0.031551  -0.000001
   48        0.284608  -0.000000
   49        0.317929  -0.000000
   50        0.361663  -0.000000
   51        0.552441  -0.000000
   52        0.641988  -0.000000
   53        0.742145  -0.000000
   54        0.757185  -0.000000
   55        0.827719  -0.000000
   56        0.872471  -0.000000
   57        1.020227  -0.000000
   58        1.096544  -0.000000
   59        3.055578  -0.000000
   60        3.432059  -0.000000

  0.2222222E+00  0.3431732E-15  0.1262379E-14  0.2469136E-01
    1      -13.788629   1.000000
    2      -11.838675   1.000000
    3      -11.776103   1.000000
    4      -11.235830   1.000000
    5      -11.133595   1.000000
    6      -10.218152   1.000000
    7       -9.832461   1.000000
    8       -9.754273   1.000000
    9       -9.111401   1.000000
   10       -9.082026   1.000000
   11       -8.744600   1.000000
   12       -7.617700   1.000000
   13       -7.582342   1.000000
   14       -7.211348   1.000000
   15       -7.047397   1.000000
   16       -6.556614   1.000000
   17       -6.319538   1.000000
   18       -5.641280   1.000000
   19       -5.125283   1.000000
   20       -5.059401   1.000000
   21       -4.918235   1.000000
   22       -4.789094   1.000000
   23       -4.744363   1.000000
   24       -4.597617   1.000000
   25       -4.458322   1.000000
   26       -4.165659   1.000000
   27       -4.096741   1.000000
   28       -3.954344   1.000000
   29       -3.827593   1.000000
   30       -3.431794   1.000000
   31       -3.266699   1.000000
   32       -3.184447   1.000000
   33       -2.907238   1.000000
   34       -2.735650   1.000000
   35       -2.652193   1.000000
   36       -2.017011   1.000000
   37       -1.880477   1.000000
   38       -1.748378   1.000000
   39       -1.719004   1.000000
   40       -1.411368   1.000041
   41       -1.159277   1.011486
   42       -1.126768   1.017709
   43       -0.993257   1.029707
   44       -0.749550   0.361109
   45       -0.472161  -0.025212
   46       -0.291355  -0.001396
   47       -0.256049  -0.000623
   48        0.065706  -0.000000
   49        0.231035  -0.000000
   50        0.301161  -0.000000
   51        0.543652  -0.000000
   52        0.559019  -0.000000
   53        0.696059  -0.000000
   54        0.751064  -0.000000
   55        0.868827  -0.000000
   56        0.897903  -0.000000
   57        0.939996  -0.000000
   58        1.028024  -0.000000
   59        1.454584  -0.000000
   60        3.681962  -0.000000

  0.3333333E+00  0.3568756E-15  0.1262379E-14  0.2469136E-01
    1      -13.538670   1.000000
    2      -12.315406   1.000000
    3      -11.598610   1.000000
    4      -11.338998   1.000000
    5      -11.233259   1.000000
    6      -10.604146   1.000000
    7       -9.698702   1.000000
    8       -9.685099   1.000000
    9       -9.029908   1.000000
   10       -8.926081   1.000000
   11       -8.077049   1.000000
   12       -7.365192   1.000000
   13       -7.301971   1.000000
   14       -6.885179   1.000000
   15       -6.837035   1.000000
   16       -6.705241   1.000000
   17       -6.344175   1.000000
   18       -5.696003   1.000000
   19       -5.546793   1.000000
   20       -5.266524   1.000000
   21       -5.135550   1.000000
   22       -4.945909   1.000000
   23       -4.829617   1.000000
   24       -4.773724   1.000000
   25       -4.451180   1.000000
   26       -4.350594   1.000000
   27       -4.019203   1.000000
   28       -3.941288   1.000000
   29       -3.763086   1.000000
   30       -3.687319   1.000000
   31       -3.339376   1.000000
   32       -3.102921   1.000000
   33       -2.910690   1.000000
   34       -2.652575   1.000000
   35       -2.488395   1.000000
   36       -2.117834   1.000000
   37       -2.013064   1.000000
   38       -1.853891   1.000000
   39       -1.818636   1.000000
   40       -1.713741   1.000000
   41       -1.436632   1.000019
   42       -1.151882   1.012763
   43       -1.036159   1.035206
   44       -0.705423   0.197905
   45       -0.527566  -0.035072
   46       -0.429270  -0.015689
   47       -0.274567  -0.000960
   48       -0.186181  -0.000102
   49        0.064794  -0.000000
   50        0.088677  -0.000000
   51        0.480456  -0.000000
   52        0.524161  -0.000000
   53        0.623269  -0.000000
   54        0.723739  -0.000000
   55        0.831745  -0.000000
   56        0.983163  -0.000000
   57        1.051122  -0.000000
   58        1.098595  -0.000000
   59        1.396312  -0.000000
   60        1.688363  -0.000000

  0.4444444E+00  0.3276888E-15  0.1262379E-14  0.2469136E-01
    1      -13.208499   1.000000
    2      -12.774191   1.000000
    3      -11.395260   1.000000
    4      -11.350102   1.000000
    5      -11.269270   1.000000
    6      -10.987610   1.000000
    7       -9.663733   1.000000
    8       -9.644205   1.000000
    9       -8.926688   1.000000
   10       -8.768509   1.000000
   11       -7.375026   1.000000
   12       -7.164214   1.000000
   13       -7.060798   1.000000
   14       -6.993787   1.000000
   15       -6.941663   1.000000
   16       -6.514231   1.000000
   17       -6.412049   1.000000
   18       -6.075230   1.000000
   19       -5.443668   1.000000
   20       -5.343133   1.000000
   21       -5.301153   1.000000
   22       -5.155939   1.000000
   23       -4.990794   1.000000
   24       -4.865417   1.000000
   25       -4.571677   1.000000
   26       -4.376569   1.000000
   27       -4.147273   1.000000
   28       -3.923952   1.000000
   29       -3.870920   1.000000
   30       -3.581977   1.000000
   31       -3.205718   1.000000
   32       -3.038427   1.000000
   33       -2.960730   1.000000
   34       -2.491179   1.000000
   35       -2.326401   1.000000
   36       -2.216817   1.000000
   37       -2.180359   1.000000
   38       -1.981545   1.000000
   39       -1.854212   1.000000
   40       -1.756668   1.000000
   41       -1.709568   1.000000
   42       -1.415652   1.000036
   43       -0.949956   0.998551
   44       -0.665059   0.084927
   45       -0.588539  -0.021938
   46       -0.508582  -0.032762
   47       -0.305530  -0.001892
   48       -0.211090  -0.000201
   49       -0.149221  -0.000035
   50       -0.087322  -0.000005
   51        0.468904  -0.000000
   52        0.481680  -0.000000
   53        0.558731  -0.000000
   54        0.723448  -0.000000
   55        0.835709  -0.000000
   56        1.062066  -0.000000
   57        1.138753  -0.000000
   58        1.189094  -0.000000
   59        1.309426  -0.000000
   60        2.023120  -0.000000

  0.3742002E-15  0.1111111E+00  0.1262379E-14  0.2469136E-01
    1      -13.943184   1.000000
    2      -11.912434   1.000000
    3      -11.399702   1.000000
    4      -11.069279   1.000000
    5      -11.001551   1.000000
    6      -10.044287   1.000000
    7      -10.011676   1.000000
    8       -9.855906   1.000000
    9       -9.182009   1.000000
   10       -9.113630   1.000000
   11       -9.099517   1.000000
   12       -7.830379   1.000000
   13       -7.821314   1.000000
   14       -7.594144   1.000000
   15       -7.385446   1.000000
   16       -6.399471   1.000000
   17       -6.070296   1.000000
   18       -5.623554   1.000000
   19       -5.132805   1.000000
   20       -4.947573   1.000000
   21       -4.762567   1.000000
   22       -4.683176   1.000000
   23       -4.537539   1.000000
   24       -4.477923   1.000000
   25       -4.452069   1.000000
   26       -4.141125   1.000000
   27       -4.073414   1.000000
   28       -3.793152   1.000000
   29       -3.718399   1.000000
   30       -3.498659   1.000000
   31       -3.371634   1.000000
   32       -3.133452   1.000000
   33       -3.012592   1.000000
   34       -2.551903   1.000000
   35       -2.328150   1.000000
   36       -1.944369   1.000000
   37       -1.727293   1.000000
   38       -1.705408   1.000000
   39       -1.645794   1.000000
   40       -1.418919   1.000033
   41       -1.310543   1.000611
   42       -1.086939   1.026739
   43       -0.988603   1.027846
   44       -0.550118  -0.034837
   45       -0.437091  -0.017304
   46       -0.077893  -0.000004
   47       -0.031569  -0.000001
   48        0.284371  -0.000000
   49        0.317923  -0.000000
   50        0.361254  -0.000000
   51        0.544931  -0.000000
   52        0.632782  -0.000000
   53        0.746428  -0.000000
   54        0.761742  -0.000000
   55        0.807241  -0.000000
   56        0.889162  -0.000000
   57        1.002306  -0.000000
   58        1.109921  -0.000000
   59        3.047585  -0.000000
   60        3.197770  -0.000000

  0.1111111E+00  0.1111111E+00  0.1262379E-14  0.2469136E-01
    1      -13.839620   1.000000
    2      -11.832534   1.000000
    3      -11.599748   1.000000
    4      -11.449857   1.000000
    5      -10.907837   1.000000
    6      -10.086595   1.000000
    7       -9.959337   1.000000
    8       -9.858942   1.000000
    9       -9.024048   1.000000
   10       -8.993356   1.000000
   11       -8.983693   1.000000
   12       -7.922909   1.000000
   13       -7.365593   1.000000
   14       -7.317778   1.000000
   15       -7.218121   1.000000
   16       -6.561319   1.000000
   17       -6.229917   1.000000
   18       -5.632001   1.000000
   19       -5.088025   1.000000
   20       -4.983564   1.000000
   21       -4.943961   1.000000
   22       -4.707759   1.000000
   23       -4.653183   1.000000
   24       -4.483703   1.000000
   25       -4.401866   1.000000
   26       -4.249677   1.000000
   27       -4.103318   1.000000
   28       -4.048540   1.000000
   29       -3.682129   1.000000
   30       -3.467930   1.000000
   31       -3.249085   1.000000
   32       -3.081997   1.000000
   33       -2.931286   1.000000
   34       -2.815304   1.000000
   35       -2.683552   1.000000
   36       -1.837407   1.000000
   37       -1.823330   1.000000
   38       -1.794826   1.000000
   39       -1.705877   1.000000
   40       -1.438745   1.000018
   41       -1.277072   1.001317
   42       -1.120327   1.019108
   43       -0.885729   0.877814
   44       -0.737214   0.312235
   45       -0.468031  -0.024258
   46       -0.256930  -0.000636
   47       -0.201102  -0.000154
   48        0.137161  -0.000000
   49        0.272644  -0.000000
   50        0.316745  -0.000000
   51        0.590318  -0.000000
   52        0.623539  -0.000000
   53        0.754056  -0.000000
   54        0.761180  -0.000000
   55        0.771710  -0.000000
   56        0.796136  -0.000000
   57        0.891789  -0.000000
   58        0.907788  -0.000000
   59        1.368652  -0.000000
   60        3.528309  -0.000000

  0.2222222E+00  0.1111111E+00  0.1262379E-14  0.2469136E-01
    1      -13.637306   1.000000
    2      -12.035827   1.000000
    3      -11.702826   1.000000
    4      -11.650791   1.000000
    5      -10.860888   1.000000
    6      -10.365108   1.000000
    7      -10.041866   1.000000
    8       -9.749574   1.000000
    9       -8.952998   1.000000
   10       -8.744391   1.000000
   11       -8.384128   1.000000
   12       -7.881442   1.000000
   13       -7.033514   1.000000
   14       -6.971010   1.000000
   15       -6.861113   1.000000
   16       -6.694088   1.000000
   17       -6.360768   1.000000
   18       -5.685389   1.000000
   19       -5.437348   1.000000
   20       -5.197991   1.000000
   21       -5.107113   1.000000
   22       -4.917351   1.000000
   23       -4.663530   1.000000
   24       -4.558669   1.000000
   25       -4.452487   1.000000
   26       -4.280859   1.000000
   27       -4.206974   1.000000
   28       -4.119508   1.000000
   29       -3.615733   1.000000
   30       -3.493946   1.000000
   31       -3.304462   1.000000
   32       -3.160622   1.000000
   33       -2.902224   1.000000
   34       -2.813898   1.000000
   35       -2.624149   1.000000
   36       -1.969076   1.000000
   37       -1.939748   1.000000
   38       -1.892557   1.000000
   39       -1.692805   1.000000
   40       -1.679276   1.000000
   41       -1.461884   1.000009
   42       -1.165042   1.010551
   43       -0.847795   0.759285
   44       -0.770799   0.448974
   45       -0.515960  -0.033863
   46       -0.435021  -0.016869
   47       -0.341285  -0.003858
   48       -0.042595  -0.000001
   49        0.141484  -0.000000
   50        0.236185  -0.000000
   51        0.440521  -0.000000
   52        0.592257  -0.000000
   53        0.612577  -0.000000
   54        0.674252  -0.000000
   55        0.830201  -0.000000
   56        0.860020  -0.000000
   57        0.980720  -0.000000
   58        1.036742  -0.000000
   59        1.663877  -0.000000
   60        4.188127  -0.000000

  0.3333333E+00  0.1111111E+00  0.1262379E-14  0.2469136E-01
    1      -13.345943   1.000000
    2      -12.517722   1.000000
    3      -11.790579   1.000000
    4      -11.437091   1.000000
    5      -10.873215   1.000000
    6      -10.761913   1.000000
    7      -10.095978   1.000000
    8       -9.480798   1.000000
    9       -9.020368   1.000000
   10       -8.475543   1.000000
   11       -7.720413   1.000000
   12       -7.630542   1.000000
   13       -7.175946   1.000000
   14       -6.729325   1.000000
   15       -6.634934   1.000000
   16       -6.587371   1.000000
   17       -6.150547   1.000000
   18       -6.078122   1.000000
   19       -5.572904   1.000000
   20       -5.429472   1.000000
   21       -5.367916   1.000000
   22       -5.106929   1.000000
   23       -4.889077   1.000000
   24       -4.708283   1.000000
   25       -4.546794   1.000000
   26       -4.351423   1.000000
   27       -4.154914   1.000000
   28       -4.037478   1.000000
   29       -3.900213   1.000000
   30       -3.463841   1.000000
   31       -3.184896   1.000000
   32       -3.074928   1.000000
   33       -2.944482   1.000000
   34       -2.612151   1.000000
   35       -2.443814   1.000000
   36       -2.147785   1.000000
   37       -2.079197   1.000000
   38       -1.949547   1.000000
   39       -1.830612   1.000000
   40       -1.734582   1.000000
   41       -1.682150   1.000000
   42       -1.203172   1.005682
   43       -1.013746   1.034618
   44       -0.716478   0.235452
   45       -0.631727   0.022147
   46       -0.487662  -0.028703
   47       -0.375202  -0.007048
   48       -0.145647  -0.000032
   49       -0.057437  -0.000002
   50        0.058352  -0.000000
   51        0.345077  -0.000000
   52        0.520502  -0.000000
   53        0.558193  -0.000000
   54        0.608257  -0.000000
   55        0.858782  -0.000000
   56        0.963518  -0.000000
   57        1.072625  -0.000000
   58        1.096056  -0.000000
   59        1.412519  -0.000000
   60        1.725871  -0.000000

  0.4444444E+00  0.1111111E+00  0.1262379E-14  0.2469136E-01
    1      -13.035625   1.000000
    2      -12.895265   1.000000
    3      -11.826233   1.000000
    4      -11.148146   1.000000
    5      -11.120554   1.000000
    6      -10.876580   1.000000
    7      -10.109948   1.000000
    8       -9.273020   1.000000
    9       -9.155183   1.000000
   10       -8.339928   1.000000
   11       -7.482251   1.000000
   12       -7.439625   1.000000
   13       -6.892785   1.000000
   14       -6.870321   1.000000
   15       -6.778559   1.000000
   16       -6.491224   1.000000
   17       -6.329021   1.000000
   18       -6.084901   1.000000
   19       -5.551145   1.000000
   20       -5.404871   1.000000
   21       -5.292360   1.000000
   22       -5.175099   1.000000
   23       -5.081628   1.000000
   24       -5.048548   1.000000
   25       -4.591808   1.000000
   26       -4.386225   1.000000
   27       -4.192857   1.000000
   28       -3.984430   1.000000
   29       -3.917900   1.000000
   30       -3.462086   1.000000
   31       -3.169359   1.000000
   32       -3.068558   1.000000
   33       -2.860900   1.000000
   34       -2.606450   1.000000
   35       -2.240075   1.000000
   36       -2.203018   1.000000
   37       -2.130986   1.000000
   38       -1.952029   1.000000
   39       -1.816838   1.000000
   40       -1.790187   1.000000
   41       -1.686206   1.000000
   42       -1.438944   1.000018
   43       -0.983307   1.025346
   44       -0.739489   0.321091
   45       -0.643359   0.040961
   46       -0.445005  -0.019012
   47       -0.405950  -0.011396
   48       -0.231333  -0.000339
   49       -0.154040  -0.000041
   50       -0.024809  -0.000001
   51        0.332882  -0.000000
   52        0.510327  -0.000000
   53        0.515735  -0.000000
   54        0.608417  -0.000000
   55        0.877315  -0.000000
   56        1.008020  -0.000000
   57        1.082321  -0.000000
   58        1.153683  -0.000000
   59        1.229250  -0.000000
   60        1.653690  -0.000000

 -0.4444444E+00  0.1111111E+00  0.1262379E-14  0.2469136E-01
    1      -13.345619   1.000000
    2      -12.523711   1.000000
    3      -11.795490   1.000000
    4      -11.426542   1.000000
    5      -10.888369   1.000000
    6      -10.756600   1.000000
    7      -10.087568   1.000000
    8       -9.482686   1.000000
    9       -9.025283   1.000000
   10       -8.460735   1.000000
   11       -7.850385   1.000000
   12       -7.496953   1.000000
   13       -7.154259   1.000000
   14       -6.789131   1.000000
   15       -6.651428   1.000000
   16       -6.584462   1.000000
   17       -6.144615   1.000000
   18       -6.027095   1.000000
   19       -5.571479   1.000000
   20       -5.414348   1.000000
   21       -5.302233   1.000000
   22       -5.174651   1.000000
   23       -4.985306   1.000000
   24       -4.855972   1.000000
   25       -4.474522   1.000000
   26       -4.344980   1.000000
   27       -4.114856   1.000000
   28       -4.006216   1.000000
   29       -3.926978   1.000000
   30       -3.565525   1.000000
   31       -3.286632   1.000000
   32       -3.051624   1.000000
   33       -2.915272   1.000000
   34       -2.667383   1.000000
   35       -2.219145   1.000000
   36       -2.076130   1.000000
   37       -2.025631   1.000000
   38       -1.950095   1.000000
   39       -1.843292   1.000000
   40       -1.695450   1.000000
   41       -1.499003   1.000003
   42       -1.362368   1.000164
   43       -1.009058   1.033920
   44       -0.754877   0.382776
   45       -0.576536  -0.028114
   46       -0.488607  -0.028907
   47       -0.384022  -0.008143
   48       -0.160853  -0.000050
   49       -0.046391  -0.000001
   50        0.068079  -0.000000
   51        0.343285  -0.000000
   52        0.521935  -0.000000
   53        0.550637  -0.000000
   54        0.651001  -0.000000
   55        0.826663  -0.000000
   56        1.020996  -0.000000
   57        1.059679  -0.000000
   58        1.129711  -0.000000
   59        1.354110  -0.000000
   60        1.537611  -0.000000

 -0.3333333E+00  0.1111111E+00  0.1262379E-14  0.2469136E-01
    1      -13.637696   1.000000
    2      -12.053748   1.000000
    3      -11.734114   1.000000
    4      -11.606207   1.000000
    5      -10.868251   1.000000
    6      -10.363562   1.000000
    7      -10.035672   1.000000
    8       -9.739589   1.000000
    9       -8.967648   1.000000
   10       -8.745954   1.000000
   11       -8.433393   1.000000
   12       -7.811157   1.000000
   13       -7.049982   1.000000
   14       -7.000275   1.000000
   15       -6.930796   1.000000
   16       -6.563906   1.000000
   17       -6.349995   1.000000
   18       -5.760501   1.000000
   19       -5.396188   1.000000
   20       -5.139317   1.000000
   21       -5.029247   1.000000
   22       -4.979967   1.000000
   23       -4.911075   1.000000
   24       -4.702610   1.000000
   25       -4.443807   1.000000
   26       -4.350011   1.000000
   27       -4.099392   1.000000
   28       -3.955498   1.000000
   29       -3.711948   1.000000
   30       -3.484419   1.000000
   31       -3.478954   1.000000
   32       -3.082687   1.000000
   33       -2.982280   1.000000
   34       -2.743142   1.000000
   35       -2.457207   1.000000
   36       -1.954106   1.000000
   37       -1.916349   1.000000
   38       -1.840777   1.000000
   39       -1.680073   1.000000
   40       -1.584343   1.000000
   41       -1.264859   1.001716
   42       -1.183025   1.007976
   43       -0.951180   0.999913
   44       -0.731365   0.289825
   45       -0.509516  -0.032913
   46       -0.456160  -0.021519
   47       -0.344737  -0.004116
   48       -0.076088  -0.000003
   49        0.172067  -0.000000
   50        0.263889  -0.000000
   51        0.442849  -0.000000
   52        0.559823  -0.000000
   53        0.597022  -0.000000
   54        0.682565  -0.000000
   55        0.798709  -0.000000
   56        0.953286  -0.000000
   57        0.997516  -0.000000
   58        1.094872  -0.000000
   59        1.474237  -0.000000
   60        1.668501  -0.000000

 -0.2222222E+00  0.1111111E+00  0.1262379E-14  0.2469136E-01
    1      -13.840119   1.000000
    2      -11.849048   1.000000
    3      -11.607103   1.000000
    4      -11.447034   1.000000
    5      -10.884664   1.000000
    6      -10.035234   1.000000
    7       -9.990297   1.000000
    8       -9.886487   1.000000
    9       -9.102167   1.000000
   10       -8.988327   1.000000
   11       -8.921803   1.000000
   12       -7.901601   1.000000
   13       -7.385732   1.000000
   14       -7.340348   1.000000
   15       -7.250315   1.000000
   16       -6.472579   1.000000
   17       -6.073148   1.000000
   18       -5.835198   1.000000
   19       -5.137328   1.000000
   20       -4.990943   1.000000
   21       -4.894852   1.000000
   22       -4.818640   1.000000
   23       -4.676107   1.000000
   24       -4.529116   1.000000
   25       -4.504948   1.000000
   26       -4.144476   1.000000
   27       -4.057464   1.000000
   28       -3.947101   1.000000
   29       -3.733972   1.000000
   30       -3.656997   1.000000
   31       -3.203654   1.000000
   32       -3.066283   1.000000
   33       -2.844533   1.000000
   34       -2.780756   1.000000
   35       -2.678725   1.000000
   36       -1.835848   1.000000
   37       -1.790413   1.000000
   38       -1.753566   1.000000
   39       -1.648695   1.000000
   40       -1.383114   1.000093
   41       -1.217624   1.004384
   42       -1.070567   1.030287
   43       -0.987897   1.027537
   44       -0.638345   0.032455
   45       -0.512556  -0.033383
   46       -0.243968  -0.000465
   47       -0.220903  -0.000260
   48        0.127572  -0.000000
   49        0.250269  -0.000000
   50        0.379583  -0.000000
   51        0.592635  -0.000000
   52        0.609684  -0.000000
   53        0.672867  -0.000000
   54        0.703372  -0.000000
   55        0.798031  -0.000000
   56        0.931446  -0.000000
   57        1.028823  -0.000000
   58        1.246623  -0.000000
   59        3.384281  -0.000000
   60        3.794955  -0.000000

 -0.1111111E+00  0.1111111E+00  0.1262379E-14  0.2469136E-01
    1      -13.943397   1.000000
    2      -11.916074   1.000000
    3      -11.385028   1.000000
    4      -11.181908   1.000000
    5      -10.880126   1.000000
    6      -10.081632   1.000000
    7       -9.964005   1.000000
    8       -9.897875   1.000000
    9       -9.238765   1.000000
   10       -9.114682   1.000000
   11       -9.022893   1.000000
   12       -7.918163   1.000000
   13       -7.730813   1.000000
   14       -7.618075   1.000000
   15       -7.392029   1.000000
   16       -6.377826   1.000000
   17       -5.946809   1.000000
   18       -5.751448   1.000000
   19       -5.173301   1.000000
   20       -4.916338   1.000000
   21       -4.865152   1.000000
   22       -4.650783   1.000000
   23       -4.564845   1.000000
   24       -4.467273   1.000000
   25       -4.462791   1.000000
   26       -4.104655   1.000000
   27       -4.005236   1.000000
   28       -3.818333   1.000000
   29       -3.748333   1.000000
   30       -3.586612   1.000000
   31       -3.273619   1.000000
   32       -3.141030   1.000000
   33       -3.011807   1.000000
   34       -2.513395   1.000000
   35       -2.415377   1.000000
   36       -1.787340   1.000000
   37       -1.702716   1.000000
   38       -1.672036   1.000000
   39       -1.636593   1.000000
   40       -1.488490   1.000004
   41       -1.377735   1.000108
   42       -1.054996   1.033111
   43       -0.987561   1.027388
   44       -0.503036  -0.031800
   45       -0.456360  -0.021565
   46       -0.053262  -0.000002
   47       -0.048301  -0.000001
   48        0.268553  -0.000000
   49        0.304667  -0.000000
   50        0.398044  -0.000000
   51        0.514602  -0.000000
   52        0.669379  -0.000000
   53        0.706650  -0.000000
   54        0.753496  -0.000000
   55        0.763616  -0.000000
   56        0.914849  -0.000000
   57        0.936454  -0.000000
   58        1.123608  -0.000000
   59        3.059461  -0.000000
   60        3.365693  -0.000000

  0.3742002E-15  0.2222222E+00  0.1262379E-14  0.2469136E-01
    1      -13.788628   1.000000
    2      -11.838666   1.000000
    3      -11.776140   1.000000
    4      -11.235655   1.000000
    5      -11.133819   1.000000
    6      -10.218131   1.000000
    7       -9.832398   1.000000
    8       -9.754199   1.000000
    9       -9.111321   1.000000
   10       -9.081978   1.000000
   11       -8.744766   1.000000
   12       -7.617698   1.000000
   13       -7.582337   1.000000
   14       -7.211307   1.000000
   15       -7.047451   1.000000
   16       -6.556681   1.000000
   17       -6.319658   1.000000
   18       -5.641186   1.000000
   19       -5.125488   1.000000
   20       -5.059347   1.000000
   21       -4.918273   1.000000
   22       -4.789054   1.000000
   23       -4.744324   1.000000
   24       -4.597701   1.000000
   25       -4.458270   1.000000
   26       -4.165538   1.000000
   27       -4.096668   1.000000
   28       -3.954254   1.000000
   29       -3.827633   1.000000
   30       -3.431775   1.000000
   31       -3.266640   1.000000
   32       -3.184423   1.000000
   33       -2.907235   1.000000
   34       -2.735752   1.000000
   35       -2.652213   1.000000