   53   53    1    1
  0.1558232E+02  0.6071501E-09  0.6071501E-09  0.2586333E-08  0.5000000E-15
   1.0000000000000000E-004
  CAR 
 Name                                    
    197     41    126

  0.3742002E-15  0.3742002E-15  0.1262379E-14  0.1234568E-01
    1      -12.340955   1.000000
    2      -11.671508   1.000000
    3      -10.973471   1.000000
    4      -10.358031   1.000000
    5       -9.236571   1.000000
    6       -9.141712   1.000000
    7       -9.040615   1.000000
    8       -8.758406   1.000000
    9       -8.631950   1.000000
   10       -8.583962   1.000000
   11       -8.438437   1.000000
   12       -8.422287   1.000000
   13       -8.400607   1.000000
   14       -8.379937   1.000000
   15       -8.333939   1.000000
   16       -8.309988   1.000000
   17       -8.108779   1.000000
   18       -8.070005   1.000000
   19       -7.717870   1.000000
   20       -7.645145   1.000000
   21       -7.537508   1.000000
   22       -7.053116   1.000000
   23       -6.961675   1.000000
   24       -6.853101   1.000000
   25       -6.641186   1.000000
   26       -6.621298   1.000000
   27       -6.294226   1.000000
   28       -5.507014   1.000000
   29       -5.416251   1.000000
   30       -5.401793   1.000000
   31       -4.566260   1.000000
   32       -4.182896   1.000000
   33       -4.131957   1.000000
   34       -4.016067   1.000000
   35       -3.675440   1.000000
   36       -3.522273   1.000000
   37       -3.501233   1.000000
   38       -3.431903   1.000000
   39       -3.421412   1.000000
   40       -3.407140   1.000000
   41       -3.380777   1.000000
   42       -3.278140   1.000000
   43       -3.219151   1.000000
   44       -2.951502   1.000000
   45       -2.889406   1.000000
   46       -2.765004   1.000000
   47       -2.751547   1.000000
   48       -2.746658   1.000000
   49       -2.709250   1.000000
   50       -2.636602   1.000000
   51       -2.621829   1.000000
   52       -2.585212   1.000000
   53       -2.578695   1.000000
   54       -2.345770   1.000000
   55       -2.318696   1.000000
   56       -2.222097   1.000000
   57       -2.179829   1.000000
   58       -2.170768   1.000000
   59       -2.115626   1.000000
   60       -2.070324   1.000000
   61       -2.037026   1.000000
   62       -1.901327   1.000000
   63       -1.875595   1.000000
   64       -1.850990   1.000000
   65       -1.794475   1.000000
   66       -1.759227   1.000000
   67       -1.725719   1.000000
   68       -1.439288   1.000000
   69       -1.424124   1.000000
   70       -1.277029   1.000000
   71       -1.210746   1.000000
   72       -0.987567   1.000000
   73       -0.851996   1.000000
   74       -0.837114   1.000000
   75       -0.644240   1.000000
   76       -0.550687   1.000000
   77        0.116613   1.000000
   78        0.158087   1.000000
   79        0.224073   1.000000
   80        0.367413   1.000000
   81        0.387829   1.000000
   82        0.421597   1.000000
   83        0.551410   1.000000
   84        0.807481   1.000000
   85        1.010793   1.000000
   86        1.018600   1.000000
   87        1.228185   1.000000
   88        1.335922   1.000000
   89        1.456120   1.000000
   90        1.738072   1.000227
   91        1.775363   1.000579
   92        1.819322   1.001577
   93        1.909672   1.008584
   94        1.942495   1.013912
   95        2.119594   1.015976
   96        2.176811   0.938003
   97        2.227961   0.801458
   98        2.344646   0.336740
   99        2.602217  -0.028317
  100        2.666522  -0.014184
  101        2.741476  -0.004263
  102        2.814216  -0.000945
  103        2.850465  -0.000397
  104        2.923694  -0.000055
  105        3.036760  -0.000001
  106        3.063144  -0.000001
  107        3.168620  -0.000000
  108        3.206884  -0.000000
  109        3.218714  -0.000000
  110        3.272842  -0.000000
  111        3.344087  -0.000000
  112        3.395854  -0.000000
  113        3.420274  -0.000000
  114        3.462823  -0.000000
  115        3.494288  -0.000000
  116        3.498954  -0.000000
  117        3.557701  -0.000000
  118        3.599497  -0.000000
  119        3.744752  -0.000000
  120        3.796698  -0.000000
  121        3.883637  -0.000000
  122        4.203676  -0.000000
  123        4.306881  -0.000000
  124        4.445414  -0.000000
  125        4.744320  -0.000000
  126        4.961717  -0.000000

  0.1111111E+00  0.3762813E-15  0.1262379E-14  0.2469136E-01
    1      -12.282916   1.000000
    2      -11.619599   1.000000
    3      -10.934115   1.000000
    4      -10.326098   1.000000
    5       -9.320983   1.000000
    6       -9.153907   1.000000
    7       -9.137649   1.000000
    8       -9.027212   1.000000
    9       -8.935918   1.000000
   10       -8.765786   1.000000
   11       -8.693471   1.000000
   12       -8.673354   1.000000
   13       -8.638748   1.000000
   14       -8.446817   1.000000
   15       -8.217771   1.000000
   16       -7.953502   1.000000
   17       -7.898732   1.000000
   18       -7.591035   1.000000
   19       -7.548539   1.000000
   20       -7.444478   1.000000
   21       -7.262778   1.000000
   22       -7.030306   1.000000
   23       -6.898071   1.000000
   24       -6.716518   1.000000
   25       -6.663625   1.000000
   26       -6.473580   1.000000
   27       -6.215461   1.000000
   28       -5.485767   1.000000
   29       -5.362168   1.000000
   30       -5.192130   1.000000
   31       -4.530606   1.000000
   32       -4.186973   1.000000
   33       -4.172799   1.000000
   34       -3.992932   1.000000
   35       -3.680180   1.000000
   36       -3.567996   1.000000
   37       -3.553758   1.000000
   38       -3.510182   1.000000
   39       -3.449707   1.000000
   40       -3.399007   1.000000
   41       -3.378785   1.000000
   42       -3.295173   1.000000
   43       -3.262689   1.000000
   44       -3.178148   1.000000
   45       -3.166617   1.000000
   46       -2.926950   1.000000
   47       -2.852641   1.000000
   48       -2.772822   1.000000
   49       -2.726112   1.000000
   50       -2.665006   1.000000
   51       -2.602186   1.000000
   52       -2.523518   1.000000
   53       -2.451904   1.000000
   54       -2.337947   1.000000
   55       -2.287443   1.000000
   56       -2.258141   1.000000
   57       -2.222320   1.000000
   58       -2.154659   1.000000
   59       -2.092853   1.000000
   60       -2.048816   1.000000
   61       -2.004222   1.000000
   62       -1.909240   1.000000
   63       -1.898962   1.000000
   64       -1.849792   1.000000
   65       -1.779792   1.000000
   66       -1.680219   1.000000
   67       -1.603369   1.000000
   68       -1.505047   1.000000
   69       -1.451228   1.000000
   70       -1.235491   1.000000
   71       -1.224274   1.000000
   72       -1.145219   1.000000
   73       -1.057342   1.000000
   74       -0.992710   1.000000
   75       -0.649925   1.000000
   76       -0.582917   1.000000
   77       -0.098896   1.000000
   78        0.001146   1.000000
   79        0.213224   1.000000
   80        0.337107   1.000000
   81        0.349337   1.000000
   82        0.471027   1.000000
   83        0.536561   1.000000
   84        0.713675   1.000000
   85        0.778882   1.000000
   86        0.911918   1.000000
   87        1.369529   1.000000
   88        1.420844   1.000000
   89        1.545702   1.000001
   90        1.746414   1.000282
   91        1.797028   1.000962
   92        1.852785   1.003134
   93        1.932652   1.012134
   94        1.968425   1.019250
   95        1.987310   1.023548
   96        2.142156   0.993871
   97        2.244442   0.744504
   98        2.359014   0.281275
   99        2.589296  -0.031004
  100        2.684070  -0.011082
  101        2.758790  -0.003066
  102        2.812372  -0.000986
  103        2.882700  -0.000173
  104        2.913006  -0.000075
  105        2.957321  -0.000020
  106        2.989266  -0.000007
  107        3.060887  -0.000001
  108        3.112984  -0.000000
  109        3.204459  -0.000000
  110        3.232175  -0.000000
  111        3.255230  -0.000000
  112        3.337518  -0.000000
  113        3.397598  -0.000000
  114        3.427959  -0.000000
  115        3.469405  -0.000000
  116        3.520301  -0.000000
  117        3.545926  -0.000000
  118        3.601479  -0.000000
  119        3.636949  -0.000000
  120        3.680091  -0.000000
  121        3.749126  -0.000000
  122        3.827322  -0.000000
  123        4.127304  -0.000000
  124        4.558377  -0.000000
  125        4.657929  -0.000000
  126        4.882045  -0.000000

  0.2222222E+00  0.3499357E-15  0.1262379E-14  0.2469136E-01
    1      -12.110644   1.000000
    2      -11.466028   1.000000
    3      -10.818818   1.000000
    4      -10.231519   1.000000
    5       -9.816842   1.000000
    6       -9.491981   1.000000
    7       -9.429002   1.000000
    8       -9.184567   1.000000
    9       -9.168852   1.000000
   10       -8.931707   1.000000
   11       -8.893386   1.000000
   12       -8.819476   1.000000
   13       -8.799044   1.000000
   14       -8.746538   1.000000
   15       -8.276994   1.000000
   16       -7.555618   1.000000
   17       -7.461333   1.000000
   18       -7.364927   1.000000
   19       -7.127734   1.000000
   20       -7.000492   1.000000
   21       -6.797524   1.000000
   22       -6.766276   1.000000
   23       -6.646498   1.000000
   24       -6.538364   1.000000
   25       -6.275943   1.000000
   26       -6.180849   1.000000
   27       -5.960043   1.000000
   28       -5.390233   1.000000
   29       -5.220244   1.000000
   30       -4.772841   1.000000
   31       -4.428008   1.000000
   32       -4.298902   1.000000
   33       -4.237907   1.000000
   34       -3.961944   1.000000
   35       -3.926847   1.000000
   36       -3.873093   1.000000
   37       -3.826338   1.000000
   38       -3.783776   1.000000
   39       -3.610292   1.000000
   40       -3.554727   1.000000
   41       -3.459494   1.000000
   42       -3.420383   1.000000
   43       -3.310219   1.000000
   44       -3.252768   1.000000
   45       -3.152135   1.000000
   46       -2.931788   1.000000
   47       -2.886706   1.000000
   48       -2.864761   1.000000
   49       -2.786001   1.000000
   50       -2.772172   1.000000
   51       -2.644950   1.000000
   52       -2.576720   1.000000
   53       -2.531697   1.000000
   54       -2.404537   1.000000
   55       -2.324888   1.000000
   56       -2.291758   1.000000
   57       -2.257620   1.000000
   58       -2.133094   1.000000
   59       -2.094394   1.000000
   60       -2.058352   1.000000
   61       -2.044991   1.000000
   62       -1.997210   1.000000
   63       -1.936786   1.000000
   64       -1.911829   1.000000
   65       -1.800493   1.000000
   66       -1.749453   1.000000
   67       -1.649998   1.000000
   68       -1.574745   1.000000
   69       -1.484282   1.000000
   70       -1.409226   1.000000
   71       -1.288700   1.000000
   72       -1.184544   1.000000
   73       -0.997885   1.000000
   74       -0.875958   1.000000
   75       -0.690044   1.000000
   76       -0.606928   1.000000
   77       -0.494487   1.000000
   78       -0.237833   1.000000
   79       -0.042345   1.000000
   80        0.158159   1.000000
   81        0.282339   1.000000
   82        0.408268   1.000000
   83        0.531618   1.000000
   84        0.670326   1.000000
   85        0.680781   1.000000
   86        0.859609   1.000000
   87        1.105353   1.000000
   88        1.313121   1.000000
   89        1.405129   1.000000
   90        1.505952   1.000000
   91        1.687112   1.000056
   92        1.832164   1.002069
   93        1.943948   1.014187
   94        1.979932   1.021846
   95        2.076236   1.034367
   96        2.238957   0.764070
   97        2.372305   0.233088
   98        2.479704  -0.006320
   99        2.522605  -0.031954
  100        2.566237  -0.034569
  101        2.651825  -0.017133
  102        2.692694  -0.009737
  103        2.743888  -0.004076
  104        2.777876  -0.002087
  105        2.932694  -0.000042
  106        2.945430  -0.000029
  107        3.017635  -0.000003
  108        3.051110  -0.000001
  109        3.161053  -0.000000
  110        3.172613  -0.000000
  111        3.202801  -0.000000
  112        3.245088  -0.000000
  113        3.267420  -0.000000
  114        3.311044  -0.000000
  115        3.406555  -0.000000
  116        3.443357  -0.000000
  117        3.491182  -0.000000
  118        3.551110  -0.000000
  119        3.596577  -0.000000
  120        3.682253  -0.000000
  121        3.768909  -0.000000
  122        3.825257  -0.000000
  123        3.961988  -0.000000
  124        3.981118  -0.000000
  125        4.019493  -0.000000
  126        4.887600  -0.000000

  0.3333333E+00  0.3916643E-15  0.1262379E-14  0.2469136E-01
    1      -11.829520   1.000000
    2      -11.217483   1.000000
    3      -10.637048   1.000000
    4      -10.420291   1.000000
    5      -10.080048   1.000000
    6       -9.980405   1.000000
    7       -9.779841   1.000000
    8       -9.257669   1.000000
    9       -9.240141   1.000000
   10       -9.132398   1.000000
   11       -9.010959   1.000000
   12       -8.991763   1.000000
   13       -8.901684   1.000000
   14       -8.894057   1.000000
   15       -8.334206   1.000000
   16       -7.489992   1.000000
   17       -7.001729   1.000000
   18       -6.978400   1.000000
   19       -6.722934   1.000000
   20       -6.692441   1.000000
   21       -6.613406   1.000000
   22       -6.516023   1.000000
   23       -5.999293   1.000000
   24       -5.874472   1.000000
   25       -5.832025   1.000000
   26       -5.702666   1.000000
   27       -5.520155   1.000000
   28       -5.274703   1.000000
   29       -5.012314   1.000000
   30       -4.628610   1.000000
   31       -4.605254   1.000000
   32       -4.502289   1.000000
   33       -4.418147   1.000000
   34       -4.368896   1.000000
   35       -4.326935   1.000000
   36       -4.225169   1.000000
   37       -4.109616   1.000000
   38       -3.808786   1.000000
   39       -3.656224   1.000000
   40       -3.621354   1.000000
   41       -3.571679   1.000000
   42       -3.473120   1.000000
   43       -3.344672   1.000000
   44       -3.188048   1.000000
   45       -3.118098   1.000000
   46       -3.056502   1.000000
   47       -3.006419   1.000000
   48       -2.988799   1.000000
   49       -2.932804   1.000000
   50       -2.859639   1.000000
   51       -2.759373   1.000000
   52       -2.705639   1.000000
   53       -2.657040   1.000000
   54       -2.545853   1.000000
   55       -2.479915   1.000000
   56       -2.386803   1.000000
   57       -2.341890   1.000000
   58       -2.295138   1.000000
   59       -2.220996   1.000000
   60       -2.129848   1.000000
   61       -2.078132   1.000000
   62       -2.061093   1.000000
   63       -1.983664   1.000000
   64       -1.928841   1.000000
   65       -1.818665   1.000000
   66       -1.740378   1.000000
   67       -1.683990   1.000000
   68       -1.644326   1.000000
   69       -1.511538   1.000000
   70       -1.370655   1.000000
   71       -1.226045   1.000000
   72       -1.125298   1.000000
   73       -1.029131   1.000000
   74       -0.803495   1.000000
   75       -0.671058   1.000000
   76       -0.545158   1.000000
   77       -0.418145   1.000000
   78       -0.331071   1.000000
   79       -0.262151   1.000000
   80       -0.125506   1.000000
   81        0.137997   1.000000
   82        0.268752   1.000000
   83        0.462710   1.000000
   84        0.484762   1.000000
   85        0.779324   1.000000
   86        0.848151   1.000000
   87        1.015206   1.000000
   88        1.105638   1.000000
   89        1.269933   1.000000
   90        1.329935   1.000000
   91        1.505671   1.000000
   92        1.609752   1.000005
   93        1.775733   1.000584
   94        1.890570   1.006264
   95        1.986672   1.023400
   96        2.063086   1.035427
   97        2.157012   0.973399
   98        2.240104   0.760026
   99        2.361833   0.270783
  100        2.429092   0.071500
  101        2.502708  -0.023771
  102        2.608081  -0.027011
  103        2.631083  -0.021717
  104        2.711685  -0.007192
  105        2.826138  -0.000717
  106        2.863462  -0.000286
  107        2.921216  -0.000059
  108        2.978228  -0.000011
  109        3.075010  -0.000000
  110        3.100501  -0.000000
  111        3.135368  -0.000000
  112        3.147483  -0.000000
  113        3.231790  -0.000000
  114        3.285630  -0.000000
  115        3.356435  -0.000000
  116        3.485867  -0.000000
  117        3.595408  -0.000000
  118        3.639865  -0.000000
  119        3.698579  -0.000000
  120        3.789609  -0.000000
  121        3.833859  -0.000000
  122        3.922463  -0.000000
  123        4.081096  -0.000000
  124        4.212989  -0.000000
  125        4.229310  -0.000000
  126        4.511852  -0.000000

  0.4444444E+00  0.3830161E-15  0.1262379E-14  0.2469136E-01
    1      -11.448304   1.000000
    2      -10.988760   1.000000
    3      -10.866968   1.000000
    4      -10.469280   1.000000
    5      -10.379003   1.000000
    6      -10.101917   1.000000
    7       -9.888438   1.000000
    8       -9.421449   1.000000
    9       -9.311246   1.000000
   10       -9.294124   1.000000
   11       -9.047616   1.000000
   12       -9.027575   1.000000
   13       -8.957949   1.000000
   14       -8.936941   1.000000
   15       -8.364106   1.000000
   16       -7.522059   1.000000
   17       -6.721240   1.000000
   18       -6.700707   1.000000
   19       -6.437634   1.000000
   20       -6.373511   1.000000
   21       -6.324930   1.000000
   22       -6.306510   1.000000
   23       -5.498726   1.000000
   24       -5.393740   1.000000
   25       -5.280173   1.000000
   26       -5.190350   1.000000
   27       -5.117682   1.000000
   28       -5.095510   1.000000
   29       -5.050310   1.000000
   30       -5.025275   1.000000
   31       -4.849110   1.000000
   32       -4.762799   1.000000
   33       -4.706425   1.000000
   34       -4.512622   1.000000
   35       -4.483954   1.000000
   36       -4.440400   1.000000
   37       -4.319762   1.000000
   38       -4.210117   1.000000
   39       -3.883005   1.000000
   40       -3.723167   1.000000
   41       -3.567914   1.000000
   42       -3.489125   1.000000
   43       -3.375794   1.000000
   44       -3.298345   1.000000
   45       -3.264798   1.000000
   46       -3.153313   1.000000
   47       -3.030358   1.000000
   48       -2.991491   1.000000
   49       -2.910971   1.000000
   50       -2.870916   1.000000
   51       -2.782394   1.000000
   52       -2.756812   1.000000
   53       -2.661151   1.000000
   54       -2.598371   1.000000
   55       -2.489231   1.000000
   56       -2.456234   1.000000
   57       -2.420973   1.000000
   58       -2.368213   1.000000
   59       -2.351946   1.000000
   60       -2.186387   1.000000
   61       -2.143304   1.000000
   62       -2.133517   1.000000
   63       -2.109700   1.000000
   64       -2.046919   1.000000
   65       -1.812191   1.000000
   66       -1.738704   1.000000
   67       -1.663083   1.000000
   68       -1.601570   1.000000
   69       -1.432058   1.000000
   70       -1.366687   1.000000
   71       -1.195779   1.000000
   72       -0.967608   1.000000
   73       -0.893930   1.000000
   74       -0.798199   1.000000
   75       -0.759917   1.000000
   76       -0.673628   1.000000
   77       -0.522053   1.000000
   78       -0.407136   1.000000
   79       -0.182961   1.000000
   80        0.014896   1.000000
   81        0.105340   1.000000
   82        0.199801   1.000000
   83        0.335219   1.000000
   84        0.389331   1.000000
   85        0.665055   1.000000
   86        0.870091   1.000000
   87        0.957414   1.000000
   88        1.103068   1.000000
   89        1.213058   1.000000
   90        1.391159   1.000000
   91        1.424819   1.000000
   92        1.460255   1.000000
   93        1.608014   1.000005
   94        1.745320   1.000274
   95        1.811319   1.001325
   96        1.886577   1.005847
   97        2.023148   1.031386
   98        2.079592   1.033825
   99        2.173202   0.945172
  100        2.185615   0.919141
  101        2.255718   0.702538
  102        2.411580   0.112953
  103        2.534082  -0.034347
  104        2.600322  -0.028730
  105        2.651935  -0.017110
  106        2.772551  -0.002329
  107        2.785252  -0.001788
  108        2.874273  -0.000216
  109        2.983576  -0.000009
  110        3.030947  -0.000002
  111        3.058554  -0.000001
  112        3.129938  -0.000000
  113        3.197970  -0.000000
  114        3.402888  -0.000000
  115        3.508057  -0.000000
  116        3.631241  -0.000000
  117        3.702320  -0.000000
  118        3.839051  -0.000000
  119        3.909305  -0.000000
  120        3.948395  -0.000000
  121        4.079759  -0.000000
  122        4.087388  -0.000000
  123        4.144648  -0.000000
  124        4.200632  -0.000000
  125        4.450805  -0.000000
  126        4.560817  -0.000000

  0.3742002E-15  0.1111111E+00  0.1262379E-14  0.2469136E-01
    1      -12.282918   1.000000
    2      -11.619585   1.000000
    3      -10.934105   1.000000
    4      -10.326099   1.000000
    5       -9.320082   1.000000
    6       -9.153912   1.000000
    7       -9.139373   1.000000
    8       -9.028977   1.000000
    9       -8.936458   1.000000
   10       -8.760796   1.000000
   11       -8.690918   1.000000
   12       -8.675425   1.000000
   13       -8.640506   1.000000
   14       -8.446454   1.000000
   15       -8.214123   1.000000
   16       -7.954030   1.000000
   17       -7.901163   1.000000
   18       -7.597832   1.000000
   19       -7.550047   1.000000
   20       -7.446489   1.000000
   21       -7.256650   1.000000
   22       -7.031228   1.000000
   23       -6.892229   1.000000
   24       -6.720016   1.000000
   25       -6.654685   1.000000
   26       -6.476576   1.000000
   27       -6.221856   1.000000
   28       -5.487513   1.000000
   29       -5.358005   1.000000
   30       -5.192184   1.000000
   31       -4.530668   1.000000
   32       -4.186573   1.000000
   33       -4.171895   1.000000
   34       -3.993522   1.000000
   35       -3.682650   1.000000
   36       -3.569878   1.000000
   37       -3.553024   1.000000
   38       -3.503911   1.000000
   39       -3.445170   1.000000
   40       -3.407631   1.000000
   41       -3.381560   1.000000
   42       -3.289727   1.000000
   43       -3.262238   1.000000
   44       -3.182323   1.000000
   45       -3.167929   1.000000
   46       -2.904628   1.000000
   47       -2.873928   1.000000
   48       -2.767646   1.000000
   49       -2.723618   1.000000
   50       -2.655579   1.000000
   51       -2.603903   1.000000
   52       -2.523471   1.000000
   53       -2.460023   1.000000
   54       -2.326157   1.000000
   55       -2.281603   1.000000
   56       -2.254739   1.000000
   57       -2.223619   1.000000
   58       -2.159607   1.000000
   59       -2.103954   1.000000
   60       -2.057811   1.000000
   61       -1.994392   1.000000
   62       -1.910462   1.000000
   63       -1.885175   1.000000
   64       -1.862071   1.000000
   65       -1.778960   1.000000
   66       -1.680276   1.000000
   67       -1.612687   1.000000
   68       -1.519482   1.000000
   69       -1.444827   1.000000
   70       -1.251731   1.000000
   71       -1.218389   1.000000
   72       -1.140460   1.000000
   73       -1.056525   1.000000
   74       -0.983281   1.000000
   75       -0.640275   1.000000
   76       -0.586224   1.000000
   77       -0.094641   1.000000
   78       -0.010837   1.000000
   79        0.213281   1.000000
   80        0.340121   1.000000
   81        0.351701   1.000000
   82        0.467646   1.000000
   83        0.537143   1.000000
   84        0.711949   1.000000
   85        0.779081   1.000000
   86        0.910801   1.000000
   87        1.367173   1.000000
   88        1.422632   1.000000
   89        1.555952   1.000001
   90        1.734622   1.000207
   91        1.795272   1.000924
   92        1.850131   1.002975
   93        1.921592   1.010320
   94        1.973138   1.020301
   95        2.020032   1.030785
   96        2.146737   0.988089
   97        2.216648   0.837137
   98        2.360155   0.277010
   99        2.601032  -0.028576
  100        2.678857  -0.011953
  101        2.755425  -0.003274
  102        2.818717  -0.000852
  103        2.876918  -0.000202
  104        2.913345  -0.000074
  105        2.963988  -0.000016
  106        3.000282  -0.000005
  107        3.051203  -0.000001
  108        3.107041  -0.000000
  109        3.214420  -0.000000
  110        3.233547  -0.000000
  111        3.246622  -0.000000
  112        3.349114  -0.000000
  113        3.379178  -0.000000
  114        3.428834  -0.000000
  115        3.497250  -0.000000
  116        3.520338  -0.000000
  117        3.604944  -0.000000
  118        3.651092  -0.000000
  119        3.684940  -0.000000
  120        3.705147  -0.000000
  121        3.813840  -0.000000
  122        4.106605  -0.000000
  123        4.254731  -0.000000
  124        4.442996  -0.000000
  125        4.807572  -0.000000
  126        4.961158  -0.000000

  0.1111111E+00  0.1111111E+00  0.1262379E-14  0.2469136E-01
    1      -12.167768   1.000000
    2      -11.516665   1.000000
    3      -10.856382   1.000000
    4      -10.264079   1.000000
    5       -9.490427   1.000000
    6       -9.486782   1.000000
    7       -9.290216   1.000000
    8       -9.214785   1.000000
    9       -9.190906   1.000000
   10       -9.137978   1.000000
   11       -8.986846   1.000000
   12       -8.701126   1.000000
   13       -8.501450   1.000000
   14       -8.336027   1.000000
   15       -8.222008   1.000000
   16       -8.167256   1.000000
   17       -7.556384   1.000000
   18       -7.213433   1.000000
   19       -7.138229   1.000000
   20       -7.100576   1.000000
   21       -6.895656   1.000000
   22       -6.881378   1.000000
   23       -6.729866   1.000000
   24       -6.514721   1.000000
   25       -6.490250   1.000000
   26       -6.480160   1.000000
   27       -6.122637   1.000000
   28       -5.394153   1.000000
   29       -5.113195   1.000000
   30       -4.940891   1.000000
   31       -4.448643   1.000000
   32       -4.333289   1.000000
   33       -4.141396   1.000000
   34       -3.957258   1.000000
   35       -3.921145   1.000000
   36       -3.890286   1.000000
   37       -3.643372   1.000000
   38       -3.563513   1.000000
   39       -3.488966   1.000000
   40       -3.460234   1.000000
   41       -3.397483   1.000000
   42       -3.343747   1.000000
   43       -3.318326   1.000000
   44       -3.273715   1.000000
   45       -3.132448   1.000000
   46       -3.097266   1.000000
   47       -2.889563   1.000000
   48       -2.853116   1.000000
   49       -2.792630   1.000000
   50       -2.742714   1.000000
   51       -2.632546   1.000000
   52       -2.608620   1.000000
   53       -2.561444   1.000000
   54       -2.368554   1.000000
   55       -2.312846   1.000000
   56       -2.287854   1.000000
   57       -2.201793   1.000000
   58       -2.162647   1.000000
   59       -2.053737   1.000000
   60       -2.002556   1.000000
   61       -1.986060   1.000000
   62       -1.914998   1.000000
   63       -1.887173   1.000000
   64       -1.853256   1.000000
   65       -1.751992   1.000000
   66       -1.691769   1.000000
   67       -1.641054   1.000000
   68       -1.609961   1.000000
   69       -1.496540   1.000000
   70       -1.390072   1.000000
   71       -1.328792   1.000000
   72       -1.237836   1.000000
   73       -1.052759   1.000000
   74       -0.926355   1.000000
   75       -0.666399   1.000000
   76       -0.608377   1.000000
   77       -0.329334   1.000000
   78       -0.277825   1.000000
   79        0.023948   1.000000
   80        0.265100   1.000000
   81        0.379098   1.000000
   82        0.407027   1.000000
   83        0.532457   1.000000
   84        0.573783   1.000000
   85        0.761189   1.000000
   86        0.767449   1.000000
   87        1.231511   1.000000
   88        1.328485   1.000000
   89        1.488531   1.000000
   90        1.676654   1.000041
   91        1.753148   1.000335
   92        1.837672   1.002318
   93        1.863552   1.003853
   94        1.985136   1.023045
   95        2.090777   1.031091
   96        2.215276   0.841264
   97        2.414540   0.105405
   98        2.469434   0.004763
   99        2.495743  -0.019481
  100        2.552315  -0.035441
  101        2.614051  -0.025649
  102        2.717297  -0.006546
  103        2.793910  -0.001485
  104        2.871837  -0.000230
  105        2.917153  -0.000067
  106        2.975873  -0.000011
  107        3.070815  -0.000000
  108        3.096476  -0.000000
  109        3.152308  -0.000000
  110        3.212988  -0.000000
  111        3.248940  -0.000000
  112        3.282503  -0.000000
  113        3.340701  -0.000000
  114        3.368493  -0.000000
  115        3.423215  -0.000000
  116        3.447711  -0.000000
  117        3.502570  -0.000000
  118        3.554668  -0.000000
  119        3.616530  -0.000000
  120        3.643344  -0.000000
  121        3.707918  -0.000000
  122        3.766923  -0.000000
  123        3.873711  -0.000000
  124        4.001770  -0.000000
  125        4.369265  -0.000000
  126        4.965976  -0.000000

  0.2222222E+00  0.1111111E+00  0.1262379E-14  0.2469136E-01
    1      -11.941032   1.000000
    2      -11.315255   1.000000
    3      -10.706735   1.000000
    4      -10.145663   1.000000
    5      -10.081610   1.000000
    6       -9.705127   1.000000