   71   71    1    1
  0.2199523E+02  0.1053953E-08  0.6141200E-09  0.2412750E-08  0.5000000E-15
   1.0000000000000000E-004
  CAR 
 Name                                    
    266     23    176

  0.3742002E-15  0.3742002E-15  0.1262379E-14  0.2222222E-01
    1      -13.878860   1.000000
    2      -12.821363   1.000000
    3      -12.595842   1.000000
    4      -12.438622   1.000000
    5      -11.880284   1.000000
    6      -11.642010   1.000000
    7      -11.592694   1.000000
    8      -11.337464   1.000000
    9      -11.307819   1.000000
   10      -11.198193   1.000000
   11      -11.069214   1.000000
   12      -10.921466   1.000000
   13      -10.679791   1.000000
   14      -10.335071   1.000000
   15      -10.173274   1.000000
   16      -10.148910   1.000000
   17      -10.025958   1.000000
   18       -9.992788   1.000000
   19       -9.713579   1.000000
   20       -9.711435   1.000000
   21       -9.456294   1.000000
   22       -9.439826   1.000000
   23       -9.317536   1.000000
   24       -9.199135   1.000000
   25       -8.900505   1.000000
   26       -8.782017   1.000000
   27       -8.487302   1.000000
   28       -8.227237   1.000000
   29       -8.215597   1.000000
   30       -8.115397   1.000000
   31       -7.921156   1.000000
   32       -7.899444   1.000000
   33       -7.575343   1.000000
   34       -7.362806   1.000000
   35       -7.253160   1.000000
   36       -7.097366   1.000000
   37       -6.977795   1.000000
   38       -6.787930   1.000000
   39       -6.769063   1.000000
   40       -6.684626   1.000000
   41       -6.628992   1.000000
   42       -6.496601   1.000000
   43       -6.415767   1.000000
   44       -6.254634   1.000000
   45       -6.186543   1.000000
   46       -6.110925   1.000000
   47       -6.084219   1.000000
   48       -6.015602   1.000000
   49       -5.942909   1.000000
   50       -5.844772   1.000000
   51       -5.724233   1.000000
   52       -5.637865   1.000000
   53       -5.509773   1.000000
   54       -5.501440   1.000000
   55       -5.468968   1.000000
   56       -5.309673   1.000000
   57       -5.250071   1.000000
   58       -5.168830   1.000000
   59       -5.100842   1.000000
   60       -5.053722   1.000000
   61       -5.052260   1.000000
   62       -4.935990   1.000000
   63       -4.742434   1.000000
   64       -4.668575   1.000000
   65       -4.640015   1.000000
   66       -4.555509   1.000000
   67       -4.526041   1.000000
   68       -4.412372   1.000000
   69       -4.386160   1.000000
   70       -4.325308   1.000000
   71       -4.237717   1.000000
   72       -4.175087   1.000000
   73       -4.098043   1.000000
   74       -4.060273   1.000000
   75       -3.973718   1.000000
   76       -3.937763   1.000000
   77       -3.919100   1.000000
   78       -3.849892   1.000000
   79       -3.777256   1.000000
   80       -3.733941   1.000000
   81       -3.621239   1.000000
   82       -3.599498   1.000000
   83       -3.553825   1.000000
   84       -3.501102   1.000000
   85       -3.449312   1.000000
   86       -3.327409   1.000000
   87       -3.314631   1.000000
   88       -3.276581   1.000000
   89       -3.129825   1.000000
   90       -3.094538   1.000000
   91       -3.015015   1.000000
   92       -2.984780   1.000000
   93       -2.878455   1.000000
   94       -2.812288   1.000000
   95       -2.746789   1.000000
   96       -2.609805   1.000000
   97       -2.522585   1.000000
   98       -2.507260   1.000000
   99       -2.421736   1.000000
  100       -2.415123   1.000000
  101       -2.323249   1.000000
  102       -2.268313   1.000000
  103       -2.267033   1.000000
  104       -2.245545   1.000000
  105       -2.172649   1.000000
  106       -2.126073   1.000000
  107       -2.114866   1.000000
  108       -2.083257   1.000000
  109       -2.032998   1.000000
  110       -1.867347   1.000000
  111       -1.841755   1.000000
  112       -1.735298   1.000000
  113       -1.696520   1.000000
  114       -1.544991   1.000000
  115       -1.504561   1.000000
  116       -1.476798   1.000000
  117       -1.408801   1.000000
  118       -1.172996   1.000000
  119       -1.136155   1.000000
  120       -1.097655   1.000000
  121       -0.973739   1.000000
  122       -0.889358   1.000000
  123       -0.735441   1.000000
  124       -0.608470   1.000000
  125       -0.500153   1.000018
  126       -0.415336   1.000209
  127       -0.399388   1.000316
  128       -0.263029   1.005918
  129       -0.119039   1.032816
  130       -0.088844   1.035453
  131        0.001115   0.981704
  132        0.078375   0.799114
  133        0.091739   0.753155
  134        0.156004   0.495446
  135        0.227596   0.213861
  136        0.303128   0.026623
  137        0.318728   0.005250
  138        0.418555  -0.034278
  139        0.437849  -0.031226
  140        0.578463  -0.005367
  141        0.667868  -0.000863
  142        0.695881  -0.000442
  143        0.775048  -0.000053
  144        0.785386  -0.000039
  145        0.927409  -0.000000
  146        0.977705  -0.000000
  147        1.014749  -0.000000
  148        1.065430  -0.000000
  149        1.098913  -0.000000
  150        1.160663  -0.000000
  151        1.194323  -0.000000
  152        1.241888  -0.000000
  153        1.287322  -0.000000
  154        1.297325  -0.000000
  155        1.308140  -0.000000
  156        1.331521  -0.000000
  157        1.431563  -0.000000
  158        1.452293  -0.000000
  159        1.485421  -0.000000
  160        1.531922  -0.000000
  161        1.550757  -0.000000
  162        1.561299  -0.000000
  163        1.570536  -0.000000
  164        1.604079  -0.000000
  165        1.642236  -0.000000
  166        1.710282  -0.000000
  167        1.780388  -0.000000
  168        1.791644  -0.000000
  169        1.890596  -0.000000
  170        1.995111  -0.000000
  171        2.024972  -0.000000
  172        2.263540  -0.000000
  173        2.290922  -0.000000
  174        2.509027  -0.000000
  175        2.587649  -0.000000
  176        2.658998  -0.000000

  0.2000000E+00  0.3742002E-15  0.1262379E-14  0.4444444E-01
    1      -13.852196   1.000000
    2      -12.948452   1.000000
    3      -12.693801   1.000000
    4      -12.134165   1.000000
    5      -11.936578   1.000000
    6      -11.878859   1.000000
    7      -11.365147   1.000000
    8      -11.325168   1.000000
    9      -11.184586   1.000000
   10      -11.137788   1.000000
   11      -11.040971   1.000000
   12      -10.921686   1.000000
   13      -10.656769   1.000000
   14      -10.474818   1.000000
   15      -10.382217   1.000000
   16      -10.165775   1.000000
   17      -10.156155   1.000000
   18      -10.018176   1.000000
   19       -9.721744   1.000000
   20       -9.700017   1.000000
   21       -9.479563   1.000000
   22       -9.464208   1.000000
   23       -9.285515   1.000000
   24       -9.156972   1.000000
   25       -8.878514   1.000000
   26       -8.671266   1.000000
   27       -8.345654   1.000000
   28       -8.181960   1.000000
   29       -8.129799   1.000000
   30       -8.044282   1.000000
   31       -7.962858   1.000000
   32       -7.872652   1.000000
   33       -7.499089   1.000000
   34       -7.388378   1.000000
   35       -7.345730   1.000000
   36       -7.158521   1.000000
   37       -7.014404   1.000000
   38       -6.844835   1.000000
   39       -6.794859   1.000000
   40       -6.755801   1.000000
   41       -6.678667   1.000000
   42       -6.580112   1.000000
   43       -6.442587   1.000000
   44       -6.380331   1.000000
   45       -6.256450   1.000000
   46       -6.173589   1.000000
   47       -5.963121   1.000000
   48       -5.899072   1.000000
   49       -5.846191   1.000000
   50       -5.837371   1.000000
   51       -5.748702   1.000000
   52       -5.708604   1.000000
   53       -5.503130   1.000000
   54       -5.430663   1.000000
   55       -5.373371   1.000000
   56       -5.363973   1.000000
   57       -5.244276   1.000000
   58       -5.112489   1.000000
   59       -5.099532   1.000000
   60       -5.000557   1.000000
   61       -4.922924   1.000000
   62       -4.912936   1.000000
   63       -4.879419   1.000000
   64       -4.655504   1.000000
   65       -4.588078   1.000000
   66       -4.582394   1.000000
   67       -4.479333   1.000000
   68       -4.392539   1.000000
   69       -4.367326   1.000000
   70       -4.321261   1.000000
   71       -4.209328   1.000000
   72       -4.127439   1.000000
   73       -4.091759   1.000000
   74       -4.082165   1.000000
   75       -3.977701   1.000000
   76       -3.946478   1.000000
   77       -3.938472   1.000000
   78       -3.871706   1.000000
   79       -3.792157   1.000000
   80       -3.781758   1.000000
   81       -3.701895   1.000000
   82       -3.657442   1.000000
   83       -3.574176   1.000000
   84       -3.475832   1.000000
   85       -3.428296   1.000000
   86       -3.418420   1.000000
   87       -3.277396   1.000000
   88       -3.257444   1.000000
   89       -3.160050   1.000000
   90       -3.083171   1.000000
   91       -3.054386   1.000000
   92       -2.946459   1.000000
   93       -2.856976   1.000000
   94       -2.806132   1.000000
   95       -2.750562   1.000000
   96       -2.634728   1.000000
   97       -2.597345   1.000000
   98       -2.531734   1.000000
   99       -2.484129   1.000000
  100       -2.383533   1.000000
  101       -2.382141   1.000000
  102       -2.303965   1.000000
  103       -2.277117   1.000000
  104       -2.214513   1.000000
  105       -2.144235   1.000000
  106       -2.090184   1.000000
  107       -2.043264   1.000000
  108       -2.025243   1.000000
  109       -1.929396   1.000000
  110       -1.830421   1.000000
  111       -1.796831   1.000000
  112       -1.668682   1.000000
  113       -1.664550   1.000000
  114       -1.531686   1.000000
  115       -1.491140   1.000000
  116       -1.453304   1.000000
  117       -1.363187   1.000000
  118       -1.173530   1.000000
  119       -1.140602   1.000000
  120       -1.096629   1.000000
  121       -1.051272   1.000000
  122       -0.896916   1.000000
  123       -0.816800   1.000000
  124       -0.632859   1.000000
  125       -0.569847   1.000002
  126       -0.489997   1.000025
  127       -0.445372   1.000093
  128       -0.371376   1.000631
  129       -0.181000   1.019443
  130       -0.137320   1.029340
  131       -0.022195   1.008826
  132        0.010942   0.966639
  133        0.149229   0.524104
  134        0.162249   0.469044
  135        0.182350   0.385167
  136        0.266640   0.099450
  137        0.367863  -0.030602
  138        0.464752  -0.025419
  139        0.499337  -0.017597
  140        0.595102  -0.003963
  141        0.665503  -0.000911
  142        0.676611  -0.000704
  143        0.762207  -0.000076
  144        0.842068  -0.000007
  145        0.955091  -0.000000
  146        0.975359  -0.000000
  147        1.023672  -0.000000
  148        1.091162  -0.000000
  149        1.094969  -0.000000
  150        1.180647  -0.000000
  151        1.233562  -0.000000
  152        1.243432  -0.000000
  153        1.289566  -0.000000
  154        1.362741  -0.000000
  155        1.377510  -0.000000
  156        1.425158  -0.000000
  157        1.443646  -0.000000
  158        1.470201  -0.000000
  159        1.497350  -0.000000
  160        1.531066  -0.000000
  161        1.590009  -0.000000
  162        1.596962  -0.000000
  163        1.618190  -0.000000
  164        1.646266  -0.000000
  165        1.687888  -0.000000
  166        1.756399  -0.000000
  167        1.765747  -0.000000
  168        1.788541  -0.000000
  169        1.976479  -0.000000
  170        1.998497  -0.000000
  171        2.115958  -0.000000
  172        2.241753  -0.000000
  173        2.353610  -0.000000
  174        2.657733  -0.000000
  175        2.692567  -0.000000
  176        3.897830  -0.000000

  0.4000000E+00  0.3742002E-15  0.1262379E-14  0.4444444E-01
    1      -13.798894   1.000000
    2      -13.146145   1.000000
    3      -12.610668   1.000000
    4      -12.279076   1.000000
    5      -11.876500   1.000000
    6      -11.562957   1.000000
    7      -11.405515   1.000000
    8      -11.327517   1.000000
    9      -11.074990   1.000000
   10      -11.069476   1.000000
   11      -10.915965   1.000000
   12      -10.912016   1.000000
   13      -10.678059   1.000000
   14      -10.605700   1.000000
   15      -10.470765   1.000000
   16      -10.438763   1.000000
   17      -10.151330   1.000000
   18      -10.071196   1.000000
   19      -10.054070   1.000000
   20       -9.733881   1.000000
   21       -9.480859   1.000000
   22       -9.331656   1.000000
   23       -9.186841   1.000000
   24       -9.118963   1.000000
   25       -8.854735   1.000000
   26       -8.646202   1.000000
   27       -8.185551   1.000000
   28       -8.044932   1.000000
   29       -7.975938   1.000000
   30       -7.919581   1.000000
   31       -7.807122   1.000000
   32       -7.636291   1.000000
   33       -7.549597   1.000000
   34       -7.508520   1.000000
   35       -7.380017   1.000000
   36       -7.355773   1.000000
   37       -7.209093   1.000000
   38       -7.076364   1.000000
   39       -7.009001   1.000000
   40       -6.803109   1.000000
   41       -6.720674   1.000000
   42       -6.652204   1.000000
   43       -6.465041   1.000000
   44       -6.258484   1.000000
   45       -6.213945   1.000000
   46       -6.163716   1.000000
   47       -5.968457   1.000000
   48       -5.957805   1.000000
   49       -5.850149   1.000000
   50       -5.830970   1.000000
   51       -5.656259   1.000000
   52       -5.620400   1.000000
   53       -5.521182   1.000000
   54       -5.450367   1.000000
   55       -5.409320   1.000000
   56       -5.348436   1.000000
   57       -5.261922   1.000000
   58       -5.170327   1.000000
   59       -5.029596   1.000000
   60       -4.904905   1.000000
   61       -4.862348   1.000000
   62       -4.784976   1.000000
   63       -4.737457   1.000000
   64       -4.637372   1.000000
   65       -4.634123   1.000000
   66       -4.485465   1.000000
   67       -4.451903   1.000000
   68       -4.389085   1.000000
   69       -4.327386   1.000000
   70       -4.285779   1.000000
   71       -4.242073   1.000000
   72       -4.126230   1.000000
   73       -4.096532   1.000000
   74       -4.055234   1.000000
   75       -4.035390   1.000000
   76       -4.003988   1.000000
   77       -3.931588   1.000000
   78       -3.877253   1.000000
   79       -3.845630   1.000000
   80       -3.834914   1.000000
   81       -3.744304   1.000000
   82       -3.729315   1.000000
   83       -3.571431   1.000000
   84       -3.544404   1.000000
   85       -3.444979   1.000000
   86       -3.403646   1.000000
   87       -3.260996   1.000000
   88       -3.242279   1.000000
   89       -3.216871   1.000000
   90       -3.053415   1.000000
   91       -3.029014   1.000000
   92       -2.986205   1.000000
   93       -2.972021   1.000000
   94       -2.841996   1.000000
   95       -2.731730   1.000000
   96       -2.720961   1.000000
   97       -2.669609   1.000000
   98       -2.542022   1.000000
   99       -2.495520   1.000000
  100       -2.433556   1.000000
  101       -2.402140   1.000000
  102       -2.278080   1.000000
  103       -2.201176   1.000000
  104       -2.152985   1.000000
  105       -2.115358   1.000000
  106       -2.041417   1.000000
  107       -2.014009   1.000000
  108       -1.905127   1.000000
  109       -1.817491   1.000000
  110       -1.814332   1.000000
  111       -1.635690   1.000000
  112       -1.622493   1.000000
  113       -1.584930   1.000000
  114       -1.497429   1.000000
  115       -1.440864   1.000000
  116       -1.391141   1.000000
  117       -1.310997   1.000000
  118       -1.203364   1.000000
  119       -1.173108   1.000000
  120       -1.145462   1.000000
  121       -1.059926   1.000000
  122       -0.966183   1.000000
  123       -0.898760   1.000000
  124       -0.705216   1.000000
  125       -0.694565   1.000000
  126       -0.613347   1.000000
  127       -0.558979   1.000003
  128       -0.456361   1.000068
  129       -0.354998   1.000925
  130       -0.236199   1.009202
  131       -0.025754   1.011983
  132       -0.002698   0.986948
  133        0.129310   0.607420
  134        0.141540   0.556507
  135        0.188735   0.359192
  136        0.282441   0.063840
  137        0.393112  -0.035273
  138        0.429038  -0.032793
  139        0.524465  -0.012667
  140        0.635808  -0.001756
  141        0.646213  -0.001404
  142        0.732884  -0.000171
  143        0.803330  -0.000023
  144        0.832649  -0.000009
  145        0.976561  -0.000000
  146        0.990598  -0.000000
  147        1.077603  -0.000000
  148        1.099589  -0.000000
  149        1.210230  -0.000000
  150        1.268906  -0.000000
  151        1.283723  -0.000000
  152        1.290064  -0.000000
  153        1.352879  -0.000000
  154        1.383537  -0.000000
  155        1.454534  -0.000000
  156        1.465019  -0.000000
  157        1.482315  -0.000000
  158        1.496467  -0.000000
  159        1.553072  -0.000000
  160        1.569819  -0.000000
  161        1.613829  -0.000000
  162        1.642201  -0.000000
  163        1.681153  -0.000000
  164        1.716738  -0.000000
  165        1.739977  -0.000000
  166        1.751641  -0.000000
  167        1.792427  -0.000000
  168        1.823851  -0.000000
  169        1.896294  -0.000000
  170        1.979840  -0.000000
  171        1.992175  -0.000000
  172        2.162508  -0.000000
  173        2.207699  -0.000000
  174        2.342076  -0.000000
  175        2.586932  -0.000000
  176        2.778879  -0.000000

  0.3742002E-15  0.1111111E+00  0.1262379E-14  0.4444444E-01
    1      -13.833293   1.000000
    2      -12.780489   1.000000
    3      -12.560217   1.000000
    4      -12.407354   1.000000
    5      -11.961197   1.000000
    6      -11.609748   1.000000
    7      -11.567407   1.000000
    8      -11.377774   1.000000
    9      -11.336297   1.000000
   10      -11.239091   1.000000
   11      -11.043663   1.000000
   12      -10.935854   1.000000
   13      -10.711884   1.000000
   14      -10.344629   1.000000
   15      -10.173027   1.000000
   16      -10.131890   1.000000
   17      -10.026328   1.000000
   18      -10.006043   1.000000
   19       -9.711267   1.000000
   20       -9.680435   1.000000
   21       -9.482808   1.000000
   22       -9.439127   1.000000
   23       -9.309004   1.000000
   24       -9.207104   1.000000
   25       -8.920147   1.000000
   26       -8.758303   1.000000
   27       -8.476593   1.000000
   28       -8.250792   1.000000
   29       -8.206229   1.000000
   30       -8.120868   1.000000
   31       -7.910825   1.000000
   32       -7.784003   1.000000
   33       -7.663880   1.000000
   34       -7.360073   1.000000
   35       -7.332373   1.000000
   36       -7.198920   1.000000
   37       -6.957747   1.000000
   38       -6.827988   1.000000
   39       -6.726769   1.000000
   40       -6.618471   1.000000
   41       -6.586416   1.000000
   42       -6.488504   1.000000
   43       -6.381561   1.000000
   44       -6.275887   1.000000
   45       -6.151978   1.000000
   46       -6.101012   1.000000
   47       -6.068763   1.000000
   48       -6.009695   1.000000
   49       -5.980674   1.000000
   50       -5.854224   1.000000
   51       -5.736012   1.000000
   52       -5.607378   1.000000
   53       -5.566700   1.000000
   54       -5.427174   1.000000
   55       -5.399774   1.000000
   56       -5.326446   1.000000
   57       -5.242541   1.000000
   58       -5.121592   1.000000
   59       -5.082857   1.000000
   60       -5.048979   1.000000
   61       -4.996111   1.000000
   62       -4.901895   1.000000
   63       -4.737348   1.000000
   64       -4.691905   1.000000
   65       -4.628328   1.000000
   66       -4.552527   1.000000
   67       -4.491373   1.000000
   68       -4.420409   1.000000
   69       -4.382507   1.000000
   70       -4.351405   1.000000
   71       -4.280627   1.000000
   72       -4.206926   1.000000
   73       -4.177636   1.000000
   74       -4.000889   1.000000
   75       -3.970552   1.000000
   76       -3.942444   1.000000
   77       -3.898502   1.000000
   78       -3.836169   1.000000
   79       -3.801230   1.000000
   80       -3.741912   1.000000
   81       -3.657928   1.000000
   82       -3.608149   1.000000
   83       -3.569443   1.000000
   84       -3.510854   1.000000
   85       -3.440433   1.000000
   86       -3.336967   1.000000
   87       -3.285950   1.000000
   88       -3.273873   1.000000
   89       -3.189999   1.000000
   90       -3.089904   1.000000
   91       -3.038248   1.000000
   92       -3.013774   1.000000
   93       -2.959840   1.000000
   94       -2.852322   1.000000
   95       -2.782708   1.000000
   96       -2.688509   1.000000
   97       -2.632184   1.000000
   98       -2.488416   1.000000
   99       -2.462265   1.000000
  100       -2.407406   1.000000
  101       -2.346714   1.000000
  102       -2.323911   1.000000
  103       -2.299096   1.000000
  104       -2.211816   1.000000
  105       -2.177833   1.000000
  106       -2.121920   1.000000
  107       -2.099305   1.000000
  108       -2.088168   1.000000
  109       -1.994129   1.000000
  110       -1.885169   1.000000
  111       -1.810646   1.000000
  112       -1.715104   1.000000
  113       -1.626103   1.000000
  114       -1.509994   1.000000
  115       -1.466535   1.000000
  116       -1.445799   1.000000
  117       -1.407599   1.000000
  118       -1.233028   1.000000
  119       -1.120462   1.000000
  120       -1.044242   1.000000
  121       -0.871168   1.000000
  122       -0.814329   1.000000
  123       -0.726824   1.000000
  124       -0.660879   1.000000
  125       -0.553674   1.000003
  126       -0.482988   1.000031
  127       -0.352256   1.000985
  128       -0.271768   1.005073
  129       -0.209180   1.013654
  130       -0.142427   1.028237
  131       -0.014463   1.001104
  132        0.025283   0.940483
  133        0.120314   0.644058
  134        0.153149   0.507526
  135        0.254478   0.131140
  136        0.352997  -0.024096
  137        0.365614  -0.029820
  138        0.413815  -0.034778
  139        0.483579  -0.021079
  140        0.550618  -0.008566
  141        0.664357  -0.000936
  142        0.722805  -0.000223
  143        0.751618  -0.000102
  144        0.840951  -0.000007
  145        0.887489  -0.000001
  146        0.921869  -0.000000
  147        1.037522  -0.000000
  148        1.063822  -0.000000
  149        1.104485  -0.000000
  150        1.137941  -0.000000
  151        1.208173  -0.000000
  152        1.218879  -0.000000
  153        1.254018  -0.000000
  154        1.317757  -0.000000
  155        1.357960  -0.000000
  156        1.408073  -0.000000
  157        1.428904  -0.000000
  158        1.451269  -0.000000
  159        1.464122  -0.000000
  160        1.505035  -0.000000
  161        1.522273  -0.000000
  162        1.545081  -0.000000
  163        1.591017  -0.000000
  164        1.609181  -0.000000
  165        1.650572  -0.000000
  166        1.693619  -0.000000
  167        1.714198  -0.000000
  168        1.757038  -0.000000
  169        1.858016  -0.000000
  170        1.981962  -0.000000
  171        2.016978  -0.000000
  172        2.135610  -0.000000
  173        2.259183  -0.000000
  174        2.479307  -0.000000
  175        2.598870  -0.000000
  176        3.666755  -0.000000

  0.2000000E+00  0.1111111E+00  0.1262379E-14  0.4444444E-01
    1      -13.806893   1.000000
    2      -12.908777   1.000000
    3      -12.656183   1.000000
    4      -12.101340   1.000000
    5      -11.961227   1.000000
    6      -11.904136   1.000000
    7      -11.418003   1.000000
    8      -11.358709   1.000000
    9      -11.164913   1.000000
   10      -11.155682   1.000000
   11      -11.016008   1.000000
   12      -10.941116   1.000000
   13      -10.681358   1.000000
   14      -10.460772   1.000000
   15      -10.389558   1.000000
   16      -10.174969   1.000000
   17      -10.135470   1.000000
   18      -10.036438   1.000000
   19       -9.733555   1.000000
   20       -9.678788   1.000000
   21       -9.486864   1.000000
   22       -9.466597   1.000000
   23       -9.281895   1.000000
   24       -9.164450   1.000000
   25       -8.874575   1.000000
   26       -8.661652   1.000000
   27       -8.336903   1.000000
   28       -8.200414   1.000000
   29       -8.136487   1.000000
   30       -8.061223   1.000000
   31       -7.948483   1.000000
   32       -7.748653   1.000000
   33       -7.573352   1.000000
   34       -7.435298   1.000000
   35       -7.376103   1.000000
   36       -7.228011   1.000000
   37       -6.997319   1.000000
   38       -6.839377   1.000000
   39       -6.816527   1.000000
   40       -6.695332   1.000000
   41       -6.645732   1.000000
   42       -6.511244   1.000000
   43       -6.444624   1.000000
   44       -6.415478   1.000000
   45       -6.255968   1.000000
   46       -6.199603   1.000000
   47       -6.018486   1.000000
   48       -5.948211   1.000000
   49       -5.822142   1.000000
   50       -5.790902   1.000000
   51       -5.702433   1.000000
   52       -5.641621   1.000000
   53       -5.485855   1.000000
   54       -5.449341   1.000000
   55       -5.400672   1.000000
   56       -5.330795   1.000000
   57       -5.178485   1.000000
   58       -5.117692   1.000000
   59       -5.061403   1.000000
   60       -4.965655   1.000000
   61       -4.927406   1.000000
   62       -4.889890   1.000000
   63       -4.837646   1.000000
   64       -4.651257   1.000000
   65       -4.610834   1.000000
   66       -4.533439   1.000000
   67       -4.451728   1.000000
   68       -4.408172   1.000000
   69       -4.365620   1.000000
   70       -4.310518   1.000000
   71       -4.241550   1.000000
   72       -4.197000   1.000000
   73       -4.163415   1.000000
   74       -4.042800   1.000000
   75       -4.010449   1.000000
   76       -3.942603   1.000000
   77       -3.924098   1.000000
   78       -3.875575   1.000000
   79       -3.797995   1.000000
   80       -3.732706   1.000000
   81       -3.717546   1.000000
   82       -3.680954   1.000000
   83       -3.565004   1.000000
   84       -3.518319   1.000000
   85       -3.433486   1.000000
   86       -3.381959   1.000000
   87       -3.315920   1.000000
   88       -3.248676   1.000000
   89       -3.197479   1.000000
   90       -3.121029   1.000000
   91       -3.028556   1.000000
   92       -3.019191   1.000000
   93       -2.909831   1.000000
   94       -2.855466   1.000000
   95       -2.787496   1.000000
   96       -2.715828   1.000000
   97       -2.597365   1.000000
   98       -2.571438   1.000000
   99       -2.497764   1.000000
  100       -2.420309   1.000000
  101       -2.395132   1.000000
  102       -2.374903   1.000000
  103       -2.235510   1.000000
  104       -2.179817   1.000000
  105       -2.131122   1.000000
  106       -2.094298   1.000000
  107       -2.071858   1.000000
  108       -2.026025   1.000000
  109       -1.969505   1.000000
  110       -1.827276   1.000000
  111       -1.763068   1.000000
  112       -1.682961   1.000000
  113       -1.591776   1.000000
  114       -1.521398   1.000000
  115       -1.457719   1.000000
  116       -1.424134   1.000000
  117       -1.388903   1.000000
  118       -1.240286   1.000000
  119       -1.131468   1.000000
  120       -1.074231   1.000000
  121       -0.983968   1.000000
  122       -0.855922   1.000000
  123       -0.736541   1.000000
  124       -0.687350   1.000000
  125       -0.593033   1.000001
  126       -0.547760   1.000004
  127       -0.387161   1.000430
  128       -0.277927   1.004538
  129       -0.251323   1.007217
  130       -0.173195   1.021199
  131       -0.031504   1.016579
  132        0.033610   0.922949
  133        0.111000   0.680996
  134        0.169355   0.439127
  135        0.214553   0.259705
  136        0.276077   0.077425
  137        0.371896  -0.031839
  138        0.417391  -0.034412
  139        0.564521  -0.006826
  140        0.592472  -0.004162
  141        0.654407  -0.001172
  142        0.727440  -0.000197
  143        0.751889  -0.000102
  144        0.876469  -0.000002
  145        0.929982  -0.000000
  146        0.963413  -0.000000
  147        1.036684  -0.000000
  148        1.069496  -0.000000
  149        1.126549  -0.000000
  150        1.173375  -0.000000
  151        1.229301  -0.000000
  152        1.259771  -0.000000
  153        1.300373  -0.000000
  154        1.331886  -0.000000
  155        1.377533  -0.000000
  156        1.417910  -0.000000
  157        1.439178  -0.000000
  158        1.467132  -0.000000
  159        1.487212  -0.000000
  160        1.509399  -0.000000
  161        1.534912  -0.000000
  162        1.563695  -0.000000
  163        1.604233  -0.000000
  164        1.616831  -0.000000
  165        1.648415  -0.000000
  166        1.704208  -0.000000
  167        1.731852  -0.000000
  168        1.805075  -0.000000
  169        1.864852  -0.000000
  170        1.957777  -0.000000
  171        1.980375  -0.000000
  172        2.029391  -0.000000
  173        2.131597  -0.000000
  174        2.204018  -0.000000
  175        2.264322  -0.000000
  176        2.886649  -0.000000

  0.4000000E+00  0.1111111E+00  0.1262379E-14  0.4444444E-01
    1      -13.754133   1.000000
    2      -13.105424   1.000000
    3      -12.573933   1.000000
    4      -12.241308   1.000000
    5      -11.951598   1.000000
    6      -11.556545   1.000000
    7      -11.454164   1.000000
    8      -11.359592   1.000000
    9      -11.086552   1.000000
   10      -11.047433   1.000000
   11      -10.943880   1.000000