 running on   72 total cores
 distrk:  each k-point on   72 cores,    1 groups
 distr:  one band on    9 cores,    8 groups
 using from now: INCAR     
 vasp.5.4.4.18Apr17-6-g9f103f2a35 (build Dec  7 2020 12:43:57) complex           
 POSCAR found type information on POSCAR  Mo V  B  H 
 POSCAR found :  4 types and      71 ions
 scaLAPACK will be used

 ----------------------------------------------------------------------------- 
|                                                                             |
|  ADVICE TO THIS USER RUNNING 'VASP/VAMP'   (HEAR YOUR MASTER'S VOICE ...):  |
|                                                                             |
|      You enforced a specific xc-type in the INCAR file,                     |
|      a different type was found on the POTCAR file                          |
|          I HOPE YOU KNOW, WHAT YOU ARE  DOING                               |
|                                                                             |
 ----------------------------------------------------------------------------- 

 LDA part: xc-table for Pade appr. of Perdew
 POSCAR, INCAR and KPOINTS ok, starting setup
 resort distribution
 resort distribution
 resort distribution
 resort distribution
 resort distribution
 resort distribution
 resort distribution
 resort distribution
 resort distribution
 resort distribution
 resort distribution
 resort distribution
 resort distribution
 resort distribution
 resort distribution
 resort distribution
 resort distribution
 resort distribution
 resort distribution
 resort distribution
 resort distribution
 resort distribution
 resort distribution
 resort distribution
 resort distribution
 resort distribution
 resort distribution
 resort distribution
 resort distribution
 resort distribution
 resort distribution
 resort distribution
 resort distribution
 resort distribution
 resort distribution
 resort distribution
 resort distribution
 resort distribution
 resort distribution
 resort distribution
 resort distribution
 resort distribution
 resort distribution
 resort distribution
 resort distribution
 resort distribution
 resort distribution
 resort distribution
 resort distribution
 resort distribution
 resort distribution
 resort distribution
 resort distribution
 resort distribution
 resort distribution
 resort distribution
 resort distribution
 resort distribution
 resort distribution
 resort distribution
 resort distribution
 resort distribution
 resort distribution
 resort distribution
 resort distribution
 resort distribution
 resort distribution
 resort distribution
 resort distribution
 resort distribution
 resort distribution
 resort distribution
 FFT: planning ...
 WAVECAR not read
 augmentation electrons   266.01688264194468     
 soft         electrons   0.0000000000000000     
 augmentation electrons   266.01688264194468     
 soft         electrons   0.0000000000000000     
 augmentation electrons   266.01688264194468     
 soft         electrons   0.0000000000000000     
 augmentation electrons   266.01688264194468     
 soft         electrons   0.0000000000000000     
 augmentation electrons   266.01688264194468     
 soft         electrons   0.0000000000000000     
 augmentation electrons   266.01688264194468     
 soft         electrons   0.0000000000000000     
 augmentation electrons   266.01688264194468     
 soft         electrons   0.0000000000000000     
 augmentation electrons   266.01688264194468     
 soft         electrons   0.0000000000000000     
 augmentation electrons   266.01688264194468     
 soft         electrons   0.0000000000000000     
 augmentation electrons   266.01688264194468     
 soft         electrons   0.0000000000000000     
 augmentation electrons   266.01688264194468     
 soft         electrons   0.0000000000000000     
 augmentation electrons   266.01688264194468     
 soft         electrons   0.0000000000000000     
 augmentation electrons   266.01688264194468     
 soft         electrons   0.0000000000000000     
 augmentation electrons   266.01688264194468     
 soft         electrons   0.0000000000000000     
 augmentation electrons   266.01688264194468     
 soft         electrons   0.0000000000000000     
 augmentation electrons   266.01688264194468     
 soft         electrons   0.0000000000000000     
 augmentation electrons   266.01688264194468     
 soft         electrons   0.0000000000000000     
 augmentation electrons   266.01688264194468     
 soft         electrons   0.0000000000000000     
 augmentation electrons   266.01688264194468     
 soft         electrons   0.0000000000000000     
 augmentation electrons   266.01688264194468     
 soft         electrons   0.0000000000000000     
 augmentation electrons   266.01688264194468     
 soft         electrons   0.0000000000000000     
 augmentation electrons   266.01688264194468     
 soft         electrons   0.0000000000000000     
 augmentation electrons   266.01688264194468     
 soft         electrons   0.0000000000000000     
 augmentation electrons   266.01688264194468     
 soft         electrons   0.0000000000000000     
 augmentation electrons   266.01688264194468     
 soft         electrons   0.0000000000000000     
 augmentation electrons   266.01688264194468     
 soft         electrons   0.0000000000000000     
 augmentation electrons   266.01688264194468     
 soft         electrons   0.0000000000000000     
 augmentation electrons   266.01688264194468     
 soft         electrons   0.0000000000000000     
 augmentation electrons   266.01688264194468     
 soft         electrons   0.0000000000000000     
 augmentation electrons   266.01688264194468     
 soft         electrons   0.0000000000000000     
 augmentation electrons   266.01688264194468     
 soft         electrons   0.0000000000000000     
 augmentation electrons   266.01688264194468     
 soft         electrons   0.0000000000000000     
 augmentation electrons   266.01688264194468     
 soft         electrons   0.0000000000000000     
 augmentation electrons   266.01688264194468     
 soft         electrons   0.0000000000000000     
 augmentation electrons   266.01688264194468     
 soft         electrons   0.0000000000000000     
 augmentation electrons   266.01688264194468     
 soft         electrons   0.0000000000000000     
 augmentation electrons   266.01688264194468     
 soft         electrons   0.0000000000000000     
 augmentation electrons   266.01688264194468     
 soft         electrons   0.0000000000000000     
 augmentation electrons   266.01688264194468     
 soft         electrons   0.0000000000000000     
 augmentation electrons   266.01688264194468     
 soft         electrons   0.0000000000000000     
 augmentation electrons   266.01688264194468     
 soft         electrons   0.0000000000000000     
 augmentation electrons   266.01688264194468     
 soft         electrons   0.0000000000000000     
 augmentation electrons   266.01688264194468     
 soft         electrons   0.0000000000000000     
 augmentation electrons   266.01688264194468     
 soft         electrons   0.0000000000000000     
 augmentation electrons   266.01688264194468     
 soft         electrons   0.0000000000000000     
 augmentation electrons   266.01688264194468     
 soft         electrons   0.0000000000000000     
 augmentation electrons   266.01688264194468     
 soft         electrons   0.0000000000000000     
 augmentation electrons   266.01688264194468     
 soft         electrons   0.0000000000000000     
 augmentation electrons   266.01688264194468     
 soft         electrons   0.0000000000000000     
 augmentation electrons   266.01688264194468     
 soft         electrons   0.0000000000000000     
 augmentation electrons   266.01688264194468     
 soft         electrons   0.0000000000000000     
 augmentation electrons   266.01688264194468     
 soft         electrons   0.0000000000000000     
 augmentation electrons   266.01688264194468     
 soft         electrons   0.0000000000000000     
 augmentation electrons   266.01688264194468     
 soft         electrons   0.0000000000000000     
 augmentation electrons   266.01688264194468     
 soft         electrons   0.0000000000000000     
 augmentation electrons   266.01688264194468     
 soft         electrons   0.0000000000000000     
 augmentation electrons   266.01688264194468     
 soft         electrons   0.0000000000000000     
 augmentation electrons   266.01688264194468     
 soft         electrons   0.0000000000000000     
 augmentation electrons   266.01688264194468     
 soft         electrons   0.0000000000000000     
 augmentation electrons   266.01688264194468     
 soft         electrons   0.0000000000000000     
 augmentation electrons   266.01688264194468     
 soft         electrons   0.0000000000000000     
 augmentation electrons   266.01688264194468     
 soft         electrons   0.0000000000000000     
 augmentation electrons   266.01688264194468     
 soft         electrons   0.0000000000000000     
 augmentation electrons   266.01688264194468     
 soft         electrons   0.0000000000000000     
 augmentation electrons   266.01688264194468     
 soft         electrons   0.0000000000000000     
 augmentation electrons   266.01688264194468     
 soft         electrons   0.0000000000000000     
 augmentation electrons   266.01688264194468     
 soft         electrons   0.0000000000000000     
 augmentation electrons   266.01688264194468     
 soft         electrons   0.0000000000000000     
 augmentation electrons   266.01688264194468     
 soft         electrons   0.0000000000000000     
 augmentation electrons   266.01688264194468     
 soft         electrons   0.0000000000000000     
 augmentation electrons   266.01688264194468     
 soft         electrons   0.0000000000000000     
 augmentation electrons   266.01688264194468     
 soft         electrons   0.0000000000000000     
 total        electrons   266.01688264194468     
 total        electrons   266.01688264194468     
 total        electrons   266.01688264194468     
 total        electrons   266.01688264194468     
 total        electrons   266.01688264194468     
 total        electrons   266.01688264194468     
 total        electrons   266.01688264194468     
 total        electrons   266.01688264194468     
 total        electrons   266.01688264194468     
 total        electrons   266.01688264194468     
 total        electrons   266.01688264194468     
 total        electrons   266.01688264194468     
 total        electrons   266.01688264194468     
 total        electrons   266.01688264194468     
 total        electrons   266.01688264194468     
 total        electrons   266.01688264194468     
 total        electrons   266.01688264194468     
 total        electrons   266.01688264194468     
 total        electrons   266.01688264194468     
 total        electrons   266.01688264194468     
 total        electrons   266.01688264194468     
 total        electrons   266.01688264194468     
 total        electrons   266.01688264194468     
 total        electrons   266.01688264194468     
 total        electrons   266.01688264194468     
 total        electrons   266.01688264194468     
 total        electrons   266.01688264194468     
 total        electrons   266.01688264194468     
 total        electrons   266.01688264194468     
 total        electrons   266.01688264194468     
 total        electrons   266.01688264194468     
 total        electrons   266.01688264194468     
 total        electrons   266.01688264194468     
 total        electrons   266.01688264194468     
 total        electrons   266.01688264194468     
 total        electrons   266.01688264194468     
 total        electrons   266.01688264194468     
 total        electrons   266.01688264194468     
 total        electrons   266.01688264194468     
 total        electrons   266.01688264194468     
 total        electrons   266.01688264194468     
 total        electrons   266.01688264194468     
 total        electrons   266.01688264194468     
 total        electrons   266.01688264194468     
 total        electrons   266.01688264194468     
 total        electrons   266.01688264194468     
 total        electrons   266.01688264194468     
 total        electrons   266.01688264194468     
 total        electrons   266.01688264194468     
 total        electrons   266.01688264194468     
 total        electrons   266.01688264194468     
 total        electrons   266.01688264194468     
 total        electrons   266.01688264194468     
 total        electrons   266.01688264194468     
 total        electrons   266.01688264194468     
 total        electrons   266.01688264194468     
 total        electrons   266.01688264194468     
 total        electrons   266.01688264194468     
 total        electrons   266.01688264194468     
 total        electrons   266.01688264194468     
 total        electrons   266.01688264194468     
 total        electrons   266.01688264194468     
 total        electrons   266.01688264194468     
 total        electrons   266.01688264194468     
 total        electrons   266.01688264194468     
 total        electrons   266.01688264194468     
 total        electrons   266.01688264194468     
 total        electrons   266.01688264194468     
 total        electrons   266.01688264194468     
 total        electrons   266.01688264194468     
 total        electrons   266.01688264194468     
 total        electrons   266.01688264194468     
 augmentation electrons   853.25631657386850     
 soft         electrons   0.0000000000000000     
 augmentation electrons   853.25631657386850     
 soft         electrons   0.0000000000000000     
 augmentation electrons   853.25631657386850     
 soft         electrons   0.0000000000000000     
 augmentation electrons   853.25631657386850     
 soft         electrons   0.0000000000000000     
 augmentation electrons   853.25631657386850     
 soft         electrons   0.0000000000000000     
 augmentation electrons   853.25631657386850     
 soft         electrons   0.0000000000000000     
 augmentation electrons   853.25631657386850     
 soft         electrons   0.0000000000000000     
 augmentation electrons   853.25631657386850     
 soft         electrons   0.0000000000000000     
 augmentation electrons   853.25631657386850     
 soft         electrons   0.0000000000000000     
 augmentation electrons   853.25631657386850     
 soft         electrons   0.0000000000000000     
 augmentation electrons   853.25631657386850     
 soft         electrons   0.0000000000000000     
 augmentation electrons   853.25631657386850     
 soft         electrons   0.0000000000000000     
 augmentation electrons   853.25631657386850     
 soft         electrons   0.0000000000000000     
 augmentation electrons   853.25631657386850     
 soft         electrons   0.0000000000000000     
 augmentation electrons   853.25631657386850     
 soft         electrons   0.0000000000000000     
 augmentation electrons   853.25631657386850     
 soft         electrons   0.0000000000000000     
 augmentation electrons   853.25631657386850     
 soft         electrons   0.0000000000000000     
 augmentation electrons   853.25631657386850     
 soft         electrons   0.0000000000000000     
 augmentation electrons   853.25631657386850     
 soft         electrons   0.0000000000000000     
 augmentation electrons   853.25631657386850     
 soft         electrons   0.0000000000000000     
 augmentation electrons   853.25631657386850     
 soft         electrons   0.0000000000000000     
 augmentation electrons   853.25631657386850     
 soft         electrons   0.0000000000000000     
 augmentation electrons   853.25631657386850     
 soft         electrons   0.0000000000000000     
 augmentation electrons   853.25631657386850     
 soft         electrons   0.0000000000000000     
 augmentation electrons   853.25631657386850     
 soft         electrons   0.0000000000000000     
 augmentation electrons   853.25631657386850     
 soft         electrons   0.0000000000000000     
 augmentation electrons   853.25631657386850     
 soft         electrons   0.0000000000000000     
 augmentation electrons   853.25631657386850     
 soft         electrons   0.0000000000000000     
 augmentation electrons   853.25631657386850     
 soft         electrons   0.0000000000000000     
 augmentation electrons   853.25631657386850     
 soft         electrons   0.0000000000000000     
 augmentation electrons   853.25631657386850     
 soft         electrons   0.0000000000000000     
 augmentation electrons   853.25631657386850     
 soft         electrons   0.0000000000000000     
 augmentation electrons   853.25631657386850     
 soft         electrons   0.0000000000000000     
 augmentation electrons   853.25631657386850     
 soft         electrons   0.0000000000000000     
 augmentation electrons   853.25631657386850     
 soft         electrons   0.0000000000000000     
 augmentation electrons   853.25631657386850     
 soft         electrons   0.0000000000000000     
 augmentation electrons   853.25631657386850     
 soft         electrons   0.0000000000000000     
 augmentation electrons   853.25631657386850     
 soft         electrons   0.0000000000000000     
 augmentation electrons   853.25631657386850     
 soft         electrons   0.0000000000000000     
 augmentation electrons   853.25631657386850     
 soft         electrons   0.0000000000000000     
 augmentation electrons   853.25631657386850     
 soft         electrons   0.0000000000000000     
 augmentation electrons   853.25631657386850     
 soft         electrons   0.0000000000000000     
 augmentation electrons   853.25631657386850     
 soft         electrons   0.0000000000000000     
 augmentation electrons   853.25631657386850     
 soft         electrons   0.0000000000000000     
 augmentation electrons   853.25631657386850     
 soft         electrons   0.0000000000000000     
 augmentation electrons   853.25631657386850     
 soft         electrons   0.0000000000000000     
 augmentation electrons   853.25631657386850     
 soft         electrons   0.0000000000000000     
 augmentation electrons   853.25631657386850     
 soft         electrons   0.0000000000000000     
 augmentation electrons   853.25631657386850     
 soft         electrons   0.0000000000000000     
 augmentation electrons   853.25631657386850     
 soft         electrons   0.0000000000000000     
 augmentation electrons   853.25631657386850     
 soft         electrons   0.0000000000000000     
 augmentation electrons   853.25631657386850     
 soft         electrons   0.0000000000000000     
 augmentation electrons   853.25631657386850     
 soft         electrons   0.0000000000000000     
 augmentation electrons   853.25631657386850     
 soft         electrons   0.0000000000000000     
 augmentation electrons   853.25631657386850     
 soft         electrons   0.0000000000000000     
 augmentation electrons   853.25631657386850     
 soft         electrons   0.0000000000000000     
 augmentation electrons   853.25631657386850     
 soft         electrons   0.0000000000000000     
 augmentation electrons   853.25631657386850     
 soft         electrons   0.0000000000000000     
 augmentation electrons   853.25631657386850     
 soft         electrons   0.0000000000000000     
 augmentation electrons   853.25631657386850     
 soft         electrons   0.0000000000000000     
 augmentation electrons   853.25631657386850     
 soft         electrons   0.0000000000000000     
 augmentation electrons   853.25631657386850     
 soft         electrons   0.0000000000000000     
 augmentation electrons   853.25631657386850     
 soft         electrons   0.0000000000000000     
 augmentation electrons   853.25631657386850     
 soft         electrons   0.0000000000000000     
 augmentation electrons   853.25631657386850     
 soft         electrons   0.0000000000000000     
 augmentation electrons   853.25631657386850     
 soft         electrons   0.0000000000000000     
 augmentation electrons   853.25631657386850     
 soft         electrons   0.0000000000000000     
 augmentation electrons   853.25631657386850     
 soft         electrons   0.0000000000000000     
 augmentation electrons   853.25631657386850     
 soft         electrons   0.0000000000000000     
 augmentation electrons   853.25631657386850     
 soft         electrons   0.0000000000000000     
 augmentation electrons   853.25631657386850     
 soft         electrons   0.0000000000000000     
 augmentation electrons   853.25631657386850     
 soft         electrons   0.0000000000000000     
 total        electrons   853.25631657386850     
 total        electrons   853.25631657386850     
 total        electrons   853.25631657386850     
 total        electrons   853.25631657386850     
 total        electrons   853.25631657386850     
 total        electrons   853.25631657386850     
 total        electrons   853.25631657386850     
 total        electrons   853.25631657386850     
 total        electrons   853.25631657386850     
 total        electrons   853.25631657386850     
 total        electrons   853.25631657386850     
 total        electrons   853.25631657386850     
 total        electrons   853.25631657386850     
 total        electrons   853.25631657386850     
 total        electrons   853.25631657386850     
 total        electrons   853.25631657386850     
 total        electrons   853.25631657386850     
 total        electrons   853.25631657386850     
 total        electrons   853.25631657386850     
 total        electrons   853.25631657386850     
 total        electrons   853.25631657386850     
 total        electrons   853.25631657386850     
 total        electrons   853.25631657386850     
 total        electrons   853.25631657386850     
 total        electrons   853.25631657386850     
 total        electrons   853.25631657386850     
 total        electrons   853.25631657386850     
 total        electrons   853.25631657386850     
 total        electrons   853.25631657386850     
 total        electrons   853.25631657386850     
 total        electrons   853.25631657386850     
 total        electrons   853.25631657386850     
 total        electrons   853.25631657386850     
 total        electrons   853.25631657386850     
 total        electrons   853.25631657386850     
 total        electrons   853.25631657386850     
 total        electrons   853.25631657386850     
 total        electrons   853.25631657386850     
 total        electrons   853.25631657386850     
 total        electrons   853.25631657386850     
 total        electrons   853.25631657386850     
 total        electrons   853.25631657386850     
 total        electrons   853.25631657386850     
 total        electrons   853.25631657386850     
 total        electrons   853.25631657386850     
 total        electrons   853.25631657386850     
 total        electrons   853.25631657386850     
 total        electrons   853.25631657386850     
 total        electrons   853.25631657386850     
 total        electrons   853.25631657386850     
 total        electrons   853.25631657386850     
 total        electrons   853.25631657386850     
 total        electrons   853.25631657386850     
 total        electrons   853.25631657386850     
 total        electrons   853.25631657386850     
 total        electrons   853.25631657386850     
 total        electrons   853.25631657386850     
 total        electrons   853.25631657386850     
 total        electrons   853.25631657386850     
 total        electrons   853.25631657386850     
 total        electrons   853.25631657386850     
 total        electrons   853.25631657386850     
 total        electrons   853.25631657386850     
 total        electrons   853.25631657386850     
 total        electrons   853.25631657386850     
 total        electrons   853.25631657386850     
 total        electrons   853.25631657386850     
 total        electrons   853.25631657386850     
 total        electrons   853.25631657386850     
 total        electrons   853.25631657386850     
 total        electrons   853.25631657386850     
 total        electrons   853.25631657386850     
 entering main loop
       N       E                     dE             d eps       ncg     rms          rms(c)
DAV:   1     0.229280824559E+04    0.22928E+04   -0.95115E+04  8096   0.123E+03
DAV:   2    -0.191197906564E+03   -0.24840E+04   -0.23054E+04  9328   0.300E+02
DAV:   3    -0.597078380361E+03   -0.40588E+03   -0.38637E+03 11408   0.141E+02
DAV:   4    -0.629940535665E+03   -0.32862E+02   -0.31603E+02 13048   0.449E+01
DAV:   5    -0.631698024264E+03   -0.17575E+01   -0.17097E+01 13784   0.103E+01    0.134E+02
RMM:   6    -0.591351765443E+03    0.40346E+02   -0.11966E+03 12983   0.907E+01    0.735E+01
RMM:   7    -0.692537570700E+03   -0.10119E+03   -0.39509E+02 10537   0.604E+01    0.573E+01
RMM:   8    -0.609770484266E+03    0.82767E+02   -0.24790E+02 12574   0.282E+01    0.474E+01
RMM:   9    -0.541882247451E+03    0.67888E+02   -0.49124E+01 10313   0.213E+01    0.268E+01
RMM:  10    -0.530404649458E+03    0.11478E+02   -0.42607E+01 11342   0.160E+01    0.196E+01
RMM:  11    -0.529584540420E+03    0.82011E+00   -0.88297E+00 10733   0.776E+00    0.167E+01
RMM:  12    -0.529087963149E+03    0.49658E+00   -0.24738E+00 11700   0.268E+00    0.151E+01
RMM:  13    -0.528855470448E+03    0.23249E+00   -0.41934E-01 12325   0.124E+00    0.141E+01
RMM:  14    -0.528913788356E+03   -0.58318E-01   -0.22060E+00  9718   0.450E+00    0.114E+01
RMM:  15    -0.527884957690E+03    0.10288E+01   -0.19682E+00  8829   0.508E+00    0.557E+00
RMM:  16    -0.527579058338E+03    0.30590E+00   -0.15939E+00 10108   0.323E+00    0.354E+00
RMM:  17    -0.527528309411E+03    0.50749E-01   -0.75041E-01 11945   0.174E+00    0.260E+00
RMM:  18    -0.527517128126E+03    0.11181E-01   -0.32715E-01 12123   0.116E+00    0.192E+00
RMM:  19    -0.527477195317E+03    0.39933E-01   -0.11710E-01 12142   0.698E-01    0.960E-01
RMM:  20    -0.527468231794E+03    0.89635E-02   -0.52696E-02 11881   0.486E-01    0.612E-01
RMM:  21    -0.527464428534E+03    0.38033E-02   -0.18540E-02 10350   0.378E-01    0.498E-01
RMM:  22    -0.527461930619E+03    0.24979E-02   -0.77295E-03 11281   0.217E-01    0.288E-01
RMM:  23    -0.527459538391E+03    0.23922E-02   -0.68715E-03 12224   0.153E-01    0.169E-01
RMM:  24    -0.527458886485E+03    0.65191E-03   -0.26186E-03 11344   0.120E-01    0.151E-01
RMM:  25    -0.527458538366E+03    0.34812E-03   -0.13232E-03 11706   0.811E-02    0.974E-02
RMM:  26    -0.527458559531E+03   -0.21166E-04   -0.89176E-04 10335   0.727E-02    0.734E-02
RMM:  27    -0.527458888852E+03   -0.32932E-03   -0.43802E-04 11785   0.419E-02    0.462E-02
RMM:  28    -0.527459401628E+03   -0.51278E-03   -0.29166E-04 10138   0.364E-02    0.305E-02
RMM:  29    -0.527459942492E+03   -0.54086E-03   -0.40439E-04 10125   0.322E-02    0.259E-02
RMM:  30    -0.527460086438E+03   -0.14395E-03   -0.20144E-04 10760   0.227E-02    0.272E-02
RMM:  31    -0.527460203941E+03   -0.11750E-03   -0.39852E-05  9696   0.120E-02    0.134E-02
RMM:  32    -0.527460284160E+03   -0.80219E-04   -0.36543E-05  9440   0.793E-03    0.980E-03
RMM:  33    -0.527460405607E+03   -0.12145E-03   -0.34628E-05  8976   0.157E-02    0.216E-02
RMM:  34    -0.527460544625E+03   -0.13902E-03   -0.12767E-05  7679   0.119E-02    0.957E-03
RMM:  35    -0.527460687881E+03   -0.14326E-03   -0.16611E-05  8081   0.762E-03    0.102E-02
RMM:  36    -0.527460792872E+03   -0.10499E-03   -0.13321E-05  8223   0.887E-03    0.761E-03
RMM:  37    -0.527460844130E+03   -0.51258E-04   -0.63361E-06  7555   0.499E-03    0.210E-03
RMM:  38    -0.527460875905E+03   -0.31774E-04   -0.34928E-06  7251   0.336E-03    0.403E-03
RMM:  39    -0.527460886610E+03   -0.10705E-04   -0.17932E-06  6796   0.452E-03    0.432E-03
RMM:  40    -0.527460894070E+03   -0.74600E-05   -0.10933E-06  6426   0.290E-03    0.901E-04
RMM:  41    -0.527460897332E+03   -0.32629E-05   -0.52958E-07  4947   0.125E-03    0.483E-04
RMM:  42    -0.527460899057E+03   -0.17243E-05   -0.31026E-07  4539   0.149E-03    0.767E-04
RMM:  43    -0.527460899701E+03   -0.64420E-06   -0.17604E-07  3686   0.913E-04
   1 F= -.52746090E+03 E0= -.52745099E+03  d E =-.297409E-01
 augmentation electrons   27.634066392763007     
 soft         electrons   238.44179758364612     
 augmentation electrons   27.634066392763007     
 soft         electrons   238.44179758364612     
 augmentation electrons   27.634066392763007     
 soft         electrons   238.44179758364612     
 augmentation electrons   27.634066392763007     
 soft         electrons   238.44179758364612     
 augmentation electrons   27.634066392763007     
 soft         electrons   238.44179758364612     
 augmentation electrons   27.634066392763007     
 soft         electrons   238.44179758364612     
 augmentation electrons   27.634066392763007     
 soft         electrons   238.44179758364612     
 augmentation electrons   27.634066392763007     
 soft         electrons   238.44179758364612     
 augmentation electrons   27.634066392763007     
 soft         electrons   238.44179758364612     
 augmentation electrons   27.634066392763007     
 soft         electrons   238.44179758364612     
 augmentation electrons   27.634066392763007     
 soft         electrons   238.44179758364612     
 augmentation electrons   27.634066392763007     
 soft         electrons   238.44179758364612     
 augmentation electrons   27.634066392763007     
 soft         electrons   238.44179758364612     
 augmentation electrons   27.634066392763007     
 soft         electrons   238.44179758364612     
 augmentation electrons   27.634066392763007     
 soft         electrons   238.44179758364612     
 augmentation electrons   27.634066392763007     
 soft         electrons   238.44179758364612     
 augmentation electrons   27.634066392763007     
 soft         electrons   238.44179758364612     
 augmentation electrons   27.634066392763007     
 soft         electrons   238.44179758364612     
 augmentation electrons   27.634066392763007     
 soft         electrons   238.44179758364612     
 augmentation electrons   27.634066392763007     
 soft         electrons   238.44179758364612     
 augmentation electrons   27.634066392763007     
 soft         electrons   238.44179758364612     
 augmentation electrons   27.634066392763007     
 soft         electrons   238.44179758364612     
 augmentation electrons   27.634066392763007     
 soft         electrons   238.44179758364612     
 augmentation electrons   27.634066392763007     
 soft         electrons   238.44179758364612     
 augmentation electrons   27.634066392763007     
 soft         electrons   238.44179758364612     
 augmentation electrons   27.634066392763007     
 soft         electrons   238.44179758364612     
 augmentation electrons   27.634066392763007     
 soft         electrons   238.44179758364612     
 augmentation electrons   27.634066392763007     
 soft         electrons   238.44179758364612     
 augmentation electrons   27.634066392763007     
 soft         electrons   238.44179758364612     
 augmentation electrons   27.634066392763007     
 soft         electrons   238.44179758364612     
 augmentation electrons   27.634066392763007     
 soft         electrons   238.44179758364612     
 augmentation electrons   27.634066392763007     
 soft         electrons   238.44179758364612     
 augmentation electrons   27.634066392763007     
 soft         electrons   238.44179758364612     
 augmentation electrons   27.634066392763007     
 soft         electrons   238.44179758364612     
 augmentation electrons   27.634066392763007     
 soft         electrons   238.44179758364612     
 augmentation electrons   27.634066392763007     
 soft         electrons   238.44179758364612     
 augmentation electrons   27.634066392763007     
 soft         electrons   238.44179758364612     
 augmentation electrons   27.634066392763007     
 soft         electrons   238.44179758364612     
 augmentation electrons   27.634066392763007     
 soft         electrons   238.44179758364612     
 augmentation electrons   27.634066392763007     
 soft         electrons   238.44179758364612     
 augmentation electrons   27.634066392763007     
 soft         electrons   238.44179758364612     
 augmentation electrons   27.634066392763007     
 soft         electrons   238.44179758364612     
 augmentation electrons   27.634066392763007     
 soft         electrons   238.44179758364612     
 augmentation electrons   27.634066392763007     
 soft         electrons   238.44179758364612     
 augmentation electrons   27.634066392763007     
 soft         electrons   238.44179758364612     
 augmentation electrons   27.634066392763007     
 soft         electrons   238.44179758364612     
 augmentation electrons   27.634066392763007     
 soft         electrons   238.44179758364612     
 augmentation electrons   27.634066392763007     
 soft         electrons   238.44179758364612     
 augmentation electrons   27.634066392763007     
 soft         electrons   238.44179758364612     
 augmentation electrons   27.634066392763007     
 soft         electrons   238.44179758364612     
 augmentation electrons   27.634066392763007     
 soft         electrons   238.44179758364612     
 augmentation electrons   27.634066392763007     
 soft         electrons   238.44179758364612     
 augmentation electrons   27.634066392763007     
 soft         electrons   238.44179758364612     
 augmentation electrons   27.634066392763007     
 soft         electrons   238.44179758364612     
 augmentation electrons   27.634066392763007     
 soft         electrons   238.44179758364612     
 augmentation electrons   27.634066392763007     
 soft         electrons   238.44179758364612     
 augmentation electrons   27.634066392763007     
 soft         electrons   238.44179758364612     
 augmentation electrons   27.634066392763007     
 soft         electrons   238.44179758364612     
 augmentation electrons   27.634066392763007     
 soft         electrons   238.44179758364612     
 augmentation electrons   27.634066392763007     
 soft         electrons   238.44179758364612     
 augmentation electrons   27.634066392763007     
 soft         electrons   238.44179758364612     
 augmentation electrons   27.634066392763007     
 soft         electrons   238.44179758364612     
 augmentation electrons   27.634066392763007     
 soft         electrons   238.44179758364612     
 augmentation electrons   27.634066392763007     
 soft         electrons   238.44179758364612     
 augmentation electrons   27.634066392763007     
 soft         electrons   238.44179758364612     
 augmentation electrons   27.634066392763007     
 soft         electrons   238.44179758364612     
 augmentation electrons   27.634066392763007     
 soft         electrons   238.44179758364612     
 augmentation electrons   27.634066392763007     
 soft         electrons   238.44179758364612     
 augmentation electrons   27.634066392763007     
 soft         electrons   238.44179758364612     
 augmentation electrons   27.634066392763007     
 soft         electrons   238.44179758364612     
 augmentation electrons   27.634066392763007     
 soft         electrons   238.44179758364612     
 augmentation electrons   27.634066392763007     
 soft         electrons   238.44179758364612     
 total        electrons   266.07586397640915     
 total        electrons   266.07586397640915     
 total        electrons   266.07586397640915     
 total        electrons   266.07586397640915     
 total        electrons   266.07586397640915     
 total        electrons   266.07586397640915     
 total        electrons   266.07586397640915     
 total        electrons   266.07586397640915     
 total        electrons   266.07586397640915     
 total        electrons   266.07586397640915     
 total        electrons   266.07586397640915     
 total        electrons   266.07586397640915     
 total        electrons   266.07586397640915     
 total        electrons   266.07586397640915     
 total        electrons   266.07586397640915     
 total        electrons   266.07586397640915     
 total        electrons   266.07586397640915     
 total        electrons   266.07586397640915     
 total        electrons   266.07586397640915     
 total        electrons   266.07586397640915     
 total        electrons   266.07586397640915     
 total        electrons   266.07586397640915     
 total        electrons   266.07586397640915     
 total        electrons   266.07586397640915     
 total        electrons   266.07586397640915     
 total        electrons   266.07586397640915     
 total        electrons   266.07586397640915     
 total        electrons   266.07586397640915     
 total        electrons   266.07586397640915     
 total        electrons   266.07586397640915     
 total        electrons   266.07586397640915     
 total        electrons   266.07586397640915     
 total        electrons   266.07586397640915     
 total        electrons   266.07586397640915     
 total        electrons   266.07586397640915     
 total        electrons   266.07586397640915     
 total        electrons   266.07586397640915     
 total        electrons   266.07586397640915     
 total        electrons   266.07586397640915     
 total        electrons   266.07586397640915     
 total        electrons   266.07586397640915     
 total        electrons   266.07586397640915     
 total        electrons   266.07586397640915     
 total        electrons   266.07586397640915     
 total        electrons   266.07586397640915     
 total        electrons   266.07586397640915     
 total        electrons   266.07586397640915     
 total        electrons   266.07586397640915     
 total        electrons   266.07586397640915     
 total        electrons   266.07586397640915     
 total        electrons   266.07586397640915     
 total        electrons   266.07586397640915     
 total        electrons   266.07586397640915     
 total        electrons   266.07586397640915     
 total        electrons   266.07586397640915     
 total        electrons   266.07586397640915     
 total        electrons   266.07586397640915     
 total        electrons   266.07586397640915     
 total        electrons   266.07586397640915     
 total        electrons   266.07586397640915     
 total        electrons   266.07586397640915     
 total        electrons   266.07586397640915     
 total        electrons   266.07586397640915     
 total        electrons   266.07586397640915     
 total        electrons   266.07586397640915     
 total        electrons   266.07586397640915     
 total        electrons   266.07586397640915     
 total        electrons   266.07586397640915     
 total        electrons   266.07586397640915     
 total        electrons   266.07586397640915     
 total        electrons   266.07586397640915     
 total        electrons   266.07586397640915     
Note: The following floating-point exceptions are signalling: IEEE_OVERFLOW_FLAG
Note: The following floating-point exceptions are signalling: IEEE_OVERFLOW_FLAG
Note: The following floating-point exceptions are signalling: IEEE_OVERFLOW_FLAG
Note: The following floating-point exceptions are signalling: IEEE_OVERFLOW_FLAG
Note: The following floating-point exceptions are signalling: IEEE_OVERFLOW_FLAG
Note: The following floating-point exceptions are signalling: IEEE_OVERFLOW_FLAG
Note: The following floating-point exceptions are signalling: IEEE_OVERFLOW_FLAG
Note: The following floating-point exceptions are signalling: IEEE_OVERFLOW_FLAG
Note: The following floating-point exceptions are signalling: IEEE_OVERFLOW_FLAG
Note: The following floating-point exceptions are signalling: IEEE_OVERFLOW_FLAG
Note: The following floating-point exceptions are signalling: IEEE_OVERFLOW_FLAG
Note: The following floating-point exceptions are signalling: IEEE_OVERFLOW_FLAG
Note: The following floating-point exceptions are signalling: IEEE_OVERFLOW_FLAG
Note: The following floating-point exceptions are signalling: IEEE_OVERFLOW_FLAG
Note: The following floating-point exceptions are signalling: IEEE_OVERFLOW_FLAG
Note: The following floating-point exceptions are signalling: IEEE_OVERFLOW_FLAG
Note: The following floating-point exceptions are signalling: IEEE_OVERFLOW_FLAG
Note: The following floating-point exceptions are signalling: IEEE_OVERFLOW_FLAG
Note: The following floating-point exceptions are signalling: IEEE_OVERFLOW_FLAG
Note: The following floating-point exceptions are signalling: IEEE_OVERFLOW_FLAG
Note: The following floating-point exceptions are signalling: IEEE_OVERFLOW_FLAG
Note: The following floating-point exceptions are signalling: IEEE_OVERFLOW_FLAG
Note: The following floating-point exceptions are signalling: IEEE_OVERFLOW_FLAG
Note: The following floating-point exceptions are signalling: IEEE_OVERFLOW_FLAG
Note: The following floating-point exceptions are signalling: IEEE_OVERFLOW_FLAG
Note: The following floating-point exceptions are signalling: IEEE_OVERFLOW_FLAG
Note: The following floating-point exceptions are signalling: IEEE_OVERFLOW_FLAG
Note: The following floating-point exceptions are signalling: IEEE_OVERFLOW_FLAG
Note: The following floating-point exceptions are signalling: IEEE_OVERFLOW_FLAG
Note: The following floating-point exceptions are signalling: IEEE_OVERFLOW_FLAG
Note: The following floating-point exceptions are signalling: IEEE_OVERFLOW_FLAG
Note: The following floating-point exceptions are signalling: IEEE_OVERFLOW_FLAG
Note: The following floating-point exceptions are signalling: IEEE_OVERFLOW_FLAG
Note: The following floating-point exceptions are signalling: IEEE_OVERFLOW_FLAG
Note: The following floating-point exceptions are signalling: IEEE_OVERFLOW_FLAG
Note: The following floating-point exceptions are signalling: IEEE_OVERFLOW_FLAG
Note: The following floating-point exceptions are signalling: IEEE_OVERFLOW_FLAG
Note: The following floating-point exceptions are signalling: IEEE_OVERFLOW_FLAG
Note: The following floating-point exceptions are signalling: IEEE_OVERFLOW_FLAG
Note: The following floating-point exceptions are signalling: IEEE_OVERFLOW_FLAG
Note: The following floating-point exceptions are signalling: IEEE_OVERFLOW_FLAG
Note: The following floating-point exceptions are signalling: IEEE_OVERFLOW_FLAG
Note: The following floating-point exceptions are signalling: IEEE_OVERFLOW_FLAG
Note: The following floating-point exceptions are signalling: IEEE_OVERFLOW_FLAG
Note: The following floating-point exceptions are signalling: IEEE_OVERFLOW_FLAG
Note: The following floating-point exceptions are signalling: IEEE_OVERFLOW_FLAG
Note: The following floating-point exceptions are signalling: IEEE_OVERFLOW_FLAG
Note: The following floating-point exceptions are signalling: IEEE_OVERFLOW_FLAG
Note: The following floating-point exceptions are signalling: IEEE_OVERFLOW_FLAG
Note: The following floating-point exceptions are signalling: IEEE_OVERFLOW_FLAG
Note: The following floating-point exceptions are signalling: IEEE_OVERFLOW_FLAG
Note: The following floating-point exceptions are signalling: IEEE_OVERFLOW_FLAG
Note: The following floating-point exceptions are signalling: IEEE_OVERFLOW_FLAG
Note: The following floating-point exceptions are signalling: IEEE_OVERFLOW_FLAG
Note: The following floating-point exceptions are signalling: IEEE_OVERFLOW_FLAG
Note: The following floating-point exceptions are signalling: IEEE_OVERFLOW_FLAG
Note: The following floating-point exceptions are signalling: IEEE_OVERFLOW_FLAG
Note: The following floating-point exceptions are signalling: IEEE_OVERFLOW_FLAG
Note: The following floating-point exceptions are signalling: IEEE_OVERFLOW_FLAG
Note: The following floating-point exceptions are signalling: IEEE_OVERFLOW_FLAG
Note: The following floating-point exceptions are signalling: IEEE_OVERFLOW_FLAG
Note: The following floating-point exceptions are signalling: IEEE_OVERFLOW_FLAG
Note: The following floating-point exceptions are signalling: IEEE_OVERFLOW_FLAG
Note: The following floating-point exceptions are signalling: IEEE_OVERFLOW_FLAG
Note: The following floating-point exceptions are signalling: IEEE_OVERFLOW_FLAG
Note: The following floating-point exceptions are signalling: IEEE_OVERFLOW_FLAG
Note: The following floating-point exceptions are signalling: IEEE_OVERFLOW_FLAG
Note: The following floating-point exceptions are signalling: IEEE_OVERFLOW_FLAG
Note: The following floating-point exceptions are signalling: IEEE_OVERFLOW_FLAG
Note: The following floating-point exceptions are signalling: IEEE_OVERFLOW_FLAG
Note: The following floating-point exceptions are signalling: IEEE_OVERFLOW_FLAG
Note: The following floating-point exceptions are signalling: IEEE_OVERFLOW_FLAG
