    2    2    1    1
  0.1000897E+03  0.6088057E-09  0.6088057E-09  0.6240821E-09  0.5000000E-15
   1.0000000000000000E-004
  CAR 
 Name                                    
     10    125      9

  0.3742002E-15  0.3742002E-15  0.3742002E-15  0.1371742E-02
    1       -3.922065   1.000000
    2       -2.288984   1.004959
    3       -2.239292   1.021095
    4       -2.178898   1.028714
    5       -2.136335   0.925916
    6       -2.069484   0.453405
    7       -2.012438   0.068823
    8       -1.947788  -0.035134
    9       -1.941188  -0.033768

  0.1111111E+00  0.3648891E-15  0.3742002E-15  0.5486968E-02
    1       -3.859724   1.000000
    2       -2.279174   1.006969
    3       -2.224175   1.028018
    4       -2.171320   1.020876
    5       -2.134257   0.916657
    6       -2.067385   0.435769
    7       -2.012359   0.068489
    8       -1.953481  -0.035444
    9       -1.946426  -0.034931

  0.2222222E+00  0.3721884E-15  0.3742002E-15  0.5486968E-02
    1       -3.674147   1.000000
    2       -2.249765   1.016522
    3       -2.185497   1.032871
    4       -2.151358   0.980137
    5       -2.130985   0.901183
    6       -2.060769   0.380915
    7       -2.011391   0.064452
    8       -1.968244  -0.030792
    9       -1.961059  -0.034201

  0.3333333E+00  0.4138540E-15  0.3742002E-15  0.5486968E-02
    1       -3.370330   1.000000
    2       -2.200896   1.035286
    3       -2.178803   1.028637
    4       -2.126879   0.880245
    5       -2.121062   0.847709
    6       -2.049466   0.291531
    7       -2.009000   0.054876
    8       -1.985880  -0.009842
    9       -1.975343  -0.024767

  0.4444444E+00  0.3861792E-15  0.3742002E-15  0.5486968E-02
    1       -2.960025   1.000000
    2       -2.481244   1.000000
    3       -2.133352   0.912484
    4       -2.108379   0.765788
    5       -2.103100   0.727715
    6       -2.054365   0.329427
    7       -2.020717   0.107292
    8       -2.005640   0.042382
    9       -2.000410   0.025117

  0.1111111E+00  0.1111111E+00  0.3742002E-15  0.2743484E-02
    1       -3.720089   1.000000
    2       -2.248084   1.017224
    3       -2.187102   1.033557
    4       -2.153671   0.986570
    5       -2.133845   0.914769
    6       -2.051798   0.309392
    7       -2.010167   0.059477
    8       -1.971389  -0.028480
    9       -1.964226  -0.032998

  0.2222222E+00  0.1111111E+00  0.3742002E-15  0.5486968E-02
    1       -3.459131   1.000000
    2       -2.197208   1.035457
    3       -2.151491   0.980520
    4       -2.127701   0.884572
    5       -2.125617   0.873472
    6       -2.034046   0.183546
    7       -2.007243   0.048205
    8       -1.993266   0.005649
    9       -1.989656  -0.002484

  0.3333333E+00  0.1111111E+00  0.3742002E-15  0.5486968E-02
    1       -3.084392   1.000000
    2       -2.336922   1.000669
    3       -2.127626   0.884179
    4       -2.113661   0.801645
    5       -2.096993   0.681225
    6       -2.053702   0.324223
    7       -2.018179   0.094766
    8       -2.011063   0.063101
    9       -2.004602   0.038745

  0.4444444E+00  0.1111111E+00  0.3742002E-15  0.5486968E-02
    1       -2.793802   1.000000
    2       -2.621893   1.000000
    3       -2.138878   0.936661
    4       -2.109141   0.771109
    5       -2.082479   0.563100
    6       -2.056251   0.344384
    7       -2.030089   0.159122
    8       -2.016055   0.084778
    9       -1.991458   0.001438

 -0.4444444E+00  0.1111111E+00  0.3742002E-15  0.5486968E-02
    1       -3.215529   1.000000
    2       -2.237996   1.021686
    3       -2.206253   1.034407
    4       -2.118565   0.832739
    5       -2.101760   0.717722
    6       -2.070182   0.459284
    7       -2.012809   0.070396
    8       -1.978745  -0.020791
    9       -1.970712  -0.029024

 -0.3333333E+00  0.1111111E+00  0.3742002E-15  0.5486968E-02
    1       -3.546995   1.000000
    2       -2.253952   1.014838
    3       -2.187996   1.033888
    4       -2.139260   0.938218
    5       -2.118647   0.833238
    6       -2.082222   0.560950
    7       -2.013105   0.071664
    8       -1.961421  -0.034086
    9       -1.953067  -0.035453

 -0.2222222E+00  0.1111111E+00  0.3742002E-15  0.5486968E-02
    1       -3.770219   1.000000
    2       -2.281972   1.006341
    3       -2.219881   1.029861
    4       -2.161027   1.003902
    5       -2.121380   0.849576
    6       -2.084855   0.582960
    7       -2.014756   0.078897
    8       -1.948392  -0.035209
    9       -1.941478  -0.033847

 -0.1111111E+00  0.1111111E+00  0.3742002E-15  0.2743484E-02
    1       -3.875999   1.000000
    2       -2.290410   1.004710
    3       -2.236171   1.022525
    4       -2.173652   1.023672
    5       -2.128489   0.888659
    6       -2.079141   0.535016
    7       -2.014377   0.077213
    8       -1.945116  -0.034694
    9       -1.938739  -0.033047

  0.2222222E+00  0.2222222E+00  0.3742002E-15  0.2743484E-02
    1       -3.129240   1.000000
    2       -2.274860   1.008031
    3       -2.125043   0.870336
    4       -2.113300   0.799275
    5       -2.089958   0.625030
    6       -2.053584   0.323292
    7       -2.023585   0.122233
    8       -2.017706   0.092500
    9       -2.001054   0.027103

  0.3333333E+00  0.2222222E+00  0.3742002E-15  0.5486968E-02
    1       -2.703242   1.000000
    2       -2.665627   1.000000
    3       -2.142092   0.949308
    4       -2.092769   0.647776
    5       -2.059418   0.369896
    6       -2.058633   0.363535
    7       -2.034887   0.188924
    8       -2.031731   0.169083
    9       -1.999938   0.023688

  0.4444444E+00  0.2222222E+00  0.3742002E-15  0.5486968E-02
    1       -3.053512   1.000000
    2       -2.298888   1.003430
    3       -2.210715   1.033216
    4       -2.086638   0.597760
    5       -2.086422   0.595968
    6       -2.075265   0.502246
    7       -2.023991   0.124413
    8       -1.983951  -0.013171
    9       -1.959485  -0.034638

 -0.4444444E+00  0.2222222E+00  0.3742002E-15  0.5486968E-02
    1       -3.377685   1.000000
    2       -2.258611   1.013082
    3       -2.201409   1.035232
    4       -2.104834   0.740450
    5       -2.103279   0.729041
    6       -2.093176   0.651038
    7       -2.015855   0.083860
    8       -1.958618  -0.034837
    9       -1.944000  -0.034463

 -0.3333333E+00  0.2222222E+00  0.3742002E-15  0.5486968E-02
    1       -3.614503   1.000000
    2       -2.286232   1.005469
    3       -2.219109   1.030178
    4       -2.130270   0.897660
    5       -2.110096   0.777707
    6       -2.098761   0.694928
    7       -2.014440   0.077493
    8       -1.941348  -0.033812
    9       -1.933862  -0.031349

 -0.2222222E+00  0.2222222E+00  0.3742002E-15  0.2743484E-02
    1       -3.748588   1.000000
    2       -2.294018   1.004124
    3       -2.231479   1.024695
    4       -2.152790   0.984177
    5       -2.107955   0.762811
    6       -2.102577   0.723827
    7       -2.015972   0.084396
    8       -1.938308  -0.032911
    9       -1.932504  -0.030825

  0.3333333E+00  0.3333333E+00  0.3742002E-15  0.2743484E-02
    1       -2.980528   1.000000
    2       -2.324166   1.001202
    3       -2.212423   1.032672
    4       -2.092810   0.648103
    5       -2.050914   0.302583
    6       -2.048517   0.284359
    7       -2.042448   0.240040
    8       -2.003461   0.034869
    9       -1.942061  -0.034000

  0.4444444E+00  0.3333333E+00  0.3742002E-15  0.5486968E-02
    1       -3.247238   1.000000
    2       -2.261599   1.012027
    3       -2.214373   1.031999
    4       -2.118760   0.833932
    5       -2.065133   0.416951
    6       -2.035524   0.193041
    7       -2.024648   0.127977
    8       -1.976069  -0.023982
    9       -1.938088  -0.032839

 -0.4444444E+00  0.3333333E+00  0.3742002E-15  0.5486968E-02
    1       -3.451840   1.000000
    2       -2.289953   1.004788
    3       -2.224176   1.028017
    4       -2.130977   0.901146
    5       -2.074402   0.494945
    6       -2.064479   0.411514
    7       -2.011648   0.065512
    8       -1.938869  -0.033088
    9       -1.927123  -0.028587

 -0.3333333E+00  0.3333333E+00  0.3742002E-15  0.2743484E-02
    1       -3.579112   1.000000
    2       -2.298113   1.003534
    3       -2.232037   1.024437
    4       -2.127648   0.884294
    5       -2.101774   0.717828
    6       -2.083345   0.570353
    7       -2.011732   0.065861
    8       -1.930499  -0.030018
    9       -1.925354  -0.027809

  0.4444444E+00  0.4444444E+00  0.3742002E-15  0.2743484E-02
    1       -3.378503   1.000000
    2       -2.291417   1.004540
    3       -2.227470   1.026538
    4       -2.138919   0.936828
    5       -2.062995   0.399215
    6       -2.010667   0.061490
    7       -2.003713   0.035715
    8       -1.947635  -0.035113
    9       -1.924452  -0.027407

 -0.4444444E+00  0.4444444E+00  0.3742002E-15  0.2743484E-02
    1       -3.448580   1.000000
    2       -2.300780   1.003188
    3       -2.235629   1.022775
    4       -2.143211   0.953475
    5       -2.066470   0.428108
    6       -2.022242   0.115132
    7       -2.005655   0.042436
    8       -1.925359  -0.027811
    9       -1.920653  -0.025679

  0.3742002E-15  0.3742002E-15  0.1111111E+00  0.2743484E-02
    1       -3.873733   1.000000
    2       -2.278040   1.007237
    3       -2.232350   1.024292
    4       -2.172666   1.022532
    5       -2.130508   0.898841
    6       -2.067660   0.438074
    7       -2.018603   0.096812
    8       -1.953320  -0.035448
    9       -1.947560  -0.035103

  0.1111111E+00  0.3648891E-15  0.1111111E+00  0.1097394E-01
    1       -3.812023   1.000000
    2       -2.269004   1.009657
    3       -2.216179   1.031333
    4       -2.164694   1.010864
    5       -2.131453   0.903462
    6       -2.063556   0.403856
    7       -2.017476   0.091409
    8       -1.970063  -0.029521
    9       -1.940806  -0.033663

  0.2222222E+00  0.3721884E-15  0.1111111E+00  0.1097394E-01
    1       -3.628673   1.000000
    2       -2.241366   1.020156
    3       -2.174132   1.024204
    4       -2.144140   0.956837
    5       -2.137194   0.929620
    6       -2.050647   0.300532
    7       -2.014729   0.078774
    8       -1.994329   0.008256
    9       -1.941641  -0.033890

  0.3333333E+00  0.4138540E-15  0.1111111E+00  0.1097394E-01
    1       -3.330065   1.000000
    2       -2.194379   1.035304
    3       -2.188922   1.034195
    4       -2.124790   0.868947
    5       -2.120238   0.842839
    6       -2.036556   0.199786
    7       -2.023595   0.122287
    8       -2.014766   0.078939
    9       -2.010138   0.059361

  0.4444444E+00  0.3861792E-15  0.1111111E+00  0.1097394E-01
    1       -2.932409   1.000000
    2       -2.487466   1.000000
    3       -2.137073   0.929100
    4       -2.119202   0.836614
    5       -2.095404   0.668758
    6       -2.048731   0.285970
    7       -2.021285   0.110187
    8       -2.019777   0.102576
    9       -1.996398   0.013618

  0.1111111E+00  0.1111111E+00  0.1111111E+00  0.5486968E-02
    1       -3.674424   1.000000
    2       -2.240451   1.020569
    3       -2.176971   1.027054
    4       -2.144570   0.958366
    5       -2.136005   0.924476
    6       -2.043150   0.245027
    7       -2.015133   0.080584
    8       -1.999172   0.021411
    9       -1.945184  -0.034708

  0.2222222E+00  0.1111111E+00  0.1111111E+00  0.1097394E-01
    1       -3.417802   1.000000
    2       -2.194345   1.035300
    3       -2.148594   0.971797
    4       -2.133038   0.911019
    5       -2.112055   0.790995
    6       -2.038756   0.214475
    7       -2.028723   0.151036
    8       -2.020267   0.105022
    9       -2.010312   0.060060

  0.3333333E+00  0.1111111E+00  0.1111111E+00  0.1097394E-01
    1       -3.052436   1.000000
    2       -2.365726   1.000155
    3       -2.137271   0.929948
    4       -2.126000   0.875543
    5       -2.080165   0.543651
    6       -2.051056   0.303670
    7       -2.040716   0.227910
    8       -2.007387   0.048741
    9       -1.993474   0.006152

  0.4444444E+00  0.1111111E+00  0.1111111E+00  0.1097394E-01
    1       -2.774134   1.000000
    2       -2.612433   1.000000
    3       -2.128938   0.890958
    4       -2.105887   0.748081
    5       -2.105283   0.743717
    6       -2.063886   0.406591
    7       -2.021093   0.109206
    8       -2.006611   0.045880
    9       -2.000207   0.024500

 -0.4444444E+00  0.1111111E+00  0.1111111E+00  0.1097394E-01
    1       -3.177516   1.000000
    2       -2.247197   1.017600
    3       -2.193562   1.035209
    4       -2.120879   0.846635
    5       -2.114003   0.803889
    6       -2.048318   0.282867
    7       -2.023714   0.122922
    8       -2.009655   0.057443
    9       -1.999387   0.022043

 -0.3333333E+00  0.1111111E+00  0.1111111E+00  0.1097394E-01
    1       -3.502095   1.000000
    2       -2.243674   1.019129
    3       -2.174479   1.024578
    4       -2.136658   0.927320
    5       -2.135792   0.923540
    6       -2.063465   0.403104
    7       -2.014513   0.077816
    8       -1.983611  -0.013729
    9       -1.936915  -0.032449

 -0.2222222E+00  0.1111111E+00  0.1111111E+00  0.1097394E-01
    1       -3.722619   1.000000
    2       -2.271542   1.008925
    3       -2.209969   1.033440
    4       -2.156207   0.993074
    5       -2.123319   0.860726
    6       -2.079369   0.536943
    7       -2.016602   0.087305
    8       -1.963935  -0.033127
    9       -1.936335  -0.032249

 -0.1111111E+00  0.1111111E+00  0.1111111E+00  0.5486968E-02
    1       -3.827682   1.000000
    2       -2.279521   1.006889
    3       -2.228201   1.026204
    4       -2.168073   1.016365
    5       -2.122853   0.858082
    6       -2.079607   0.538943
    7       -2.017841   0.093143
    8       -1.950481  -0.035395
    9       -1.945098  -0.034691

  0.2222222E+00  0.2222222E+00  0.1111111E+00  0.5486968E-02
    1       -3.095955   1.000000
    2       -2.315263   1.001769
    3       -2.136563   0.926908
    4       -2.125401   0.872293
    5       -2.061881   0.390031
    6       -2.060427   0.378115
    7       -2.058464   0.362162
    8       -1.999175   0.021420
    9       -1.984099  -0.012925

  0.3333333E+00  0.2222222E+00  0.1111111E+00  0.1097394E-01
    1       -2.686823   1.000000
    2       -2.654790   1.000000
    3       -2.112998   0.797278
    4       -2.107149   0.757108
    5       -2.092730   0.647464
    6       -2.078681   0.531132
    7       -2.018570   0.096650
    8       -2.005514   0.041936
    9       -2.001580   0.028753

  0.4444444E+00  0.2222222E+00  0.1111111E+00  0.1097394E-01
    1       -3.018679   1.000000
    2       -2.299956   1.003292
    3       -2.193083   1.035143
    4       -2.109940   0.776633
    5       -2.097374   0.684193
    6       -2.049800   0.294064
    7       -2.024939   0.129569
    8       -2.017350   0.090812
    9       -1.995225   0.010533

 -0.4444444E+00  0.2222222E+00  0.1111111E+00  0.1097394E-01
    1       -3.333709   1.000000
    2       -2.246444   1.017922
    3       -2.187766   1.033806
    4       -2.128292   0.887645
    5       -2.106607   0.753250
    6       -2.066468   0.428091
    7       -2.015660   0.082971
    8       -1.976580  -0.023409
    9       -1.928288  -0.029090

 -0.3333333E+00  0.2222222E+00  0.1111111E+00  0.1097394E-01
    1       -3.567069   1.000000
    2       -2.275453   1.007878
    3       -2.206852   1.034269
    4       -2.128836   0.890438
    5       -2.122572   0.856474
    6       -2.083473   0.571426
    7       -2.014547   0.077963
    8       -1.955949  -0.035269
    9       -1.929423  -0.029571

 -0.2222222E+00  0.2222222E+00  0.1111111E+00  0.5486968E-02
    1       -3.700290   1.000000
    2       -2.283252   1.006068
    3       -2.221172   1.029320
    4       -2.149220   0.973751
    5       -2.104912   0.741023
    6       -2.102811   0.725572
    7       -2.016304   0.085927
    8       -1.943264  -0.034296
    9       -1.939161  -0.033179

  0.3333333E+00  0.3333333E+00  0.1111111E+00  0.5486968E-02
    1       -2.947555   1.000000
    2       -2.321350   1.001361
    3       -2.193335   1.035179
    4       -2.111339   0.786178
    5       -2.068973   0.449100
    6       -2.039145   0.217111
    7       -2.029754   0.157125
    8       -2.025242   0.131238
    9       -2.004145   0.037178

  0.4444444E+00  0.3333333E+00  0.1111111E+00  0.1097394E-01
    1       -3.204195   1.000000
    2       -2.248444   1.017073
    3       -2.199706   1.035383
    4       -2.128185   0.887088
    5       -2.051828   0.309626
    6       -2.046311   0.267942
    7       -2.023260   0.120496
    8       -1.989475  -0.002861
    9       -1.926562  -0.028342

 -0.4444444E+00  0.3333333E+00  0.1111111E+00  0.1097394E-01
    1       -3.404592   1.000000
    2       -2.278932   1.007026
    3       -2.210838   1.033179
    4       -2.134531   0.917902
    5       -2.067542   0.437080
    6       -2.066613   0.429301
    7       -2.011236   0.063813
    8       -1.955059  -0.035355
    9       -1.923287  -0.026882

 -0.3333333E+00  0.3333333E+00  0.1111111E+00  0.5486968E-02
    1       -3.530793   1.000000
    2       -2.287467   1.005235
    3       -2.219867   1.029867
    4       -2.128690   0.889689
    5       -2.101730   0.717499
    6       -2.078742   0.531651
    7       -2.011305   0.064096
    8       -1.935003  -0.031773
    9       -1.934033  -0.031413

  0.4444444E+00  0.4444444E+00  0.1111111E+00  0.5486968E-02
    1       -3.331364   1.000000
    2       -2.280319   1.006707
    3       -2.213886   1.032172
    4       -2.140124   0.941686
    5       -2.056739   0.348289
    6       -2.010113   0.059263
    7       -2.003638   0.035462
    8       -1.973263  -0.026837
    9       -1.920858  -0.025773

 -0.4444444E+00  0.4444444E+00  0.1111111E+00  0.5486968E-02
    1       -3.400231   1.000000
    2       -2.290204   1.004745
    3       -2.222772   1.028633
    4       -2.142392   0.950440
    5       -2.062199   0.392650
    6       -2.024040   0.124677
    7       -2.005365   0.041409
    8       -1.938088  -0.032839
    9       -1.929577  -0.029636

  0.3742002E-15  0.3742002E-15  0.2222222E+00  0.2743484E-02
    1       -3.729368   1.000000
    2       -2.245286   1.018423
    3       -2.229596   1.025564
    4       -2.154769   0.989456
    5       -2.113775   0.802394
    6       -2.061800   0.389372
    7       -2.036117   0.196906
    8       -1.969305  -0.030072
    9       -1.964823  -0.032720

  0.1111111E+00  0.3648891E-15  0.2222222E+00  0.1097394E-01
    1       -3.669733   1.000000
    2       -2.238784   1.021326
    3       -2.210389   1.033315
    4       -2.145216   0.960627
    5       -2.123188   0.859986
    6       -2.053909   0.325841
    7       -2.030377   0.160853
    8       -1.997313   0.016111
    9       -1.943524  -0.034357

  0.2222222E+00  0.3721884E-15  0.2222222E+00  0.1097394E-01
    1       -3.493805   1.000000
    2       -2.216757   1.031112
    3       -2.171346   1.020909
    4       -2.137494   0.930893
    5       -2.122426   0.855636
    6       -2.053160   0.319979
    7       -2.027373   0.143218
    8       -2.025883   0.134792
    9       -2.019313   0.100284

  0.3333333E+00  0.4138540E-15  0.2222222E+00  0.1097394E-01
    1       -3.212978   1.000000
    2       -2.266847   1.010311
    3       -2.178338   1.028254
    4       -2.133606   0.913665
    5       -2.098766   0.694967
    6       -2.080901   0.549846
    7       -2.034755   0.188078
    8       -2.017275   0.090460
    9       -1.998677   0.019969

  0.4444444E+00  0.3861792E-15  0.2222222E+00  0.1097394E-01
    1       -2.858478   1.000000
    2       -2.509867   1.000000
    3       -2.152511   0.983404
    4       -2.148335   0.970979
    5       -2.054283   0.328783
    6       -2.024266   0.125899
    7       -2.016688   0.087704
    8       -2.010570   0.061097
    9       -1.969872  -0.029663

  0.1111111E+00  0.1111111E+00  0.2222222E+00  0.5486968E-02
    1       -3.538863   1.000000
    2       -2.217789   1.030709
    3       -2.167619   1.015675
    4       -2.138183   0.933790
    5       -2.116947   0.822722
    6       -2.061251   0.384865
    7       -2.034605   0.187114
    8       -2.023479   0.121667
    9       -2.021966   0.113696

  0.2222222E+00  0.1111111E+00  0.2222222E+00  0.1097394E-01
    1       -3.296867   1.000000
    2       -2.229729   1.025503
    3       -2.182835   1.031464
    4       -2.144313   0.957453
    5       -2.097004   0.681311
    6       -2.079946   0.541804
    7       -2.057710   0.356079
    8       -2.016961   0.088980
    9       -1.993393   0.005957

  0.3333333E+00  0.1111111E+00  0.2222222E+00  0.1097394E-01
    1       -2.963582   1.000000
    2       -2.431385   1.000003
    3       -2.149378   0.974237
    4       -2.146691   0.965640
    5       -2.086451   0.596212
    6       -2.039395   0.218820
    7       -2.000934   0.026731
    8       -1.999857   0.023443
    9       -1.966589  -0.031798

  0.4444444E+00  0.1111111E+00  0.2222222E+00  0.1097394E-01
    1       -2.725737   1.000000
    2       -2.595222   1.000000
    3       -2.148690   0.972102
    4       -2.140265   0.942243
    5       -2.062337   0.393784
    6       -2.030235   0.159995
    7       -2.009943   0.058585
    8       -2.003464   0.034881
    9       -1.970248  -0.029382

 -0.4444444E+00  0.1111111E+00  0.2222222E+00  0.1097394E-01
    1       -3.068584   1.000000
    2       -2.303827   1.002828
    3       -2.164496   1.010515
    4       -2.128572   0.889084
    5       -2.112591   0.794579
    6       -2.075164   0.501389
    7       -2.024351   0.126360
    8       -2.014944   0.079737
    9       -1.998105   0.018329

 -0.3333333E+00  0.1111111E+00  0.2222222E+00  0.1097394E-01
    1       -3.369335   1.000000
    2       -2.213216   1.032404
    3       -2.174590   1.024698
    4       -2.137455   0.930731
    5       -2.128516   0.888795
    6       -2.039932   0.222494
    7       -2.031874   0.169962
    8       -2.017524   0.091636
    9       -2.008582   0.053259

 -0.2222222E+00  0.1111111E+00  0.2222222E+00  0.1097394E-01
    1       -3.580716   1.000000
    2       -2.240396   1.020594
    3       -2.195776   1.035412
    4       -2.142338   0.950236
    5       -2.126190   0.876568
    6       -2.066080   0.424852
    7       -2.020067   0.104023
    8       -1.988829  -0.004192
    9       -1.939596  -0.033311

 -0.1111111E+00  0.1111111E+00  0.2222222E+00  0.5486968E-02
    1       -3.683383   1.000000
    2       -2.246920   1.017718
    3       -2.220501   1.029603
    4       -2.152130   0.982338
    5       -2.106689   0.753835
    6       -2.081878   0.558056
    7       -2.025640   0.133438
    8       -1.965974  -0.032136
    9       -1.962165  -0.033831

  0.2222222E+00  0.2222222E+00  0.2222222E+00  0.5486968E-02
    1       -3.002429   1.000000
    2       -2.399251   1.000023
    3       -2.146753   0.965847
    4       -2.140811   0.944392
    5       -2.100855   0.710908
    6       -2.053813   0.325087
    7       -1.997687   0.017152
    8       -1.993115   0.005288
    9       -1.963603  -0.033270

  0.3333333E+00  0.2222222E+00  0.2222222E+00  0.1097394E-01
    1       -2.648953   1.000000
    2       -2.631370   1.000000
    3       -2.136169   0.925193
    4       -2.127518   0.883615
    5       -2.095117   0.666491
    6       -2.046234   0.267373
    7       -1.997893   0.017729
    8       -1.978692  -0.020859
    9       -1.970886  -0.028886

  0.4444444E+00  0.2222222E+00  0.2222222E+00  0.1097394E-01
    1       -2.921160   1.000000
    2       -2.328509   1.000988
    3       -2.138866   0.936610
    4       -2.132040   0.906291
    5       -2.117375   0.825398
    6       -2.081782   0.557249
    7       -2.029226   0.153989
    8       -2.004330   0.037812
    9       -1.995823   0.012090

 -0.4444444E+00  0.2222222E+00  0.2222222E+00  0.1097394E-01
    1       -3.204395   1.000000
    2       -2.208581   1.033831
    3       -2.171266   1.020806
    4       -2.137906   0.932631
    5       -2.115804   0.815506
    6       -2.042386   0.239601
    7       -2.031127   0.165386
    8       -2.014398   0.077304
    9       -1.996289   0.013325

 -0.3333333E+00  0.2222222E+00  0.2222222E+00  0.1097394E-01
    1       -3.425827   1.000000
    2       -2.242950   1.019449
    3       -2.179086   1.028865
    4       -2.136979   0.928699
    5       -2.125105   0.870674
    6       -2.060881   0.381829
    7       -2.014493   0.077726
    8       -1.978502  -0.021101
    9       -1.933607  -0.031252

 -0.2222222E+00  0.2222222E+00  0.2222222E+00  0.5486968E-02
    1       -3.556108   1.000000
    2       -2.251001   1.016015
    3       -2.201652   1.035204
    4       -2.139204   0.937989
    5       -2.110924   0.783359
    6       -2.088081   0.609665
    7       -2.016724   0.087876
    8       -1.957555  -0.035041
    9       -1.956459  -0.035206

  0.3333333E+00  0.3333333E+00  0.2222222E+00  0.5486968E-02
    1       -2.856565   1.000000
    2       -2.337092   1.000663
    3       -2.136744   0.927690
    4       -2.130975   0.901139
    5       -2.105515   0.745395
    6       -2.085545   0.588698
    7       -2.028527   0.149887
    8       -2.003845   0.036161
    9       -1.996354   0.013500

  0.4444444E+00  0.3333333E+00  0.2222222E+00  0.1097394E-01
    1       -3.078389   1.000000
    2       -2.206776   1.034287
    3       -2.163603   1.008904
    4       -2.140670   0.943841
    5       -2.076585   0.513418
    6       -2.050492   0.299349
    7       -2.024670   0.128096
    8       -2.017122   0.089739
    9       -2.000528   0.025478

 -0.4444444E+00  0.3333333E+00  0.2222222E+00  0.1097394E-01
    1       -3.264123   1.000000
    2       -2.245453   1.018350
    3       -2.175696   1.025835
    4       -2.141317   0.946353
    5       -2.077844   0.524065
    6       -2.047736   0.278507
    7       -2.010055   0.059032
    8       -1.978429  -0.021193
    9       -1.928336  -0.029110

 -0.3333333E+00  0.3333333E+00  0.2222222E+00  0.5486968E-02
    1       -3.386625   1.000000
    2       -2.255543   1.014224
    3       -2.189906   1.034482
    4       -2.131162   0.902048
    5       -2.102100   0.720272
    6       -2.065563   0.420531
    7       -2.010097   0.059199
    8       -1.954678  -0.035384
    9       -1.947983  -0.035159

  0.4444444E+00  0.4444444E+00  0.2222222E+00  0.5486968E-02
    1       -3.191348   1.000000
    2       -2.246541   1.017881
    3       -2.177627   1.027644
    4       -2.141229   0.946013
    5       -2.040249   0.224677
    6       -2.020014   0.103759
    7       -2.008476   0.052854
    8       -2.003417   0.034724
    9       -1.923708  -0.027072

 -0.4444444E+00  0.4444444E+00  0.2222222E+00  0.5486968E-02
    1       -3.256028   1.000000
    2       -2.258457   1.013138
    3       -2.189051   1.034235
    4       -2.139234   0.938110
    5       -2.049920   0.294978
    6       -2.033231   0.178398
    7       -2.004534   0.038512
    8       -1.972440  -0.027584
    9       -1.941729  -0.033914

  0.3742002E-15  0.3742002E-15  0.3333333E+00  0.2743484E-02
    1       -3.491158   1.000000
    2       -2.369064   1.000130
    3       -2.191100   1.034776
    4       -2.127382   0.882902
    5       -2.088268   0.611202
    6       -2.051007   0.303291
    7       -2.049319   0.290419
    8       -1.993954   0.007325
    9       -1.988381  -0.005097

  0.1111111E+00  0.3648891E-15  0.3333333E+00  0.1097394E-01
    1       -3.435698   1.000000
    2       -2.354211   1.000285
    3       -2.190622   1.034665
    4       -2.113122   0.798099
    5       -2.107910   0.762497
    6       -2.048621   0.285146
    7       -2.029069   0.153067
    8       -2.027761   0.145443
    9       -2.026042   0.135683

  0.2222222E+00  0.3721884E-15  0.3333333E+00  0.1097394E-01
    1       -3.275100   1.000000
    2       -2.348801   1.000375
    3       -2.180391   1.029855
    4       -2.130326   0.897938
    5       -2.089627   0.622336
    6       -2.087720   0.606692
    7       -2.046312   0.267944
    8       -2.032764   0.175474
    9       -1.996073   0.012749

  0.3333333E+00  0.4138540E-15  0.3333333E+00  0.1097394E-01
    1       -3.032116   1.000000
    2       -2.415271   1.000008
    3       -2.166528   1.013955
    4       -2.157084   0.995190
    5       -2.075247   0.502091
    6       -2.052181   0.312360
    7       -2.016528   0.086963
    8       -2.002492   0.031676
    9       -1.967270  -0.031401

  0.4444444E+00  0.3861792E-15  0.3333333E+00  0.1097394E-01
    1       -2.763242   1.000000
    2       -2.549801   1.000000
    3       -2.171521   1.021130
    4       -2.170727   1.020106
    5       -2.038865   0.215210
    6       -2.022835   0.118246
    7       -1.981592  -0.016864
    8       -1.941830  -0.033940
    9       -1.937913  -0.032783

  0.1111111E+00  0.1111111E+00  0.3333333E+00  0.5486968E-02
    1       -3.318495   1.000000
    2       -2.361360   1.000196
    3       -2.182424   1.031215
    4       -2.134415   0.917376
    5       -2.091453   0.637172
    6       -2.069602   0.454398
    7       -2.068565   0.445668
    8       -2.033616   0.180825
    9       -1.995662   0.011667

  0.2222222E+00  0.1111111E+00  0.3333333E+00  0.1097394E-01
    1       -3.107082   1.000000
    2       -2.411272   1.000011
    3       -2.161800   1.005458
    4       -2.154468   0.988675
    5       -2.101638   0.716808
    6       -2.080551   0.546899
    7       -2.011051   0.063055
    8       -1.995261   0.010624
    9       -1.964530  -0.032858

  0.3333333E+00  0.1111111E+00  0.3333333E+00  0.1097394E-01
    1       -2.839651   1.000000
    2       -2.511479   1.000000
    3       -2.167633   1.015697
    4       -2.158086   0.997528
    5       -2.088163   0.610339
    6       -2.041658   0.234475
    7       -1.975348  -0.024761
    8       -1.939440  -0.033264
    9       -1.933893  -0.031361
