 running on    2 total cores
 distrk:  each k-point on    2 cores,    1 groups
 distr:  one band on    2 cores,    1 groups
 using from now: INCAR     
 vasp.5.4.4.18Apr17-6-g9f103f2a35 (build Dec  7 2020 12:43:57) complex           
 POSCAR found type information on POSCAR  V 
 POSCAR found :  1 types and       2 ions
 scaLAPACK will be used

 ----------------------------------------------------------------------------- 
|                                                                             |
|  ADVICE TO THIS USER RUNNING 'VASP/VAMP'   (HEAR YOUR MASTER'S VOICE ...):  |
|                                                                             |
|      You have a (more or less) 'small supercell' and for smaller cells      |
|      it is recommended  to use the reciprocal-space projection scheme!      |
|      The real space optimization is not  efficient for small cells and it   |
|      is also less accurate ...                                              |
|      Therefore set LREAL=.FALSE. in the  INCAR file                         |
|                                                                             |
 ----------------------------------------------------------------------------- 

 LDA part: xc-table for Pade appr. of Perdew
 POSCAR, INCAR and KPOINTS ok, starting setup
 resort distribution
 resort distribution
 FFT: planning ...
 WAVECAR not read
 augmentation electrons   10.008534804684587     
 soft         electrons   0.0000000000000000     
 augmentation electrons   10.008534804684587     
 soft         electrons   0.0000000000000000     
 total        electrons   10.008534804684587     
 total        electrons   10.008534804684587     
 augmentation electrons   62.580686719587050     
 soft         electrons   0.0000000000000000     
 augmentation electrons   62.580686719587050     
 soft         electrons   0.0000000000000000     
 total        electrons   62.580686719587050     
 total        electrons   62.580686719587050     
 entering main loop
       N       E                     dE             d eps       ncg     rms          rms(c)
DAV:   1     0.224774356603E+02    0.22477E+02   -0.25519E+03  2250   0.725E+02
DAV:   2    -0.316889345494E+01   -0.25646E+02   -0.25173E+02  2258   0.125E+02
DAV:   3    -0.541033449756E+01   -0.22414E+01   -0.21346E+01  4354   0.286E+01
DAV:   4    -0.563242586316E+01   -0.22209E+00   -0.19512E+00  3316   0.876E+00
DAV:   5    -0.569726106669E+01   -0.64835E-01   -0.59814E-01  3850   0.308E+00    0.105E+01
DAV:   6    -0.824955827981E+01   -0.25523E+01   -0.11154E+02  4168   0.783E+01    0.220E+01
DAV:   7    -0.361143675585E+01    0.46381E+01   -0.27510E+01  3642   0.441E+01    0.486E+00
DAV:   8    -0.371181906166E+01   -0.10038E+00   -0.48512E+00  4061   0.923E+00    0.167E+00
DAV:   9    -0.370932339521E+01    0.24957E-02   -0.20895E-01  3194   0.228E+00    0.915E-01
DAV:  10    -0.370729625340E+01    0.20271E-02   -0.56524E-02  4177   0.125E+00    0.725E-01
DAV:  11    -0.371022171114E+01   -0.29255E-02   -0.90703E-02  4083   0.192E+00    0.483E-01
DAV:  12    -0.370772345431E+01    0.24983E-02   -0.14478E-02  4044   0.942E-01    0.221E-01
DAV:  13    -0.370723085158E+01    0.49260E-03   -0.87617E-03  4032   0.696E-01    0.862E-02
DAV:  14    -0.370723748305E+01   -0.66315E-05   -0.52510E-04  3712   0.248E-01    0.580E-02
DAV:  15    -0.370729226186E+01   -0.54779E-04   -0.61789E-04  3999   0.210E-01    0.660E-02
DAV:  16    -0.370724178992E+01    0.50472E-04    0.18367E-04  3617   0.898E-02    0.418E-02
DAV:  17    -0.370719507989E+01    0.46710E-04    0.28724E-05  4092   0.143E-01    0.226E-02
DAV:  18    -0.370717740958E+01    0.17670E-04    0.19653E-04  3647   0.534E-02    0.599E-03
DAV:  19    -0.370714839346E+01    0.29016E-04    0.31969E-04  3965   0.167E-02    0.641E-03
DAV:  20    -0.370712159659E+01    0.26797E-04    0.30539E-04  3540   0.187E-02    0.244E-03
DAV:  21    -0.370710159030E+01    0.20006E-04    0.21534E-04  3689   0.499E-03    0.365E-03
DAV:  22    -0.370708314823E+01    0.18442E-04    0.19688E-04  3302   0.322E-03    0.412E-03
DAV:  23    -0.370706401813E+01    0.19130E-04    0.19637E-04  3237   0.105E-02    0.275E-03
DAV:  24    -0.370704660887E+01    0.17409E-04    0.18064E-04  3123   0.509E-03    0.469E-03
DAV:  25    -0.370703017621E+01    0.16433E-04    0.16829E-04  3011   0.181E-03    0.329E-03
DAV:  26    -0.370701435390E+01    0.15822E-04    0.16307E-04  2804   0.232E-03    0.127E-03
DAV:  27    -0.370700022468E+01    0.14129E-04    0.14554E-04  2866   0.425E-04    0.343E-04
DAV:  28    -0.370698727611E+01    0.12949E-04    0.13173E-04  2557   0.124E-04    0.525E-04
DAV:  29    -0.370697568402E+01    0.11592E-04    0.11837E-04  2479  -0.449E-04    0.767E-04
DAV:  30    -0.370696501585E+01    0.10668E-04    0.10837E-04  2327   0.181E-04    0.110E-03
DAV:  31    -0.370695642206E+01    0.85938E-05    0.89731E-05  2280  -0.407E-04    0.164E-03
DAV:  32    -0.370694741787E+01    0.90042E-05    0.91684E-05  2256  -0.243E-04    0.175E-03
DAV:  33    -0.370693926756E+01    0.81503E-05    0.82336E-05  2143  -0.681E-04    0.180E-03
DAV:  34    -0.370693172570E+01    0.75419E-05    0.75946E-05  2093  -0.419E-04    0.187E-03
DAV:  35    -0.370692464457E+01    0.70811E-05    0.71115E-05  2056  -0.536E-04    0.195E-03
DAV:  36    -0.370691771040E+01    0.69342E-05    0.69524E-05  1973  -0.372E-04    0.204E-03
DAV:  37    -0.370691128262E+01    0.64278E-05    0.64575E-05  1932  -0.551E-04    0.205E-03
DAV:  38    -0.370690517407E+01    0.61085E-05    0.61555E-05  1930  -0.369E-04    0.219E-03
DAV:  39    -0.370689945377E+01    0.57203E-05    0.57703E-05  1770  -0.528E-04    0.230E-03
DAV:  40    -0.370689412019E+01    0.53336E-05    0.53899E-05  1791  -0.347E-04    0.242E-03
DAV:  41    -0.370688902770E+01    0.50925E-05    0.51462E-05  1751  -0.491E-04    0.256E-03
DAV:  42    -0.370688441137E+01    0.46163E-05    0.46893E-05  1736  -0.392E-04    0.271E-03
DAV:  43    -0.370687983936E+01    0.45720E-05    0.46209E-05  1643  -0.368E-04    0.290E-03
DAV:  44    -0.370687534068E+01    0.44987E-05    0.45402E-05  1716  -0.340E-04    0.311E-03
DAV:  45    -0.370687115907E+01    0.41816E-05    0.42132E-05  1600  -0.430E-04    0.329E-03
DAV:  46    -0.370686719156E+01    0.39675E-05    0.39957E-05  1678  -0.236E-04    0.344E-03
DAV:  47    -0.370686329382E+01    0.38977E-05    0.39156E-05  1603  -0.417E-04    0.362E-03
DAV:  48    -0.370685948050E+01    0.38133E-05    0.38267E-05  1624  -0.240E-04    0.381E-03
DAV:  49    -0.370685573126E+01    0.37492E-05    0.37594E-05  1555  -0.382E-04    0.399E-03
DAV:  50    -0.370685196415E+01    0.37671E-05    0.37788E-05  1602  -0.214E-04    0.416E-03
DAV:  51    -0.370684851108E+01    0.34531E-05    0.34540E-05  1553  -0.452E-04    0.437E-03
DAV:  52    -0.370684493151E+01    0.35796E-05    0.35826E-05  1570  -0.215E-04    0.454E-03
DAV:  53    -0.370684141751E+01    0.35140E-05    0.35155E-05  1528  -0.476E-04    0.472E-03
DAV:  54    -0.370683800252E+01    0.34150E-05    0.34164E-05  1567  -0.278E-04    0.489E-03
DAV:  55    -0.370683473009E+01    0.32724E-05    0.32729E-05  1575  -0.484E-04    0.505E-03
DAV:  56    -0.370683151986E+01    0.32102E-05    0.32069E-05  1561  -0.212E-04    0.523E-03
DAV:  57    -0.370682840986E+01    0.31100E-05    0.31107E-05  1552  -0.473E-04    0.539E-03
DAV:  58    -0.370682540045E+01    0.30094E-05    0.30104E-05  1550  -0.257E-04    0.554E-03
DAV:  59    -0.370682249620E+01    0.29042E-05    0.29054E-05  1547  -0.454E-04    0.570E-03
DAV:  60    -0.370681975336E+01    0.27428E-05    0.27445E-05  1520  -0.258E-04    0.583E-03
DAV:  61    -0.370681708075E+01    0.26726E-05    0.26733E-05  1500  -0.389E-04    0.599E-03
DAV:  62    -0.370681455980E+01    0.25209E-05    0.25241E-05  1500  -0.250E-04    0.611E-03
DAV:  63    -0.370681214445E+01    0.24154E-05    0.24175E-05  1497  -0.372E-04    0.624E-03
DAV:  64    -0.370680985795E+01    0.22865E-05    0.22895E-05  1523  -0.206E-04    0.635E-03
DAV:  65    -0.370680762690E+01    0.22311E-05    0.22342E-05  1529  -0.371E-04    0.649E-03
DAV:  66    -0.370680541872E+01    0.22082E-05    0.22145E-05  1536  -0.182E-04    0.660E-03
DAV:  67    -0.370680339327E+01    0.20255E-05    0.20240E-05  1493  -0.324E-04    0.672E-03
DAV:  68    -0.370680148428E+01    0.19090E-05    0.19071E-05  1506  -0.172E-04    0.682E-03
DAV:  69    -0.370679970472E+01    0.17796E-05    0.17839E-05  1484  -0.311E-04    0.691E-03
DAV:  70    -0.370679784669E+01    0.18580E-05    0.18614E-05  1497  -0.154E-04    0.695E-03
DAV:  71    -0.370679624607E+01    0.16006E-05    0.17024E-05  1440   0.844E-04    0.662E-03
DAV:  72    -0.370679489152E+01    0.13545E-05    0.13930E-05  1457   0.558E-04    0.653E-03
DAV:  73    -0.370679360904E+01    0.12825E-05    0.13005E-05  1439   0.689E-05    0.655E-03
DAV:  74    -0.370679233109E+01    0.12779E-05    0.12882E-05  1451   0.135E-04    0.658E-03
DAV:  75    -0.370679117840E+01    0.11527E-05    0.11677E-05  1416   0.142E-05    0.652E-03
DAV:  76    -0.370679012012E+01    0.10583E-05    0.10735E-05  1442   0.240E-04    0.644E-03
DAV:  77    -0.370678913459E+01    0.98553E-06    0.99239E-06  1405  -0.123E-05

 ----------------------------------------------------------------------------- 
|                                                                             |
|  ADVICE TO THIS USER RUNNING 'VASP/VAMP'   (HEAR YOUR MASTER'S VOICE ...):  |
|                                                                             |
|      Your highest band is occupied at some k-points! Unless you are         |
|      performing a calculation for an insulator or semiconductor, without    |
|      unoccupied bands, you have included TOO FEW BANDS!! Please increase    |
|      the parameter NBANDS in file INCAR to ensure that the highest band     |
|      is unoccupied at all k-points. It is always recommended to             |
|      include a few unoccupied bands to accelerate the convergence of        |
|      molecular dynamics runs (even for insulators or semiconductors).       |
|      Because the presence of unoccupied bands improves wavefunction         |
|      prediction, and helps to suppress 'band-crossings.'                    |
|                                                                             |
 ----------------------------------------------------------------------------- 

   1 F= -.37067891E+01 E0= -.36954259E+01  d E =-.340897E-01
 writing wavefunctions
 augmentation electrons   4.0711376580157523     
 soft         electrons   5.9399640468194113     
 augmentation electrons   4.0711376580157523     
 soft         electrons   5.9399640468194113     
 total        electrons   10.011101704835163     
 total        electrons   10.011101704835163     
