   57   57   85    1
  0.1334943E+02  0.6088057E-09  0.6088057E-09  0.2372246E-08  0.5000000E-15
   1.0000000000000000E-004
  CAR 
 Name                                    
    203     41    132

  0.3742002E-15  0.3742002E-15  0.1262379E-14  0.1234568E-01
    1      -11.520704   1.000000
    2      -10.958072   1.000000
    3      -10.192630   1.000000
    4       -9.435856   1.000000
    5       -8.710138   1.000000
    6       -8.637316   1.000000
    7       -8.256898   1.000000
    8       -8.070932   1.000000
    9       -7.931151   1.000000
   10       -7.830020   1.000000
   11       -7.752109   1.000000
   12       -7.718614   1.000000
   13       -7.682239   1.000000
   14       -7.670635   1.000000
   15       -7.409172   1.000000
   16       -7.366386   1.000000
   17       -7.320991   1.000000
   18       -7.280206   1.000000
   19       -7.162080   1.000000
   20       -7.025927   1.000000
   21       -6.997372   1.000000
   22       -6.874087   1.000000
   23       -6.245431   1.000000
   24       -6.115334   1.000000
   25       -6.114845   1.000000
   26       -6.008020   1.000000
   27       -5.880341   1.000000
   28       -5.868630   1.000000
   29       -5.819145   1.000000
   30       -5.675354   1.000000
   31       -5.233858   1.000000
   32       -4.738054   1.000000
   33       -4.609762   1.000000
   34       -4.607845   1.000000
   35       -4.542273   1.000000
   36       -4.433673   1.000000
   37       -4.222056   1.000000
   38       -3.663900   1.000000
   39       -3.318918   1.000000
   40       -3.211753   1.000000
   41       -3.142447   1.000000
   42       -2.942492   1.000000
   43       -2.785428   1.000000
   44       -2.733705   1.000000
   45       -2.569153   1.000000
   46       -2.530254   1.000000
   47       -2.449614   1.000000
   48       -2.425207   1.000000
   49       -2.257096   1.000000
   50       -2.210584   1.000000
   51       -2.108727   1.000000
   52       -2.044615   1.000000
   53       -1.936115   1.000000
   54       -1.918976   1.000000
   55       -1.856347   1.000000
   56       -1.813448   1.000000
   57       -1.789818   1.000000
   58       -1.706784   1.000000
   59       -1.676200   1.000000
   60       -1.670940   1.000000
   61       -1.533647   1.000000
   62       -1.380872   1.000000
   63       -1.299088   1.000000
   64       -1.287602   1.000000
   65       -1.193440   1.000000
   66       -1.120944   1.000000
   67       -1.075684   1.000000
   68       -0.945550   1.000000
   69       -0.846511   1.000000
   70       -0.810969   1.000000
   71       -0.808954   1.000000
   72       -0.676200   1.000000
   73       -0.656067   1.000000
   74       -0.622093   1.000000
   75       -0.463600   1.000000
   76       -0.408167   1.000000
   77       -0.246135   1.000000
   78       -0.100603   1.000000
   79       -0.093046   1.000000
   80        0.145586   1.000000
   81        0.280439   1.000000
   82        0.373306   1.000000
   83        0.514909   1.000000
   84        0.623093   1.000000
   85        0.829600   1.000000
   86        0.942788   1.000000
   87        1.117553   1.000000
   88        1.159615   1.000000
   89        1.215811   1.000000
   90        1.386310   1.000000
   91        1.401185   1.000000
   92        1.431008   1.000000
   93        1.528545   1.000000
   94        1.537887   1.000000
   95        1.592708   1.000000
   96        1.598380   1.000000
   97        2.001625   1.000009
   98        2.034250   1.000026
   99        2.643495   0.643430
  100        2.645986   0.633364
  101        2.696791   0.420677
  102        2.754835   0.199801
  103        2.901785  -0.033483
  104        2.943286  -0.034070
  105        3.083368  -0.007318
  106        3.156657  -0.001839
  107        3.208136  -0.000575
  108        3.530686  -0.000000
  109        3.566331  -0.000000
  110        3.573664  -0.000000
  111        3.619691  -0.000000
  112        3.708412  -0.000000
  113        3.769317  -0.000000
  114        3.815077  -0.000000
  115        3.824098  -0.000000
  116        3.885749  -0.000000
  117        3.896253  -0.000000
  118        3.919904  -0.000000
  119        3.993266  -0.000000
  120        4.012117  -0.000000
  121        4.032732  -0.000000
  122        4.131846  -0.000000
  123        4.154116  -0.000000
  124        4.187150  -0.000000
  125        4.214794  -0.000000
  126        4.250975  -0.000000
  127        4.302447  -0.000000
  128        4.335922  -0.000000
  129        4.460341  -0.000000
  130        4.493385  -0.000000
  131        4.784006  -0.000000
  132        4.787261  -0.000000

  0.1111111E+00  0.3857958E-15  0.1262379E-14  0.2469136E-01
    1      -11.463307   1.000000
    2      -10.905360   1.000000
    3      -10.149639   1.000000
    4       -9.402193   1.000000
    5       -8.675881   1.000000
    6       -8.655456   1.000000
    7       -8.402366   1.000000
    8       -8.286735   1.000000
    9       -8.097670   1.000000
   10       -8.001669   1.000000
   11       -7.976389   1.000000
   12       -7.931137   1.000000
   13       -7.823094   1.000000
   14       -7.769241   1.000000
   15       -7.476126   1.000000
   16       -7.259374   1.000000
   17       -7.179267   1.000000
   18       -7.113522   1.000000
   19       -6.944888   1.000000
   20       -6.870482   1.000000
   21       -6.786687   1.000000
   22       -6.603950   1.000000
   23       -6.303036   1.000000
   24       -6.123188   1.000000
   25       -6.079468   1.000000
   26       -5.964647   1.000000
   27       -5.860276   1.000000
   28       -5.821767   1.000000
   29       -5.700235   1.000000
   30       -5.548971   1.000000
   31       -5.176508   1.000000
   32       -4.623227   1.000000
   33       -4.568677   1.000000
   34       -4.492304   1.000000
   35       -4.427901   1.000000
   36       -4.320906   1.000000
   37       -4.119314   1.000000
   38       -3.630532   1.000000
   39       -3.280615   1.000000
   40       -3.239614   1.000000
   41       -3.174424   1.000000
   42       -2.931117   1.000000
   43       -2.903354   1.000000
   44       -2.709206   1.000000
   45       -2.670639   1.000000
   46       -2.643871   1.000000
   47       -2.540019   1.000000
   48       -2.442724   1.000000
   49       -2.342132   1.000000
   50       -2.252375   1.000000
   51       -2.180526   1.000000
   52       -1.994927   1.000000
   53       -1.948632   1.000000
   54       -1.905093   1.000000
   55       -1.840402   1.000000
   56       -1.806392   1.000000
   57       -1.778949   1.000000
   58       -1.735362   1.000000
   59       -1.676592   1.000000
   60       -1.670308   1.000000
   61       -1.524647   1.000000
   62       -1.407733   1.000000
   63       -1.368109   1.000000
   64       -1.319501   1.000000
   65       -1.260992   1.000000
   66       -1.136024   1.000000
   67       -1.119815   1.000000
   68       -1.029650   1.000000
   69       -0.972473   1.000000
   70       -0.848850   1.000000
   71       -0.823343   1.000000
   72       -0.746350   1.000000
   73       -0.647078   1.000000
   74       -0.578913   1.000000
   75       -0.471304   1.000000
   76       -0.407498   1.000000
   77       -0.280914   1.000000
   78       -0.157365   1.000000
   79       -0.096339   1.000000
   80        0.054830   1.000000
   81        0.141547   1.000000
   82        0.313027   1.000000
   83        0.344400   1.000000
   84        0.619209   1.000000
   85        0.769226   1.000000
   86        0.903887   1.000000
   87        0.921742   1.000000
   88        1.066876   1.000000
   89        1.099105   1.000000
   90        1.273544   1.000000
   91        1.387052   1.000000
   92        1.432396   1.000000
   93        1.442372   1.000000
   94        1.489889   1.000000
   95        1.651983   1.000000
   96        1.749591   1.000000
   97        2.073387   1.000082
   98        2.293754   1.010233
   99        2.515364   0.993285
  100        2.621421   0.728937
  101        2.702312   0.397771
  102        2.759412   0.184973
  103        2.849780  -0.003668
  104        2.900020  -0.033114
  105        3.183954  -0.001012
  106        3.238050  -0.000273
  107        3.372188  -0.000005
  108        3.529289  -0.000000
  109        3.541723  -0.000000
  110        3.584788  -0.000000
  111        3.611127  -0.000000
  112        3.681522  -0.000000
  113        3.746375  -0.000000
  114        3.772535  -0.000000
  115        3.795069  -0.000000
  116        3.863703  -0.000000
  117        3.878600  -0.000000
  118        3.904346  -0.000000
  119        3.954224  -0.000000
  120        3.974353  -0.000000
  121        3.994384  -0.000000
  122        4.096036  -0.000000
  123        4.123593  -0.000000
  124        4.142660  -0.000000
  125        4.190980  -0.000000
  126        4.215097  -0.000000
  127        4.268515  -0.000000
  128        4.323177  -0.000000
  129        4.442910  -0.000000
  130        4.546895  -0.000000
  131        4.684938  -0.000000
  132        4.800041  -0.000000

  0.2222222E+00  0.3935346E-15  0.1262379E-14  0.2469136E-01
    1      -11.293276   1.000000
    2      -10.749628   1.000000
    3      -10.023854   1.000000
    4       -9.304290   1.000000
    5       -8.975219   1.000000
    6       -8.760956   1.000000
    7       -8.740565   1.000000
    8       -8.566855   1.000000
    9       -8.251369   1.000000
   10       -8.191462   1.000000
   11       -8.159285   1.000000
   12       -8.022097   1.000000
   13       -8.014782   1.000000
   14       -7.982102   1.000000
   15       -7.760042   1.000000
   16       -7.343706   1.000000
   17       -7.069646   1.000000
   18       -6.783984   1.000000
   19       -6.770119   1.000000
   20       -6.698300   1.000000
   21       -6.490028   1.000000
   22       -6.328302   1.000000
   23       -6.053923   1.000000
   24       -5.989152   1.000000
   25       -5.891167   1.000000
   26       -5.787722   1.000000
   27       -5.713885   1.000000
   28       -5.647210   1.000000
   29       -5.281833   1.000000
   30       -5.252622   1.000000
   31       -5.009596   1.000000
   32       -4.448399   1.000000
   33       -4.437039   1.000000
   34       -4.398512   1.000000
   35       -4.125375   1.000000
   36       -3.936095   1.000000
   37       -3.754457   1.000000
   38       -3.560642   1.000000
   39       -3.388424   1.000000
   40       -3.285725   1.000000
   41       -3.213026   1.000000
   42       -3.150968   1.000000
   43       -3.133205   1.000000
   44       -3.075988   1.000000
   45       -2.873921   1.000000
   46       -2.666678   1.000000
   47       -2.555130   1.000000
   48       -2.500394   1.000000
   49       -2.379111   1.000000
   50       -2.245774   1.000000
   51       -2.164745   1.000000
   52       -2.110770   1.000000
   53       -2.060913   1.000000
   54       -1.961363   1.000000
   55       -1.926839   1.000000
   56       -1.847329   1.000000
   57       -1.826413   1.000000
   58       -1.761330   1.000000
   59       -1.732319   1.000000
   60       -1.667396   1.000000
   61       -1.547324   1.000000
   62       -1.533052   1.000000
   63       -1.449777   1.000000
   64       -1.409320   1.000000
   65       -1.352656   1.000000
   66       -1.284005   1.000000
   67       -1.224525   1.000000
   68       -1.198354   1.000000
   69       -1.085242   1.000000
   70       -1.009115   1.000000
   71       -0.950607   1.000000
   72       -0.869955   1.000000
   73       -0.727989   1.000000
   74       -0.594509   1.000000
   75       -0.559377   1.000000
   76       -0.429161   1.000000
   77       -0.382257   1.000000
   78       -0.257709   1.000000
   79       -0.168337   1.000000
   80       -0.151374   1.000000
   81        0.112037   1.000000
   82        0.226781   1.000000
   83        0.315475   1.000000
   84        0.475228   1.000000
   85        0.517181   1.000000
   86        0.736459   1.000000
   87        0.804584   1.000000
   88        0.901094   1.000000
   89        1.023130   1.000000
   90        1.204999   1.000000
   91        1.245796   1.000000
   92        1.328540   1.000000
   93        1.385592   1.000000
   94        1.401917   1.000000
   95        1.664828   1.000000
   96        1.821003   1.000000
   97        1.932598   1.000001
   98        2.270779   1.007108
   99        2.361570   1.023903
  100        2.648029   0.625061
  101        2.729624   0.289239
  102        2.915134  -0.035213
  103        3.019405  -0.018232
  104        3.122403  -0.003655
  105        3.230666  -0.000329
  106        3.281768  -0.000084
  107        3.332525  -0.000019
  108        3.369622  -0.000006
  109        3.417886  -0.000001
  110        3.467629  -0.000000
  111        3.516867  -0.000000
  112        3.579773  -0.000000
  113        3.650747  -0.000000
  114        3.713057  -0.000000
  115        3.731671  -0.000000
  116        3.783375  -0.000000
  117        3.821588  -0.000000
  118        3.858668  -0.000000
  119        3.908128  -0.000000
  120        3.926334  -0.000000
  121        3.976626  -0.000000
  122        4.029175  -0.000000
  123        4.069091  -0.000000
  124        4.178261  -0.000000
  125        4.222017  -0.000000
  126        4.252562  -0.000000
  127        4.334467  -0.000000
  128        4.359264  -0.000000
  129        4.384969  -0.000000
  130        4.535667  -0.000000
  131        4.579819  -0.000000
  132        4.790085  -0.000000

  0.3333333E+00  0.3939838E-15  0.1262379E-14  0.2469136E-01
    1      -11.017953   1.000000
    2      -10.498506   1.000000
    3       -9.825256   1.000000
    4       -9.581051   1.000000
    5       -9.255307   1.000000
    6       -9.142175   1.000000
    7       -8.958057   1.000000
    8       -8.397371   1.000000
    9       -8.354043   1.000000
   10       -8.323748   1.000000
   11       -8.308623   1.000000
   12       -8.174704   1.000000
   13       -8.151672   1.000000
   14       -8.073366   1.000000
   15       -7.992652   1.000000
   16       -7.430309   1.000000
   17       -7.404801   1.000000
   18       -6.633580   1.000000
   19       -6.597079   1.000000
   20       -6.541852   1.000000
   21       -6.072803   1.000000
   22       -6.019097   1.000000
   23       -5.922504   1.000000
   24       -5.833326   1.000000
   25       -5.819207   1.000000
   26       -5.597108   1.000000
   27       -5.125970   1.000000
   28       -5.018479   1.000000
   29       -4.927922   1.000000
   30       -4.770947   1.000000
   31       -4.661056   1.000000
   32       -4.289697   1.000000
   33       -4.217966   1.000000
   34       -4.138321   1.000000
   35       -3.893456   1.000000
   36       -3.762090   1.000000
   37       -3.671794   1.000000
   38       -3.651184   1.000000
   39       -3.620884   1.000000
   40       -3.532548   1.000000
   41       -3.504739   1.000000
   42       -3.404715   1.000000
   43       -3.232320   1.000000
   44       -2.973242   1.000000
   45       -2.845141   1.000000
   46       -2.745261   1.000000
   47       -2.649497   1.000000
   48       -2.558503   1.000000
   49       -2.467089   1.000000
   50       -2.356329   1.000000
   51       -2.266133   1.000000
   52       -2.239577   1.000000
   53       -2.152545   1.000000
   54       -2.114761   1.000000
   55       -2.036190   1.000000
   56       -1.999610   1.000000
   57       -1.974191   1.000000
   58       -1.883750   1.000000
   59       -1.839599   1.000000
   60       -1.804429   1.000000
   61       -1.665042   1.000000
   62       -1.612949   1.000000
   63       -1.580790   1.000000
   64       -1.489962   1.000000
   65       -1.457538   1.000000
   66       -1.414083   1.000000
   67       -1.347271   1.000000
   68       -1.235011   1.000000
   69       -1.168042   1.000000
   70       -1.125893   1.000000
   71       -1.078688   1.000000
   72       -0.950243   1.000000
   73       -0.754655   1.000000
   74       -0.711555   1.000000
   75       -0.604601   1.000000
   76       -0.548138   1.000000
   77       -0.465996   1.000000
   78       -0.387847   1.000000
   79       -0.255328   1.000000
   80       -0.122042   1.000000
   81       -0.077760   1.000000
   82        0.106563   1.000000
   83        0.246198   1.000000
   84        0.409973   1.000000
   85        0.516366   1.000000
   86        0.739313   1.000000
   87        0.792045   1.000000
   88        0.859040   1.000000
   89        0.957396   1.000000
   90        1.067142   1.000000
   91        1.127950   1.000000
   92        1.250865   1.000000
   93        1.301507   1.000000
   94        1.374417   1.000000
   95        1.478175   1.000000
   96        1.685700   1.000000
   97        2.089245   1.000128
   98        2.133067   1.000401
   99        2.192985   1.001609
  100        2.538849   0.958298
  101        2.731243   0.283138
  102        2.779994   0.124347
  103        2.873296  -0.022539
  104        2.934799  -0.034956
  105        3.060209  -0.010535
  106        3.090345  -0.006511
  107        3.230468  -0.000331
  108        3.281808  -0.000084
  109        3.327607  -0.000022
  110        3.398211  -0.000002
  111        3.434514  -0.000001
  112        3.476728  -0.000000
  113        3.537101  -0.000000
  114        3.641115  -0.000000
  115        3.656870  -0.000000
  116        3.762728  -0.000000
  117        3.809694  -0.000000
  118        3.870829  -0.000000
  119        3.891541  -0.000000
  120        3.946439  -0.000000
  121        4.003234  -0.000000
  122        4.079174  -0.000000
  123        4.132653  -0.000000
  124        4.173174  -0.000000
  125        4.216468  -0.000000
  126        4.272030  -0.000000
  127        4.321950  -0.000000
  128        4.459185  -0.000000
  129        4.474674  -0.000000
  130        4.571643  -0.000000
  131        4.646869  -0.000000
  132        4.731723  -0.000000

  0.4444444E+00  0.3881204E-15  0.1262379E-14  0.2469136E-01
    1      -10.663565   1.000000
    2      -10.173490   1.000000
    3      -10.102463   1.000000
    4       -9.708485   1.000000
    5       -9.571224   1.000000
    6       -9.256506   1.000000
    7       -8.959500   1.000000
    8       -8.434649   1.000000
    9       -8.400690   1.000000
   10       -8.395367   1.000000
   11       -8.372567   1.000000
   12       -8.247540   1.000000
   13       -8.158630   1.000000
   14       -8.124397   1.000000
   15       -7.987316   1.000000
   16       -7.803463   1.000000
   17       -7.435253   1.000000
   18       -6.635565   1.000000
   19       -6.548795   1.000000
   20       -6.428949   1.000000
   21       -5.903420   1.000000
   22       -5.778136   1.000000
   23       -5.692833   1.000000
   24       -5.658943   1.000000
   25       -5.599195   1.000000
   26       -5.501423   1.000000
   27       -4.723178   1.000000
   28       -4.589504   1.000000
   29       -4.441066   1.000000
   30       -4.293751   1.000000
   31       -4.216496   1.000000
   32       -4.186548   1.000000
   33       -4.119958   1.000000
   34       -4.023553   1.000000
   35       -3.973818   1.000000
   36       -3.900243   1.000000
   37       -3.870129   1.000000
   38       -3.814313   1.000000
   39       -3.725028   1.000000
   40       -3.624606   1.000000
   41       -3.567477   1.000000
   42       -3.533158   1.000000
   43       -3.373204   1.000000
   44       -3.283161   1.000000
   45       -2.973432   1.000000
   46       -2.744527   1.000000
   47       -2.686848   1.000000
   48       -2.584891   1.000000
   49       -2.500544   1.000000
   50       -2.458554   1.000000
   51       -2.319864   1.000000
   52       -2.276493   1.000000
   53       -2.240615   1.000000
   54       -2.159604   1.000000
   55       -2.111380   1.000000
   56       -2.077974   1.000000
   57       -2.040630   1.000000
   58       -1.972776   1.000000
   59       -1.919230   1.000000
   60       -1.846744   1.000000
   61       -1.775175   1.000000
   62       -1.687003   1.000000
   63       -1.630472   1.000000
   64       -1.566945   1.000000
   65       -1.532846   1.000000
   66       -1.494158   1.000000
   67       -1.392726   1.000000
   68       -1.358527   1.000000
   69       -1.217013   1.000000
   70       -1.161323   1.000000
   71       -1.104238   1.000000
   72       -1.001985   1.000000
   73       -0.868090   1.000000
   74       -0.697225   1.000000
   75       -0.666523   1.000000
   76       -0.644039   1.000000
   77       -0.539517   1.000000
   78       -0.406261   1.000000
   79       -0.285690   1.000000
   80       -0.206412   1.000000
   81       -0.037400   1.000000
   82        0.059438   1.000000
   83        0.159806   1.000000
   84        0.430855   1.000000
   85        0.513949   1.000000
   86        0.706111   1.000000
   87        0.771727   1.000000
   88        0.872329   1.000000
   89        0.919101   1.000000
   90        1.027917   1.000000
   91        1.118310   1.000000
   92        1.207521   1.000000
   93        1.332160   1.000000
   94        1.354904   1.000000
   95        1.404032   1.000000
   96        1.726215   1.000000
   97        2.067113   1.000069
   98        2.197103   1.001757
   99        2.250030   1.004963
  100        2.264019   1.006342
  101        2.366875   1.025130
  102        2.565758   0.901731
  103        2.643317   0.644144
  104        2.776888   0.132838
  105        2.915864  -0.035258
  106        2.989131  -0.025107
  107        3.123729  -0.003564
  108        3.194584  -0.000792
  109        3.247368  -0.000214
  110        3.286529  -0.000073
  111        3.337473  -0.000016
  112        3.390791  -0.000003
  113        3.459399  -0.000000
  114        3.536276  -0.000000
  115        3.610290  -0.000000
  116        3.726161  -0.000000
  117        3.761185  -0.000000
  118        3.801146  -0.000000
  119        3.865126  -0.000000
  120        3.975640  -0.000000
  121        4.025085  -0.000000
  122        4.069819  -0.000000
  123        4.199970  -0.000000
  124        4.287245  -0.000000
  125        4.294709  -0.000000
  126        4.342808  -0.000000
  127        4.457818  -0.000000
  128        4.531942  -0.000000
  129        4.550083  -0.000000
  130        4.720337  -0.000000
  131        4.758466  -0.000000
  132        4.877339  -0.000000

  0.3742002E-15  0.1111111E+00  0.1262379E-14  0.2469136E-01
    1      -11.463309   1.000000
    2      -10.905361   1.000000
    3      -10.149641   1.000000
    4       -9.402216   1.000000
    5       -8.675877   1.000000
    6       -8.655436   1.000000
    7       -8.402461   1.000000
    8       -8.286732   1.000000
    9       -8.097658   1.000000
   10       -8.001838   1.000000
   11       -7.976312   1.000000
   12       -7.931107   1.000000
   13       -7.822720   1.000000
   14       -7.769411   1.000000
   15       -7.473936   1.000000
   16       -7.261800   1.000000
   17       -7.179652   1.000000
   18       -7.113552   1.000000
   19       -6.944675   1.000000
   20       -6.870846   1.000000
   21       -6.786813   1.000000
   22       -6.603661   1.000000
   23       -6.302705   1.000000
   24       -6.123091   1.000000
   25       -6.079173   1.000000
   26       -5.964798   1.000000
   27       -5.859963   1.000000
   28       -5.821631   1.000000
   29       -5.700747   1.000000
   30       -5.548824   1.000000
   31       -5.176344   1.000000
   32       -4.623347   1.000000
   33       -4.568726   1.000000
   34       -4.492731   1.000000
   35       -4.427717   1.000000
   36       -4.320896   1.000000
   37       -4.119105   1.000000
   38       -3.630516   1.000000
   39       -3.280684   1.000000
   40       -3.239490   1.000000
   41       -3.174461   1.000000
   42       -2.931100   1.000000
   43       -2.903424   1.000000
   44       -2.709472   1.000000
   45       -2.670816   1.000000
   46       -2.643527   1.000000
   47       -2.539950   1.000000
   48       -2.443131   1.000000
   49       -2.341903   1.000000
   50       -2.252326   1.000000
   51       -2.180476   1.000000
   52       -1.995557   1.000000
   53       -1.948496   1.000000
   54       -1.905442   1.000000
   55       -1.840361   1.000000
   56       -1.806327   1.000000
   57       -1.778529   1.000000
   58       -1.735264   1.000000
   59       -1.675994   1.000000
   60       -1.670472   1.000000
   61       -1.524865   1.000000
   62       -1.407517   1.000000
   63       -1.368088   1.000000
   64       -1.319476   1.000000
   65       -1.260497   1.000000
   66       -1.136159   1.000000
   67       -1.119982   1.000000
   68       -1.029733   1.000000
   69       -0.972741   1.000000
   70       -0.849305   1.000000
   71       -0.822411   1.000000
   72       -0.746284   1.000000
   73       -0.646949   1.000000
   74       -0.578665   1.000000
   75       -0.471235   1.000000
   76       -0.407513   1.000000
   77       -0.281146   1.000000
   78       -0.157915   1.000000
   79       -0.096587   1.000000
   80        0.054005   1.000000
   81        0.142246   1.000000
   82        0.313414   1.000000
   83        0.344352   1.000000
   84        0.618509   1.000000
   85        0.769835   1.000000
   86        0.903786   1.000000
   87        0.921720   1.000000
   88        1.067787   1.000000
   89        1.099241   1.000000
   90        1.272903   1.000000
   91        1.386972   1.000000
   92        1.432526   1.000000
   93        1.442354   1.000000
   94        1.489810   1.000000
   95        1.651833   1.000000
   96        1.749575   1.000000
   97        2.073577   1.000083
   98        2.292987   1.010115
   99        2.515538   0.993072
  100        2.621565   0.728407
  101        2.702273   0.397931
  102        2.758973   0.186375
  103        2.849829  -0.003719
  104        2.900025  -0.033115
  105        3.183733  -0.001017
  106        3.237907  -0.000274
  107        3.371943  -0.000005
  108        3.529513  -0.000000
  109        3.542055  -0.000000
  110        3.585413  -0.000000
  111        3.610950  -0.000000
  112        3.681516  -0.000000
  113        3.746258  -0.000000
  114        3.772119  -0.000000
  115        3.795608  -0.000000
  116        3.863727  -0.000000
  117        3.878286  -0.000000
  118        3.904050  -0.000000
  119        3.954391  -0.000000
  120        3.974559  -0.000000
  121        3.994465  -0.000000
  122        4.096150  -0.000000
  123        4.123587  -0.000000
  124        4.143023  -0.000000
  125        4.190490  -0.000000
  126        4.215015  -0.000000
  127        4.268302  -0.000000
  128        4.323229  -0.000000
  129        4.443322  -0.000000
  130        4.546961  -0.000000
  131        4.685220  -0.000000
  132        4.800033  -0.000000

  0.1111111E+00  0.1111111E+00  0.1262379E-14  0.2469136E-01
    1      -11.348933   1.000000
    2      -10.800691   1.000000
    3      -10.064841   1.000000
    4       -9.336981   1.000000
    5       -8.714916   1.000000
    6       -8.695506   1.000000
    7       -8.602917   1.000000
    8       -8.564111   1.000000
    9       -8.468705   1.000000
   10       -8.285393   1.000000
   11       -8.242103   1.000000
   12       -7.989248   1.000000
   13       -7.795930   1.000000
   14       -7.624644   1.000000
   15       -7.468262   1.000000
   16       -7.393889   1.000000
   17       -7.340456   1.000000
   18       -6.922049   1.000000
   19       -6.907154   1.000000
   20       -6.769679   1.000000
   21       -6.438505   1.000000
   22       -6.229281   1.000000
   23       -6.154578   1.000000
   24       -6.020967   1.000000
   25       -5.919915   1.000000
   26       -5.842377   1.000000
   27       -5.805628   1.000000
   28       -5.631428   1.000000
   29       -5.541121   1.000000
   30       -5.436725   1.000000
   31       -5.109223   1.000000
   32       -4.705165   1.000000
   33       -4.333700   1.000000
   34       -4.243160   1.000000
   35       -4.144728   1.000000
   36       -4.093935   1.000000
   37       -3.937486   1.000000
   38       -3.598935   1.000000
   39       -3.360890   1.000000
   40       -3.304985   1.000000
   41       -3.187079   1.000000
   42       -3.155716   1.000000
   43       -3.134192   1.000000
   44       -2.849358   1.000000
   45       -2.670725   1.000000
   46       -2.643137   1.000000
   47       -2.526530   1.000000
   48       -2.465675   1.000000
   49       -2.383425   1.000000
   50       -2.230359   1.000000
   51       -2.180235   1.000000
   52       -2.104019   1.000000
   53       -2.009202   1.000000
   54       -1.886612   1.000000
   55       -1.875816   1.000000
   56       -1.836625   1.000000
   57       -1.817363   1.000000
   58       -1.794510   1.000000
   59       -1.733058   1.000000
   60       -1.654276   1.000000
   61       -1.584573   1.000000
   62       -1.446311   1.000000
   63       -1.419464   1.000000
   64       -1.391922   1.000000
   65       -1.321781   1.000000
   66       -1.239698   1.000000
   67       -1.203484   1.000000
   68       -1.143555   1.000000
   69       -1.095504   1.000000
   70       -0.938968   1.000000
   71       -0.855399   1.000000
   72       -0.761030   1.000000
   73       -0.713170   1.000000
   74       -0.680927   1.000000
   75       -0.652312   1.000000
   76       -0.428245   1.000000
   77       -0.277779   1.000000
   78       -0.224792   1.000000
   79       -0.154708   1.000000
   80        0.029485   1.000000
   81        0.047327   1.000000
   82        0.260379   1.000000
   83        0.300274   1.000000
   84        0.399589   1.000000
   85        0.525920   1.000000
   86        0.776502   1.000000
   87        0.841961   1.000000
   88        0.985934   1.000000
   89        1.155097   1.000000
   90        1.236965   1.000000
   91        1.292797   1.000000
   92        1.328998   1.000000
   93        1.356197   1.000000
   94        1.401080   1.000000
   95        1.526163   1.000000
   96        1.863049   1.000000
   97        2.009634   1.000012
   98        2.258673   1.005783