   48   48   85    1
  0.2461586E+02  0.8645320E-09  0.6085000E-09  0.2593596E-08  0.5000000E-15
   1.0000000000000000E-004
  CAR 
 Name                                    
    188    149    120

  0.3742002E-15  0.3742002E-15  0.3742002E-15  0.3367003E-02
    1      -14.125533   1.000000
    2      -12.700619   1.000000
    3      -12.642373   1.000000
    4      -12.091180   1.000000
    5      -11.577918   1.000000
    6      -11.330692   1.000000
    7      -11.325557   1.000000
    8      -11.265764   1.000000
    9      -11.114748   1.000000
   10      -10.858927   1.000000
   11      -10.857310   1.000000
   12      -10.381402   1.000000
   13      -10.286262   1.000000
   14      -10.279634   1.000000
   15       -9.885795   1.000000
   16       -9.884312   1.000000
   17       -9.095866   1.000000
   18       -8.999804   1.000000
   19       -8.990090   1.000000
   20       -8.697664   1.000000
   21       -8.682634   1.000000
   22       -8.322759   1.000000
   23       -8.319436   1.000000
   24       -8.233953   1.000000
   25       -8.126816   1.000000
   26       -8.125993   1.000000
   27       -7.483492   1.000000
   28       -7.178284   1.000000
   29       -6.734977   1.000000
   30       -6.724429   1.000000
   31       -6.622192   1.000000
   32       -6.316189   1.000000
   33       -6.203080   1.000000
   34       -5.808312   1.000000
   35       -5.760183   1.000000
   36       -5.701763   1.000000
   37       -5.689142   1.000000
   38       -5.567989   1.000000
   39       -5.401877   1.000000
   40       -5.311640   1.000000
   41       -5.295926   1.000000
   42       -5.251463   1.000000
   43       -5.059772   1.000000
   44       -5.036286   1.000000
   45       -4.985645   1.000000
   46       -4.920323   1.000000
   47       -4.814752   1.000000
   48       -4.756030   1.000000
   49       -4.730497   1.000000
   50       -4.724656   1.000000
   51       -4.598403   1.000000
   52       -4.567356   1.000000
   53       -4.543606   1.000000
   54       -4.360040   1.000000
   55       -4.249755   1.000000
   56       -4.247363   1.000000
   57       -4.190314   1.000000
   58       -4.176373   1.000000
   59       -4.009320   1.000000
   60       -3.795346   1.000000
   61       -3.638070   1.000000
   62       -3.601584   1.000000
   63       -3.592709   1.000000
   64       -3.558993   1.000000
   65       -3.512281   1.000000
   66       -3.449118   1.000000
   67       -3.438141   1.000000
   68       -3.405848   1.000000
   69       -3.306572   1.000000
   70       -3.230295   1.000000
   71       -2.876035   1.000000
   72       -2.839956   1.000000
   73       -2.672802   1.000000
   74       -2.582167   1.000000
   75       -2.500969   1.000000
   76       -2.459453   1.000000
   77       -2.417342   1.000000
   78       -2.339277   1.000000
   79       -2.278819   1.000000
   80       -2.163681   1.000000
   81       -1.937567   1.000000
   82       -1.728612   1.000000
   83       -1.361878   1.000000
   84       -1.332949   1.000000
   85       -1.290707   1.000000
   86       -1.179258   1.000000
   87       -1.110106   1.000000
   88       -1.058308   1.000000
   89       -0.554648   1.000000
   90       -0.526594   1.000000
   91       -0.404083   1.000273
   92       -0.189870   0.944344
   93       -0.138354   0.619522
   94       -0.089924   0.228858
   95        0.059822  -0.012981
   96        0.084358  -0.006032
   97        0.095383  -0.004058
   98        0.412658  -0.000000
   99        0.419898  -0.000000
  100        0.462282  -0.000000
  101        0.593143  -0.000000
  102        0.632196  -0.000000
  103        0.637233  -0.000000
  104        0.682559  -0.000000
  105        0.751756  -0.000000
  106        1.086665  -0.000000
  107        1.098228  -0.000000
  108        1.133920  -0.000000
  109        1.171369  -0.000000
  110        1.269789  -0.000000
  111        1.274850  -0.000000
  112        1.300224  -0.000000
  113        1.358471  -0.000000
  114        1.489698  -0.000000
  115        1.490188  -0.000000
  116        1.568686  -0.000000
  117        1.570007  -0.000000
  118        1.704639  -0.000000
  119        1.714440  -0.000000
  120        1.782267  -0.000000

  0.1111111E+00  0.3729374E-15  0.3860503E-15  0.6734007E-02
    1      -14.098583   1.000000
    2      -12.755652   1.000000
    3      -12.676329   1.000000
    4      -12.034036   1.000000
    5      -11.563778   1.000000
    6      -11.328403   1.000000
    7      -11.316320   1.000000
    8      -11.248283   1.000000
    9      -11.155912   1.000000
   10      -10.854015   1.000000
   11      -10.852835   1.000000
   12      -10.402849   1.000000
   13      -10.283478   1.000000
   14      -10.277613   1.000000
   15       -9.873413   1.000000
   16       -9.871815   1.000000
   17       -9.068021   1.000000
   18       -9.001485   1.000000
   19       -8.990732   1.000000
   20       -8.705049   1.000000
   21       -8.693840   1.000000
   22       -8.380007   1.000000
   23       -8.377169   1.000000
   24       -8.183325   1.000000
   25       -8.158212   1.000000
   26       -8.147376   1.000000
   27       -7.572233   1.000000
   28       -7.173001   1.000000
   29       -6.696042   1.000000
   30       -6.683954   1.000000
   31       -6.549678   1.000000
   32       -6.294012   1.000000
   33       -6.175957   1.000000
   34       -5.809284   1.000000
   35       -5.798555   1.000000
   36       -5.708684   1.000000
   37       -5.604408   1.000000
   38       -5.595419   1.000000
   39       -5.467840   1.000000
   40       -5.305862   1.000000
   41       -5.264461   1.000000
   42       -5.223337   1.000000
   43       -5.029801   1.000000
   44       -4.999262   1.000000
   45       -4.939364   1.000000
   46       -4.918833   1.000000
   47       -4.848067   1.000000
   48       -4.733964   1.000000
   49       -4.721952   1.000000
   50       -4.701772   1.000000
   51       -4.599576   1.000000
   52       -4.559291   1.000000
   53       -4.514397   1.000000
   54       -4.357321   1.000000
   55       -4.276373   1.000000
   56       -4.257327   1.000000
   57       -4.186999   1.000000
   58       -4.171037   1.000000
   59       -3.993194   1.000000
   60       -3.831589   1.000000
   61       -3.650645   1.000000
   62       -3.599954   1.000000
   63       -3.571985   1.000000
   64       -3.550634   1.000000
   65       -3.512480   1.000000
   66       -3.452523   1.000000
   67       -3.435569   1.000000
   68       -3.390491   1.000000
   69       -3.290016   1.000000
   70       -3.273284   1.000000
   71       -2.948790   1.000000
   72       -2.814017   1.000000
   73       -2.668995   1.000000
   74       -2.592330   1.000000
   75       -2.527897   1.000000
   76       -2.518977   1.000000
   77       -2.410394   1.000000
   78       -2.400147   1.000000
   79       -2.306166   1.000000
   80       -2.182901   1.000000
   81       -1.830910   1.000000
   82       -1.772078   1.000000
   83       -1.401662   1.000000
   84       -1.387553   1.000000
   85       -1.248942   1.000000
   86       -1.130924   1.000000
   87       -1.092635   1.000000
   88       -0.956608   1.000000
   89       -0.640730   1.000000
   90       -0.595831   1.000000
   91       -0.429946   1.000067
   92       -0.178335   0.892618
   93       -0.078863   0.157353
   94       -0.042320   0.005609
   95        0.023967  -0.028518
   96        0.069178  -0.009882
   97        0.080196  -0.006948
   98        0.399910  -0.000000
   99        0.443770  -0.000000
  100        0.453933  -0.000000
  101        0.622073  -0.000000
  102        0.644828  -0.000000
  103        0.663849  -0.000000
  104        0.705282  -0.000000
  105        0.793685  -0.000000
  106        1.084585  -0.000000
  107        1.095931  -0.000000
  108        1.115396  -0.000000
  109        1.206517  -0.000000
  110        1.264455  -0.000000
  111        1.290633  -0.000000
  112        1.339209  -0.000000
  113        1.385140  -0.000000
  114        1.494879  -0.000000
  115        1.516602  -0.000000
  116        1.554232  -0.000000
  117        1.566498  -0.000000
  118        1.709896  -0.000000
  119        1.716856  -0.000000
  120        1.781947  -0.000000

  0.2222222E+00  0.3922785E-15  0.3630220E-15  0.6734007E-02
    1      -14.018505   1.000000
    2      -12.989352   1.000000
    3      -12.604820   1.000000
    4      -11.982508   1.000000
    5      -11.524361   1.000000
    6      -11.328826   1.000000
    7      -11.297459   1.000000
    8      -11.226952   1.000000
    9      -11.190084   1.000000
   10      -10.839952   1.000000
   11      -10.839254   1.000000
   12      -10.483958   1.000000
   13      -10.281538   1.000000
   14      -10.277204   1.000000
   15       -9.833375   1.000000
   16       -9.831759   1.000000
   17       -9.012692   1.000000
   18       -9.002009   1.000000
   19       -8.950495   1.000000
   20       -8.737639   1.000000
   21       -8.735670   1.000000
   22       -8.502040   1.000000
   23       -8.500758   1.000000
   24       -8.245686   1.000000
   25       -8.244882   1.000000
   26       -8.003144   1.000000
   27       -7.785582   1.000000
   28       -7.107448   1.000000
   29       -6.643994   1.000000
   30       -6.617703   1.000000
   31       -6.382716   1.000000
   32       -6.334937   1.000000
   33       -6.099734   1.000000
   34       -5.954528   1.000000
   35       -5.743001   1.000000
   36       -5.705828   1.000000
   37       -5.538541   1.000000
   38       -5.467781   1.000000
   39       -5.435323   1.000000
   40       -5.272546   1.000000
   41       -5.236785   1.000000
   42       -5.142576   1.000000
   43       -5.129688   1.000000
   44       -5.010073   1.000000
   45       -4.917400   1.000000
   46       -4.830547   1.000000
   47       -4.815589   1.000000
   48       -4.707342   1.000000
   49       -4.682574   1.000000
   50       -4.659189   1.000000
   51       -4.553208   1.000000
   52       -4.550148   1.000000
   53       -4.448879   1.000000
   54       -4.363557   1.000000
   55       -4.295402   1.000000
   56       -4.287573   1.000000
   57       -4.161644   1.000000
   58       -4.144079   1.000000
   59       -3.970062   1.000000
   60       -3.916833   1.000000
   61       -3.694988   1.000000
   62       -3.630645   1.000000
   63       -3.568599   1.000000
   64       -3.518786   1.000000
   65       -3.516977   1.000000
   66       -3.453160   1.000000
   67       -3.420706   1.000000
   68       -3.375651   1.000000
   69       -3.347346   1.000000
   70       -3.185475   1.000000
   71       -3.083884   1.000000
   72       -2.755060   1.000000
   73       -2.712449   1.000000
   74       -2.687178   1.000000
   75       -2.629695   1.000000
   76       -2.602174   1.000000
   77       -2.529368   1.000000
   78       -2.393966   1.000000
   79       -2.389092   1.000000
   80       -2.142689   1.000000
   81       -1.907580   1.000000
   82       -1.598755   1.000000
   83       -1.496005   1.000000
   84       -1.474259   1.000000
   85       -1.171672   1.000000
   86       -1.031693   1.000000
   87       -1.025247   1.000000
   88       -0.832206   1.000000
   89       -0.732388   1.000000
   90       -0.717390   1.000000
   91       -0.516263   1.000000
   92       -0.242216   1.035152
   93       -0.047215   0.018441
   94       -0.002397  -0.035448
   95        0.013700  -0.032556
   96        0.067448  -0.010413
   97        0.245851  -0.000001
   98        0.373295  -0.000000
   99        0.408829  -0.000000
  100        0.413353  -0.000000
  101        0.693115  -0.000000
  102        0.703037  -0.000000
  103        0.738906  -0.000000
  104        0.754642  -0.000000
  105        0.873266  -0.000000
  106        1.030763  -0.000000
  107        1.136698  -0.000000
  108        1.137233  -0.000000
  109        1.244158  -0.000000
  110        1.291542  -0.000000
  111        1.302252  -0.000000
  112        1.401557  -0.000000
  113        1.431753  -0.000000
  114        1.480155  -0.000000
  115        1.533390  -0.000000
  116        1.574765  -0.000000
  117        1.635797  -0.000000
  118        1.704570  -0.000000
  119        1.722847  -0.000000
  120        1.779299  -0.000000

  0.3333333E+00  0.3713828E-15  0.3468587E-15  0.6734007E-02
    1      -13.887698   1.000000
    2      -13.247304   1.000000
    3      -12.490587   1.000000
    4      -12.039330   1.000000
    5      -11.468728   1.000000
    6      -11.343397   1.000000
    7      -11.279628   1.000000
    8      -11.256084   1.000000
    9      -11.088904   1.000000
   10      -10.820443   1.000000
   11      -10.820150   1.000000
   12      -10.623412   1.000000
   13      -10.288893   1.000000
   14      -10.286391   1.000000
   15       -9.767896   1.000000
   16       -9.766681   1.000000
   17       -9.006734   1.000000
   18       -9.004247   1.000000
   19       -8.817226   1.000000
   20       -8.810921   1.000000
   21       -8.790957   1.000000
   22       -8.603069   1.000000
   23       -8.595400   1.000000
   24       -8.348137   1.000000
   25       -8.343635   1.000000
   26       -8.047328   1.000000
   27       -7.757687   1.000000
   28       -6.946425   1.000000
   29       -6.721032   1.000000
   30       -6.576768   1.000000
   31       -6.574632   1.000000
   32       -6.169819   1.000000
   33       -6.050581   1.000000
   34       -5.971072   1.000000
   35       -5.623496   1.000000
   36       -5.603389   1.000000
   37       -5.432582   1.000000
   38       -5.417540   1.000000
   39       -5.350744   1.000000
   40       -5.320196   1.000000
   41       -5.207184   1.000000
   42       -5.172145   1.000000
   43       -5.108271   1.000000
   44       -4.978083   1.000000
   45       -4.908896   1.000000
   46       -4.823182   1.000000
   47       -4.788083   1.000000
   48       -4.661516   1.000000
   49       -4.645718   1.000000
   50       -4.615415   1.000000
   51       -4.518766   1.000000
   52       -4.482405   1.000000
   53       -4.404149   1.000000
   54       -4.343932   1.000000
   55       -4.322331   1.000000
   56       -4.225886   1.000000
   57       -4.130850   1.000000
   58       -4.082034   1.000000
   59       -4.068053   1.000000
   60       -3.887025   1.000000
   61       -3.799875   1.000000
   62       -3.647993   1.000000
   63       -3.638872   1.000000
   64       -3.572353   1.000000
   65       -3.500215   1.000000
   66       -3.497280   1.000000
   67       -3.398717   1.000000
   68       -3.374620   1.000000
   69       -3.237408   1.000000
   70       -3.133162   1.000000
   71       -3.070476   1.000000
   72       -2.902006   1.000000
   73       -2.892200   1.000000
   74       -2.725446   1.000000
   75       -2.722135   1.000000
   76       -2.622633   1.000000
   77       -2.602677   1.000000
   78       -2.477701   1.000000
   79       -2.426252   1.000000
   80       -2.077137   1.000000
   81       -1.977005   1.000000
   82       -1.654196   1.000000
   83       -1.583476   1.000000
   84       -1.313732   1.000000
   85       -1.075516   1.000000
   86       -1.011664   1.000000
   87       -0.951366   1.000000
   88       -0.934398   1.000000
   89       -0.872488   1.000000
   90       -0.604713   1.000000
   91       -0.443907   1.000030
   92       -0.404440   1.000268
   93       -0.024471  -0.024706
   94       -0.013230  -0.033028
   95        0.012817  -0.032848
   96        0.164627  -0.000173
   97        0.237074  -0.000002
   98        0.330417  -0.000000
   99        0.337768  -0.000000
  100        0.729233  -0.000000
  101        0.732108  -0.000000
  102        0.770088  -0.000000
  103        0.776796  -0.000000
  104        0.799028  -0.000000
  105        0.865280  -0.000000
  106        0.954955  -0.000000
  107        1.217912  -0.000000
  108        1.233952  -0.000000
  109        1.273604  -0.000000
  110        1.294003  -0.000000
  111        1.364065  -0.000000
  112        1.402230  -0.000000
  113        1.429106  -0.000000
  114        1.446834  -0.000000
  115        1.587122  -0.000000
  116        1.592910  -0.000000
  117        1.694589  -0.000000
  118        1.706298  -0.000000
  119        1.748568  -0.000000
  120        1.760563  -0.000000

  0.4444444E+00  0.3870091E-15  0.3932070E-15  0.6734007E-02
    1      -13.710444   1.000000
    2      -13.493490   1.000000
    3      -12.342870   1.000000
    4      -12.179988   1.000000
    5      -11.411407   1.000000
    6      -11.368166   1.000000
    7      -11.267313   1.000000
    8      -11.261309   1.000000
    9      -10.951857   1.000000
   10      -10.809682   1.000000
   11      -10.804700   1.000000
   12      -10.784884   1.000000
   13      -10.299321   1.000000
   14      -10.298565   1.000000
   15       -9.707591   1.000000
   16       -9.707094   1.000000
   17       -9.032449   1.000000
   18       -9.031927   1.000000
   19       -8.849672   1.000000
   20       -8.849020   1.000000
   21       -8.679966   1.000000
   22       -8.661145   1.000000
   23       -8.553698   1.000000
   24       -8.419736   1.000000
   25       -8.408003   1.000000
   26       -8.309294   1.000000
   27       -7.442938   1.000000
   28       -7.081732   1.000000
   29       -6.717772   1.000000
   30       -6.576916   1.000000
   31       -6.552544   1.000000
   32       -6.423827   1.000000
   33       -5.805897   1.000000
   34       -5.754897   1.000000
   35       -5.619452   1.000000
   36       -5.534510   1.000000
   37       -5.481194   1.000000
   38       -5.436947   1.000000
   39       -5.357094   1.000000
   40       -5.353988   1.000000
   41       -5.168951   1.000000
   42       -5.095669   1.000000
   43       -5.039682   1.000000
   44       -4.959007   1.000000
   45       -4.873507   1.000000
   46       -4.847750   1.000000
   47       -4.810051   1.000000
   48       -4.700336   1.000000
   49       -4.572157   1.000000
   50       -4.544194   1.000000
   51       -4.494759   1.000000
   52       -4.481453   1.000000
   53       -4.419757   1.000000
   54       -4.283558   1.000000
   55       -4.263867   1.000000
   56       -4.232204   1.000000
   57       -4.134922   1.000000
   58       -4.029064   1.000000
   59       -4.027771   1.000000
   60       -3.936364   1.000000
   61       -3.848582   1.000000
   62       -3.751308   1.000000
   63       -3.629242   1.000000
   64       -3.627522   1.000000
   65       -3.477631   1.000000
   66       -3.476981   1.000000
   67       -3.382790   1.000000
   68       -3.373328   1.000000
   69       -3.174814   1.000000
   70       -3.149444   1.000000
   71       -3.045769   1.000000
   72       -3.027627   1.000000
   73       -2.902574   1.000000
   74       -2.834610   1.000000
   75       -2.806926   1.000000
   76       -2.744447   1.000000
   77       -2.528118   1.000000
   78       -2.501403   1.000000
   79       -2.392260   1.000000
   80       -2.253973   1.000000
   81       -1.836648   1.000000
   82       -1.761458   1.000000
   83       -1.539074   1.000000
   84       -1.326680   1.000000
   85       -1.159562   1.000000
   86       -1.028574   1.000000
   87       -0.929498   1.000000
   88       -0.906815   1.000000
   89       -0.670549   1.000000
   90       -0.627311   1.000000
   91       -0.582544   1.000000
   92       -0.320661   1.008912
   93       -0.090618   0.233702
   94        0.014465  -0.032294
   95        0.025128  -0.028008
   96        0.145778  -0.000456
   97        0.259924  -0.000000
   98        0.262321  -0.000000
   99        0.479434  -0.000000
  100        0.652426  -0.000000
  101        0.767377  -0.000000
  102        0.771410  -0.000000
  103        0.804576  -0.000000
  104        0.824405  -0.000000
  105        1.060189  -0.000000
  106        1.104638  -0.000000
  107        1.170827  -0.000000
  108        1.286790  -0.000000
  109        1.306857  -0.000000
  110        1.382499  -0.000000
  111        1.384733  -0.000000
  112        1.421514  -0.000000
  113        1.433796  -0.000000
  114        1.463535  -0.000000
  115        1.466636  -0.000000
  116        1.569558  -0.000000
  117        1.576410  -0.000000
  118        1.661632  -0.000000
  119        1.688473  -0.000000
  120        1.719170  -0.000000

  0.3742002E-15  0.9090909E-01  0.3596334E-15  0.6734007E-02
    1      -14.092544   1.000000
    2      -12.671731   1.000000
    3      -12.647103   1.000000
    4      -12.059326   1.000000
    5      -11.565496   1.000000
    6      -11.512218   1.000000
    7      -11.450149   1.000000
    8      -11.253126   1.000000
    9      -11.118375   1.000000
   10      -10.846248   1.000000
   11      -10.825581   1.000000
   12      -10.368002   1.000000
   13      -10.242696   1.000000
   14      -10.233112   1.000000
   15       -9.873538   1.000000
   16       -9.870498   1.000000
   17       -9.141120   1.000000
   18       -9.081654   1.000000
   19       -9.043272   1.000000
   20       -8.737331   1.000000
   21       -8.704067   1.000000
   22       -8.188544   1.000000
   23       -8.162065   1.000000
   24       -8.096504   1.000000
   25       -8.011382   1.000000
   26       -8.009760   1.000000
   27       -7.537664   1.000000
   28       -7.146240   1.000000
   29       -6.762199   1.000000
   30       -6.707445   1.000000
   31       -6.588707   1.000000
   32       -6.309918   1.000000
   33       -6.224928   1.000000
   34       -5.877760   1.000000
   35       -5.779141   1.000000
   36       -5.641619   1.000000
   37       -5.615641   1.000000
   38       -5.579443   1.000000
   39       -5.438198   1.000000
   40       -5.368366   1.000000
   41       -5.328404   1.000000
   42       -5.247105   1.000000
   43       -5.206050   1.000000
   44       -5.052368   1.000000
   45       -4.976200   1.000000
   46       -4.973031   1.000000
   47       -4.858826   1.000000
   48       -4.757435   1.000000
   49       -4.750358   1.000000
   50       -4.713753   1.000000
   51       -4.630429   1.000000
   52       -4.568858   1.000000
   53       -4.551533   1.000000
   54       -4.431557   1.000000
   55       -4.291873   1.000000
   56       -4.201839   1.000000
   57       -4.176579   1.000000
   58       -4.103645   1.000000
   59       -4.058521   1.000000
   60       -3.774510   1.000000
   61       -3.664265   1.000000
   62       -3.638009   1.000000
   63       -3.610589   1.000000
   64       -3.538966   1.000000
   65       -3.524930   1.000000
   66       -3.434824   1.000000
   67       -3.427725   1.000000
   68       -3.379816   1.000000
   69       -3.285801   1.000000
   70       -3.232747   1.000000
   71       -3.028667   1.000000
   72       -2.832821   1.000000
   73       -2.571210   1.000000
   74       -2.561711   1.000000
   75       -2.523984   1.000000
   76       -2.480691   1.000000
   77       -2.428536   1.000000
   78       -2.347456   1.000000
   79       -2.237010   1.000000
   80       -2.174739   1.000000
   81       -1.954404   1.000000
   82       -1.659661   1.000000
   83       -1.414283   1.000000
   84       -1.376357   1.000000
   85       -1.336391   1.000000
   86       -1.175046   1.000000
   87       -1.151216   1.000000
   88       -1.115563   1.000000
   89       -0.650604   1.000000
   90       -0.506643   1.000000
   91       -0.422474   1.000102
   92       -0.246750   1.035457
   93       -0.242219   1.035152
   94       -0.162924   0.802907
   95        0.030751  -0.025461
   96        0.072719  -0.008856
   97        0.108125  -0.002472
   98        0.292877  -0.000000
   99        0.299937  -0.000000
  100        0.437109  -0.000000
  101        0.687865  -0.000000
  102        0.694936  -0.000000
  103        0.727825  -0.000000
  104        0.812549  -0.000000
  105        0.901175  -0.000000
  106        1.003900  -0.000000
  107        1.037641  -0.000000
  108        1.157976  -0.000000
  109        1.177285  -0.000000
  110        1.255867  -0.000000
  111        1.275772  -0.000000
  112        1.342406  -0.000000
  113        1.386616  -0.000000
  114        1.506222  -0.000000
  115        1.511530  -0.000000
  116        1.570813  -0.000000
  117        1.572584  -0.000000
  118        1.669217  -0.000000
  119        1.698940  -0.000000
  120        1.819182  -0.000000

  0.1111111E+00  0.9090909E-01  0.4822234E-15  0.6734007E-02
    1      -14.043827   1.000000
    2      -12.824771   1.000000
    3      -12.627861   1.000000
    4      -11.986086   1.000000
    5      -11.557833   1.000000
    6      -11.537184   1.000000
    7      -11.397581   1.000000
    8      -11.213407   1.000000
    9      -11.186576   1.000000
   10      -10.851307   1.000000
   11      -10.761061   1.000000
   12      -10.410811   1.000000
   13      -10.298208   1.000000
   14      -10.250542   1.000000
   15       -9.830998   1.000000
   16       -9.814458   1.000000
   17       -9.174026   1.000000
   18       -9.050921   1.000000
   19       -8.997659   1.000000
   20       -8.813368   1.000000
   21       -8.721799   1.000000
   22       -8.315167   1.000000
   23       -8.134514   1.000000
   24       -8.090465   1.000000
   25       -8.037510   1.000000
   26       -8.024167   1.000000
   27       -7.673462   1.000000
   28       -7.124993   1.000000
   29       -6.782787   1.000000
   30       -6.593022   1.000000
   31       -6.443723   1.000000
   32       -6.284398   1.000000
   33       -6.219306   1.000000
   34       -5.956624   1.000000
   35       -5.749529   1.000000
   36       -5.638957   1.000000
   37       -5.558576   1.000000
   38       -5.538852   1.000000
   39       -5.511629   1.000000
   40       -5.314488   1.000000
   41       -5.289127   1.000000
   42       -5.261816   1.000000
   43       -5.198874   1.000000
   44       -5.002498   1.000000
   45       -4.970455   1.000000
   46       -4.858433   1.000000
   47       -4.848858   1.000000
   48       -4.722922   1.000000
   49       -4.711452   1.000000
   50       -4.688399   1.000000
   51       -4.637431   1.000000
   52       -4.600495   1.000000
   53       -4.513643   1.000000
   54       -4.433998   1.000000
   55       -4.308997   1.000000
   56       -4.212463   1.000000
   57       -4.172226   1.000000
   58       -4.107197   1.000000
   59       -4.023340   1.000000
   60       -3.820698   1.000000
   61       -3.695634   1.000000
   62       -3.662112   1.000000
   63       -3.611044   1.000000
   64       -3.542398   1.000000
   65       -3.522857   1.000000
   66       -3.413475   1.000000
   67       -3.412535   1.000000
   68       -3.372996   1.000000
   69       -3.279776   1.000000
   70       -3.250391   1.000000
   71       -3.090772   1.000000
   72       -2.792537   1.000000
   73       -2.654096   1.000000
   74       -2.609398   1.000000
   75       -2.588276   1.000000
   76       -2.548714   1.000000
   77       -2.436861   1.000000
   78       -2.410970   1.000000
   79       -2.234312   1.000000
   80       -2.186974   1.000000
   81       -1.943719   1.000000
   82       -1.627959   1.000000
   83       -1.528268   1.000000
   84       -1.463817   1.000000
   85       -1.291793   1.000000
   86       -1.125993   1.000000
   87       -0.994263   1.000000
   88       -0.947236   1.000000
   89       -0.737575   1.000000
   90       -0.641192   1.000000
   91       -0.423645   1.000096
   92       -0.251094   1.035158
   93       -0.211611   1.006905
   94       -0.015771  -0.031734
   95       -0.007037  -0.034967
   96        0.064147  -0.011479
   97        0.078115  -0.007445
   98        0.225091  -0.000005
   99        0.261289  -0.000000
  100        0.602759  -0.000000
  101        0.664730  -0.000000
  102        0.701134  -0.000000
  103        0.771032  -0.000000
  104        0.873831  -0.000000
  105        0.878741  -0.000000
  106        0.982490  -0.000000
  107        1.112251  -0.000000
  108        1.125022  -0.000000
  109        1.204784  -0.000000
  110        1.214756  -0.000000
  111        1.322590  -0.000000
  112        1.377983  -0.000000
  113        1.435927  -0.000000
  114        1.472444  -0.000000
  115        1.558478  -0.000000
  116        1.563264  -0.000000
  117        1.591018  -0.000000
  118        1.650104  -0.000000
  119        1.746902  -0.000000
  120        1.829867  -0.000000

  0.2222222E+00  0.9090909E-01  0.3065600E-15  0.6734007E-02
    1      -13.943027   1.000000
    2      -13.072484   1.000000
    3      -12.538642   1.000000
    4      -11.976273   1.000000
    5      -11.592503   1.000000
    6      -11.489929   1.000000
    7      -11.345555   1.000000
    8      -11.262945   1.000000
    9      -11.133058   1.000000
   10      -10.819794   1.000000
   11      -10.673435   1.000000
   12      -10.518005   1.000000
   13      -10.384665   1.000000
   14      -10.291143   1.000000
   15       -9.750876   1.000000
   16       -9.712243   1.000000
   17       -9.188469   1.000000
   18       -9.111008   1.000000
   19       -8.899443   1.000000
   20       -8.831092   1.000000
   21       -8.800599   1.000000
   22       -8.473164   1.000000
   23       -8.243227   1.000000
   24       -8.109648   1.000000
   25       -8.072537   1.000000
   26       -7.893330   1.000000
   27       -7.877071   1.000000
   28       -7.023169   1.000000
   29       -6.794452   1.000000
   30       -6.494168   1.000000
   31       -6.465054   1.000000
   32       -6.194960   1.000000
   33       -6.188991   1.000000
   34       -6.008129   1.000000
   35       -5.760003   1.000000
   36       -5.536769   1.000000
   37       -5.525498   1.000000
   38       -5.451166   1.000000
   39       -5.433873   1.000000
   40       -5.344122   1.000000
   41       -5.272197   1.000000
   42       -5.181334   1.000000
   43       -5.169674   1.000000
   44       -4.989760   1.000000
   45       -4.944910   1.000000
   46       -4.829140   1.000000
   47       -4.821179   1.000000
   48       -4.737200   1.000000