   73   73    1    1
  0.2139262E+02  0.1053953E-08  0.6141200E-09  0.2412750E-08  0.5000000E-15
   1.0000000000000000E-004
  CAR 
 Name                                    
    283     23    184

  0.3742002E-15  0.3742002E-15  0.1262379E-14  0.2222222E-01
    1      -13.988940   1.000000
    2      -12.855370   1.000000
    3      -12.797523   1.000000
    4      -12.744855   1.000000
    5      -11.831093   1.000000
    6      -11.664625   1.000000
    7      -11.644589   1.000000
    8      -11.609064   1.000000
    9      -11.435847   1.000000
   10      -11.275946   1.000000
   11      -11.164050   1.000000
   12      -11.077501   1.000000
   13      -11.064496   1.000000
   14      -10.737433   1.000000
   15      -10.495685   1.000000
   16      -10.234455   1.000000
   17      -10.161876   1.000000
   18      -10.146901   1.000000
   19       -9.791493   1.000000
   20       -9.680526   1.000000
   21       -9.649073   1.000000
   22       -9.597863   1.000000
   23       -9.444637   1.000000
   24       -9.305778   1.000000
   25       -8.901465   1.000000
   26       -8.873895   1.000000
   27       -8.606528   1.000000
   28       -8.487581   1.000000
   29       -8.383426   1.000000
   30       -8.242509   1.000000
   31       -8.169447   1.000000
   32       -7.885564   1.000000
   33       -7.707730   1.000000
   34       -7.356928   1.000000
   35       -7.261510   1.000000
   36       -7.201509   1.000000
   37       -7.071199   1.000000
   38       -7.012767   1.000000
   39       -6.953539   1.000000
   40       -6.764809   1.000000
   41       -6.749586   1.000000
   42       -6.706978   1.000000
   43       -6.618154   1.000000
   44       -6.551118   1.000000
   45       -6.462669   1.000000
   46       -6.453140   1.000000
   47       -6.376407   1.000000
   48       -6.232215   1.000000
   49       -6.114856   1.000000
   50       -6.100048   1.000000
   51       -5.829404   1.000000
   52       -5.813610   1.000000
   53       -5.752492   1.000000
   54       -5.684896   1.000000
   55       -5.621322   1.000000
   56       -5.549302   1.000000
   57       -5.471330   1.000000
   58       -5.372066   1.000000
   59       -5.361405   1.000000
   60       -5.249073   1.000000
   61       -5.200627   1.000000
   62       -4.978275   1.000000
   63       -4.903274   1.000000
   64       -4.777324   1.000000
   65       -4.718093   1.000000
   66       -4.681507   1.000000
   67       -4.646233   1.000000
   68       -4.631505   1.000000
   69       -4.467377   1.000000
   70       -4.406796   1.000000
   71       -4.364904   1.000000
   72       -4.241198   1.000000
   73       -4.219446   1.000000
   74       -4.177607   1.000000
   75       -4.157203   1.000000
   76       -4.133911   1.000000
   77       -4.064800   1.000000
   78       -3.962374   1.000000
   79       -3.943764   1.000000
   80       -3.933410   1.000000
   81       -3.899829   1.000000
   82       -3.873868   1.000000
   83       -3.847014   1.000000
   84       -3.793470   1.000000
   85       -3.778368   1.000000
   86       -3.672585   1.000000
   87       -3.632809   1.000000
   88       -3.591148   1.000000
   89       -3.536913   1.000000
   90       -3.503221   1.000000
   91       -3.486467   1.000000
   92       -3.339178   1.000000
   93       -3.232125   1.000000
   94       -3.117843   1.000000
   95       -3.101944   1.000000
   96       -2.972132   1.000000
   97       -2.825278   1.000000
   98       -2.813488   1.000000
   99       -2.759313   1.000000
  100       -2.671494   1.000000
  101       -2.567822   1.000000
  102       -2.519652   1.000000
  103       -2.382705   1.000000
  104       -2.372331   1.000000
  105       -2.359185   1.000000
  106       -2.308755   1.000000
  107       -2.181353   1.000000
  108       -2.132744   1.000000
  109       -2.064136   1.000000
  110       -1.987997   1.000000
  111       -1.961250   1.000000
  112       -1.908949   1.000000
  113       -1.843304   1.000000
  114       -1.820198   1.000000
  115       -1.774256   1.000000
  116       -1.767801   1.000000
  117       -1.712657   1.000000
  118       -1.670853   1.000000
  119       -1.640770   1.000000
  120       -1.578176   1.000000
  121       -1.183918   1.000000
  122       -1.021296   1.000000
  123       -1.015788   1.000000
  124       -0.961120   1.000000
  125       -0.764084   1.000000
  126       -0.698368   1.000000
  127       -0.677594   1.000000
  128       -0.528522   1.000000
  129       -0.405359   1.000000
  130       -0.328725   1.000000
  131       -0.207357   1.000000
  132       -0.190543   1.000000
  133       -0.097633   1.000000
  134       -0.017480   1.000000
  135        0.193076   1.000737
  136        0.206760   1.001371
  137        0.296180   1.024563
  138        0.307663   1.029694
  139        0.345246   1.031382
  140        0.372301   0.991675
  141        0.417178   0.782285
  142        0.479825   0.281378
  143        0.556886  -0.028749
  144        0.588499  -0.033265
  145        0.597518  -0.029988
  146        0.644858  -0.010290
  147        0.649625  -0.008886
  148        0.741044  -0.000179
  149        0.792042  -0.000009
  150        0.824746  -0.000001
  151        1.038946  -0.000000
  152        1.113060  -0.000000
  153        1.146137  -0.000000
  154        1.168559  -0.000000
  155        1.248940  -0.000000
  156        1.273903  -0.000000
  157        1.322448  -0.000000
  158        1.338993  -0.000000
  159        1.396616  -0.000000
  160        1.430462  -0.000000
  161        1.441118  -0.000000
  162        1.445556  -0.000000
  163        1.512726  -0.000000
  164        1.582957  -0.000000
  165        1.661023  -0.000000
  166        1.711896  -0.000000
  167        1.719807  -0.000000
  168        1.731961  -0.000000
  169        1.740535  -0.000000
  170        1.782016  -0.000000
  171        1.786707  -0.000000
  172        1.803686  -0.000000
  173        1.870191  -0.000000
  174        1.928728  -0.000000
  175        2.019813  -0.000000
  176        2.088451  -0.000000
  177        2.192432  -0.000000
  178        2.355467  -0.000000
  179        2.369412  -0.000000
  180        2.507918  -0.000000
  181        2.571480  -0.000000
  182        2.665881  -0.000000
  183        2.950200  -0.000000
  184        3.483122   0.000000

  0.2000000E+00  0.3742002E-15  0.1262379E-14  0.4444444E-01
    1      -13.940365   1.000000
    2      -13.233229   1.000000
    3      -12.701293   1.000000
    4      -12.345795   1.000000
    5      -12.038654   1.000000
    6      -11.820457   1.000000
    7      -11.662080   1.000000
    8      -11.363518   1.000000
    9      -11.274009   1.000000
   10      -11.202428   1.000000
   11      -11.134889   1.000000
   12      -11.114775   1.000000
   13      -10.972304   1.000000
   14      -10.804922   1.000000
   15      -10.602386   1.000000
   16      -10.563135   1.000000
   17      -10.524779   1.000000
   18       -9.838779   1.000000
   19       -9.746129   1.000000
   20       -9.651239   1.000000
   21       -9.564031   1.000000
   22       -9.495553   1.000000
   23       -9.428198   1.000000
   24       -9.399531   1.000000
   25       -9.081254   1.000000
   26       -8.836827   1.000000
   27       -8.402767   1.000000
   28       -8.357418   1.000000
   29       -8.235229   1.000000
   30       -8.146321   1.000000
   31       -8.129483   1.000000
   32       -8.097581   1.000000
   33       -7.605308   1.000000
   34       -7.518429   1.000000
   35       -7.367236   1.000000
   36       -7.293001   1.000000
   37       -7.199644   1.000000
   38       -7.134973   1.000000
   39       -7.039569   1.000000
   40       -6.842516   1.000000
   41       -6.719869   1.000000
   42       -6.675282   1.000000
   43       -6.643373   1.000000
   44       -6.544182   1.000000
   45       -6.497564   1.000000
   46       -6.370060   1.000000
   47       -6.206475   1.000000
   48       -6.181683   1.000000
   49       -6.086087   1.000000
   50       -6.026571   1.000000
   51       -5.913096   1.000000
   52       -5.762591   1.000000
   53       -5.678140   1.000000
   54       -5.642676   1.000000
   55       -5.551984   1.000000
   56       -5.492624   1.000000
   57       -5.432987   1.000000
   58       -5.370088   1.000000
   59       -5.358166   1.000000
   60       -5.257456   1.000000
   61       -5.195064   1.000000
   62       -5.118860   1.000000
   63       -4.877462   1.000000
   64       -4.841876   1.000000
   65       -4.746022   1.000000
   66       -4.736411   1.000000
   67       -4.663922   1.000000
   68       -4.590801   1.000000
   69       -4.504183   1.000000
   70       -4.355151   1.000000
   71       -4.323832   1.000000
   72       -4.214751   1.000000
   73       -4.209413   1.000000
   74       -4.200130   1.000000
   75       -4.170588   1.000000
   76       -4.098298   1.000000
   77       -4.074588   1.000000
   78       -3.957251   1.000000
   79       -3.943954   1.000000
   80       -3.934691   1.000000
   81       -3.921308   1.000000
   82       -3.905277   1.000000
   83       -3.864515   1.000000
   84       -3.752493   1.000000
   85       -3.693771   1.000000
   86       -3.645239   1.000000
   87       -3.587793   1.000000
   88       -3.564780   1.000000
   89       -3.551451   1.000000
   90       -3.519006   1.000000
   91       -3.516961   1.000000
   92       -3.497245   1.000000
   93       -3.204980   1.000000
   94       -3.183486   1.000000
   95       -3.161808   1.000000
   96       -2.957450   1.000000
   97       -2.938500   1.000000
   98       -2.847687   1.000000
   99       -2.767491   1.000000
  100       -2.734280   1.000000
  101       -2.708206   1.000000
  102       -2.380966   1.000000
  103       -2.317507   1.000000
  104       -2.271499   1.000000
  105       -2.260613   1.000000
  106       -2.224503   1.000000
  107       -2.208267   1.000000
  108       -2.146252   1.000000
  109       -2.035476   1.000000
  110       -1.992390   1.000000
  111       -1.985346   1.000000
  112       -1.899304   1.000000
  113       -1.833537   1.000000
  114       -1.741563   1.000000
  115       -1.727286   1.000000
  116       -1.714928   1.000000
  117       -1.675962   1.000000
  118       -1.617324   1.000000
  119       -1.571007   1.000000
  120       -1.481520   1.000000
  121       -1.176567   1.000000
  122       -1.111112   1.000000
  123       -1.049193   1.000000
  124       -0.982375   1.000000
  125       -0.866742   1.000000
  126       -0.777306   1.000000
  127       -0.682332   1.000000
  128       -0.558389   1.000000
  129       -0.543898   1.000000
  130       -0.425519   1.000000
  131       -0.358812   1.000000
  132       -0.279275   1.000000
  133       -0.191437   1.000000
  134       -0.088451   1.000000
  135        0.048952   1.000000
  136        0.133359   1.000030
  137        0.308058   1.029859
  138        0.345816   1.031031
  139        0.368673   1.000183
  140        0.420486   0.759304
  141        0.502061   0.134795
  142        0.573589  -0.035405
  143        0.589470  -0.032963
  144        0.630326  -0.015458
  145        0.653797  -0.007777
  146        0.689997  -0.002025
  147        0.700542  -0.001288
  148        0.722570  -0.000461
  149        0.746349  -0.000134
  150        0.860648  -0.000000
  151        1.081489  -0.000000
  152        1.160857  -0.000000
  153        1.189676  -0.000000
  154        1.275378  -0.000000
  155        1.285441  -0.000000
  156        1.294602  -0.000000
  157        1.306460  -0.000000
  158        1.338725  -0.000000
  159        1.439620  -0.000000
  160        1.470473  -0.000000
  161        1.484391  -0.000000
  162        1.511140  -0.000000
  163        1.556761  -0.000000
  164        1.594481  -0.000000
  165        1.636932  -0.000000
  166        1.682768  -0.000000
  167        1.703589  -0.000000
  168        1.720156  -0.000000
  169        1.751940  -0.000000
  170        1.773143  -0.000000
  171        1.849862  -0.000000
  172        1.884428  -0.000000
  173        1.932400  -0.000000
  174        2.022367  -0.000000
  175        2.067635  -0.000000
  176        2.114410  -0.000000
  177        2.144787  -0.000000
  178        2.295616  -0.000000
  179        2.514343  -0.000000
  180        2.538730  -0.000000
  181        2.631362  -0.000000
  182        2.816965  -0.000000
  183        3.165498  -0.000000
  184        3.930885   0.000000

  0.4000000E+00  0.3742002E-15  0.1262379E-14  0.4444444E-01
    1      -13.795754   1.000000
    2      -13.558162   1.000000
    3      -12.567292   1.000000
    4      -12.343771   1.000000
    5      -11.805346   1.000000
    6      -11.788476   1.000000
    7      -11.734521   1.000000
    8      -11.277278   1.000000
    9      -11.267387   1.000000
   10      -11.215542   1.000000
   11      -11.103999   1.000000
   12      -11.013261   1.000000
   13      -10.955803   1.000000
   14      -10.843579   1.000000
   15      -10.808471   1.000000
   16      -10.689613   1.000000
   17      -10.665000   1.000000
   18      -10.103542   1.000000
   19       -9.779804   1.000000
   20       -9.655365   1.000000
   21       -9.502640   1.000000
   22       -9.423272   1.000000
   23       -9.342442   1.000000
   24       -9.263281   1.000000
   25       -9.052705   1.000000
   26       -8.817033   1.000000
   27       -8.371048   1.000000
   28       -8.232303   1.000000
   29       -8.022193   1.000000
   30       -7.916229   1.000000
   31       -7.903162   1.000000
   32       -7.892283   1.000000
   33       -7.837895   1.000000
   34       -7.743481   1.000000
   35       -7.617423   1.000000
   36       -7.602553   1.000000
   37       -7.458439   1.000000
   38       -7.270277   1.000000
   39       -7.185840   1.000000
   40       -6.911137   1.000000
   41       -6.736729   1.000000
   42       -6.573399   1.000000
   43       -6.538042   1.000000
   44       -6.485551   1.000000
   45       -6.352563   1.000000
   46       -6.294586   1.000000
   47       -6.181076   1.000000
   48       -6.110955   1.000000
   49       -6.028093   1.000000
   50       -5.979147   1.000000
   51       -5.910256   1.000000
   52       -5.835424   1.000000
   53       -5.739577   1.000000
   54       -5.668284   1.000000
   55       -5.534380   1.000000
   56       -5.462841   1.000000
   57       -5.395592   1.000000
   58       -5.340291   1.000000
   59       -5.269243   1.000000
   60       -5.153577   1.000000
   61       -5.108477   1.000000
   62       -5.032352   1.000000
   63       -4.907173   1.000000
   64       -4.869272   1.000000
   65       -4.784287   1.000000
   66       -4.740393   1.000000
   67       -4.681004   1.000000
   68       -4.613267   1.000000
   69       -4.543317   1.000000
   70       -4.431887   1.000000
   71       -4.377806   1.000000
   72       -4.279973   1.000000
   73       -4.256696   1.000000
   74       -4.184371   1.000000
   75       -4.162099   1.000000
   76       -4.143041   1.000000
   77       -4.115325   1.000000
   78       -3.939795   1.000000
   79       -3.912605   1.000000
   80       -3.863598   1.000000
   81       -3.861357   1.000000
   82       -3.834714   1.000000
   83       -3.814767   1.000000
   84       -3.747397   1.000000
   85       -3.724363   1.000000
   86       -3.655012   1.000000
   87       -3.624181   1.000000
   88       -3.581742   1.000000
   89       -3.550465   1.000000
   90       -3.452760   1.000000
   91       -3.434395   1.000000
   92       -3.412789   1.000000
   93       -3.308435   1.000000
   94       -3.275432   1.000000
   95       -3.204098   1.000000
   96       -3.181904   1.000000
   97       -3.085448   1.000000
   98       -2.980059   1.000000
   99       -2.887146   1.000000
  100       -2.760215   1.000000
  101       -2.498730   1.000000
  102       -2.382533   1.000000
  103       -2.360691   1.000000
  104       -2.332729   1.000000
  105       -2.253338   1.000000
  106       -2.053541   1.000000
  107       -2.045346   1.000000
  108       -2.041593   1.000000
  109       -2.032964   1.000000
  110       -1.912584   1.000000
  111       -1.891998   1.000000
  112       -1.863688   1.000000
  113       -1.772155   1.000000
  114       -1.731081   1.000000
  115       -1.660354   1.000000
  116       -1.598718   1.000000
  117       -1.527348   1.000000
  118       -1.457753   1.000000
  119       -1.386650   1.000000
  120       -1.366509   1.000000
  121       -1.207243   1.000000
  122       -1.177117   1.000000
  123       -1.153550   1.000000
  124       -1.104686   1.000000
  125       -1.082505   1.000000
  126       -0.864402   1.000000
  127       -0.852213   1.000000
  128       -0.808724   1.000000
  129       -0.666940   1.000000
  130       -0.642043   1.000000
  131       -0.527818   1.000000
  132       -0.406136   1.000000
  133       -0.191100   1.000000
  134       -0.154267   1.000000
  135       -0.008819   1.000000
  136        0.232278   1.003877
  137        0.265452   1.011722
  138        0.280919   1.017674
  139        0.357444   1.019806
  140        0.408226   0.839729
  141        0.454773   0.484532
  142        0.508376   0.101539
  143        0.573622  -0.035407
  144        0.660843  -0.006143
  145        0.676313  -0.003499
  146        0.714623  -0.000676
  147        0.769819  -0.000035
  148        0.916047  -0.000000
  149        0.945223  -0.000000
  150        0.968038  -0.000000
  151        1.081557  -0.000000
  152        1.198354  -0.000000
  153        1.219557  -0.000000
  154        1.283851  -0.000000
  155        1.331701  -0.000000
  156        1.389852  -0.000000
  157        1.403948  -0.000000
  158        1.457374  -0.000000
  159        1.515056  -0.000000
  160        1.546738  -0.000000
  161        1.565395  -0.000000
  162        1.584761  -0.000000
  163        1.613651  -0.000000
  164        1.630720  -0.000000
  165        1.651299  -0.000000
  166        1.664876  -0.000000
  167        1.704866  -0.000000
  168        1.751236  -0.000000
  169        1.780849  -0.000000
  170        1.789654  -0.000000
  171        1.824636  -0.000000
  172        1.849841  -0.000000
  173        1.889600  -0.000000
  174        1.949989  -0.000000
  175        1.988065  -0.000000
  176        2.016864  -0.000000
  177        2.054916  -0.000000
  178        2.083167  -0.000000
  179        2.125085  -0.000000
  180        2.401498  -0.000000
  181        2.615109  -0.000000
  182        2.817085  -0.000000
  183        2.833461  -0.000000
  184        3.060644  -0.000000

  0.3742002E-15  0.1111111E+00  0.1262379E-14  0.4444444E-01
    1      -13.942146   1.000000
    2      -12.815838   1.000000
    3      -12.764373   1.000000
    4      -12.705582   1.000000
    5      -11.934630   1.000000
    6      -11.648909   1.000000
    7      -11.633952   1.000000
    8      -11.616712   1.000000
    9      -11.474493   1.000000
   10      -11.321052   1.000000
   11      -11.143451   1.000000
   12      -11.077461   1.000000
   13      -11.073982   1.000000
   14      -10.708630   1.000000
   15      -10.516242   1.000000
   16      -10.213913   1.000000
   17      -10.142753   1.000000
   18      -10.108508   1.000000
   19       -9.772178   1.000000
   20       -9.716298   1.000000
   21       -9.662179   1.000000
   22       -9.619184   1.000000
   23       -9.458761   1.000000
   24       -9.290539   1.000000
   25       -8.923235   1.000000
   26       -8.850133   1.000000
   27       -8.605475   1.000000
   28       -8.488077   1.000000
   29       -8.366256   1.000000
   30       -8.275758   1.000000
   31       -7.997938   1.000000
   32       -7.903018   1.000000
   33       -7.812469   1.000000
   34       -7.417281   1.000000
   35       -7.366685   1.000000
   36       -7.257925   1.000000
   37       -7.041307   1.000000
   38       -6.995308   1.000000
   39       -6.935254   1.000000
   40       -6.724794   1.000000
   41       -6.704562   1.000000
   42       -6.660239   1.000000
   43       -6.621891   1.000000
   44       -6.556182   1.000000
   45       -6.452574   1.000000
   46       -6.434717   1.000000
   47       -6.391152   1.000000
   48       -6.227297   1.000000
   49       -6.154827   1.000000
   50       -6.044556   1.000000
   51       -5.884408   1.000000
   52       -5.795906   1.000000
   53       -5.676289   1.000000
   54       -5.649342   1.000000
   55       -5.614865   1.000000
   56       -5.552458   1.000000
   57       -5.447971   1.000000
   58       -5.336139   1.000000
   59       -5.291277   1.000000
   60       -5.230318   1.000000
   61       -5.186080   1.000000
   62       -4.977490   1.000000
   63       -4.861701   1.000000
   64       -4.782509   1.000000
   65       -4.725117   1.000000
   66       -4.666993   1.000000
   67       -4.636809   1.000000
   68       -4.576505   1.000000
   69       -4.509319   1.000000
   70       -4.396172   1.000000
   71       -4.336256   1.000000
   72       -4.278185   1.000000
   73       -4.261220   1.000000
   74       -4.180162   1.000000
   75       -4.173057   1.000000
   76       -4.155131   1.000000
   77       -4.066578   1.000000
   78       -4.053804   1.000000
   79       -4.045636   1.000000
   80       -4.042870   1.000000
   81       -3.951944   1.000000
   82       -3.947185   1.000000
   83       -3.808628   1.000000
   84       -3.759873   1.000000
   85       -3.743160   1.000000
   86       -3.716570   1.000000
   87       -3.680157   1.000000
   88       -3.639535   1.000000
   89       -3.518872   1.000000
   90       -3.506483   1.000000
   91       -3.469974   1.000000
   92       -3.460635   1.000000
   93       -3.272679   1.000000
   94       -3.036297   1.000000
   95       -2.921394   1.000000
   96       -2.911810   1.000000
   97       -2.838596   1.000000
   98       -2.792733   1.000000
   99       -2.773707   1.000000
  100       -2.647005   1.000000
  101       -2.574746   1.000000
  102       -2.540355   1.000000
  103       -2.497689   1.000000
  104       -2.428912   1.000000
  105       -2.318157   1.000000
  106       -2.255032   1.000000
  107       -2.231655   1.000000
  108       -2.198290   1.000000
  109       -2.108299   1.000000
  110       -2.052439   1.000000
  111       -2.027438   1.000000
  112       -1.964470   1.000000
  113       -1.886098   1.000000
  114       -1.824122   1.000000
  115       -1.730262   1.000000
  116       -1.715933   1.000000
  117       -1.687622   1.000000
  118       -1.655465   1.000000
  119       -1.548071   1.000000
  120       -1.510916   1.000000
  121       -1.180284   1.000000
  122       -1.105208   1.000000
  123       -0.964955   1.000000
  124       -0.876353   1.000000
  125       -0.806884   1.000000
  126       -0.709390   1.000000
  127       -0.679818   1.000000
  128       -0.594945   1.000000
  129       -0.567657   1.000000
  130       -0.306954   1.000000
  131       -0.277887   1.000000
  132       -0.190969   1.000000
  133       -0.001988   1.000000
  134        0.041282   1.000000
  135        0.132745   1.000029
  136        0.211679   1.001695
  137        0.248609   1.006932
  138        0.282931   1.018541
  139        0.299345   1.026022
  140        0.322737   1.034630
  141        0.332978   1.035358
  142        0.389880   0.933294
  143        0.551380  -0.023427
  144        0.566545  -0.034093
  145        0.581761  -0.034890
  146        0.701057  -0.001259
  147        0.760174  -0.000062
  148        0.801652  -0.000005
  149        0.953277  -0.000000
  150        0.985600  -0.000000
  151        1.075007  -0.000000
  152        1.095081  -0.000000
  153        1.104940  -0.000000
  154        1.222787  -0.000000
  155        1.260378  -0.000000
  156        1.290196  -0.000000
  157        1.325600  -0.000000
  158        1.373206  -0.000000
  159        1.431559  -0.000000
  160        1.440625  -0.000000
  161        1.446784  -0.000000
  162        1.486106  -0.000000
  163        1.499242  -0.000000
  164        1.507963  -0.000000
  165        1.609663  -0.000000
  166        1.665798  -0.000000
  167        1.694857  -0.000000
  168        1.733143  -0.000000
  169        1.768213  -0.000000
  170        1.781766  -0.000000
  171        1.822488  -0.000000
  172        1.837261  -0.000000
  173        1.862850  -0.000000
  174        1.902606  -0.000000
  175        1.949940  -0.000000
  176        1.967959  -0.000000
  177        2.028143  -0.000000
  178        2.069334  -0.000000
  179        2.145430  -0.000000
  180        2.282981  -0.000000
  181        2.490318  -0.000000
  182        2.507512  -0.000000
  183        2.623317  -0.000000
  184        3.079162  -0.000000

  0.2000000E+00  0.1111111E+00  0.1262379E-14  0.4444444E-01
    1      -13.893990   1.000000
    2      -13.192863   1.000000
    3      -12.662379   1.000000
    4      -12.314482   1.000000
    5      -12.005991   1.000000
    6      -11.920275   1.000000
    7      -11.716122   1.000000
    8      -11.385056   1.000000
    9      -11.317433   1.000000
   10      -11.181415   1.000000
   11      -11.150970   1.000000
   12      -11.092648   1.000000
   13      -10.969914   1.000000
   14      -10.783016   1.000000
   15      -10.584098   1.000000
   16      -10.570833   1.000000
   17      -10.501910   1.000000
   18       -9.837170   1.000000
   19       -9.727728   1.000000
   20       -9.672386   1.000000
   21       -9.584911   1.000000
   22       -9.485167   1.000000
   23       -9.430395   1.000000
   24       -9.400177   1.000000
   25       -9.080603   1.000000
   26       -8.837581   1.000000
   27       -8.406762   1.000000
   28       -8.354207   1.000000
   29       -8.231480   1.000000
   30       -8.169872   1.000000
   31       -8.138127   1.000000
   32       -7.935998   1.000000
   33       -7.692100   1.000000
   34       -7.598081   1.000000
   35       -7.418876   1.000000
   36       -7.332488   1.000000
   37       -7.127804   1.000000
   38       -7.105162   1.000000
   39       -7.002341   1.000000
   40       -6.831012   1.000000
   41       -6.716182   1.000000
   42       -6.658500   1.000000
   43       -6.634476   1.000000
   44       -6.613088   1.000000
   45       -6.524295   1.000000
   46       -6.488563   1.000000
   47       -6.226875   1.000000
   48       -6.132814   1.000000
   49       -6.020089   1.000000
   50       -5.956173   1.000000
   51       -5.837039   1.000000
   52       -5.764038   1.000000
   53       -5.679926   1.000000
   54       -5.647650   1.000000
   55       -5.529053   1.000000
   56       -5.504245   1.000000
   57       -5.410865   1.000000
   58       -5.333853   1.000000
   59       -5.298105   1.000000
   60       -5.223204   1.000000
   61       -5.167630   1.000000
   62       -5.111034   1.000000
   63       -4.894952   1.000000
   64       -4.824039   1.000000
   65       -4.721931   1.000000
   66       -4.687487   1.000000
   67       -4.602412   1.000000
   68       -4.584664   1.000000
   69       -4.507733   1.000000
   70       -4.375828   1.000000
   71       -4.340409   1.000000
   72       -4.248213   1.000000
   73       -4.213148   1.000000
   74       -4.190192   1.000000
   75       -4.165676   1.000000
   76       -4.132877   1.000000
   77       -4.110324   1.000000
   78       -4.088256   1.000000
   79       -4.033565   1.000000
   80       -4.021822   1.000000
   81       -3.980169   1.000000
   82       -3.916626   1.000000
   83       -3.838864   1.000000
   84       -3.770532   1.000000
   85       -3.720345   1.000000
   86       -3.696139   1.000000
   87       -3.663142   1.000000
   88       -3.640362   1.000000
   89       -3.539722   1.000000
   90       -3.489153   1.000000
   91       -3.460388   1.000000
   92       -3.446407   1.000000
   93       -3.241945   1.000000
   94       -3.117803   1.000000
   95       -3.020783   1.000000
   96       -2.994375   1.000000
   97       -2.942329   1.000000
   98       -2.840020   1.000000
   99       -2.780055   1.000000
  100       -2.758891   1.000000
  101       -2.681644   1.000000
  102       -2.420263   1.000000
  103       -2.385486   1.000000
  104       -2.342019   1.000000
  105       -2.274251   1.000000
  106       -2.242042   1.000000
  107       -2.211421   1.000000
  108       -2.127185   1.000000
  109       -2.068442   1.000000
  110       -2.029259   1.000000
  111       -1.980157   1.000000
  112       -1.911094   1.000000
  113       -1.872545   1.000000
  114       -1.806761   1.000000
  115       -1.795559   1.000000
  116       -1.710653   1.000000
  117       -1.632108   1.000000
  118       -1.582077   1.000000
  119       -1.538386   1.000000
  120       -1.418110   1.000000
  121       -1.217015   1.000000
  122       -1.102962   1.000000
  123       -0.994034   1.000000
  124       -0.951653   1.000000
  125       -0.906649   1.000000
  126       -0.813845   1.000000
  127       -0.774692   1.000000
  128       -0.691330   1.000000
  129       -0.472089   1.000000
  130       -0.419783   1.000000
  131       -0.241389   1.000000
  132       -0.178790   1.000000
  133       -0.045693   1.000000
  134       -0.021924   1.000000
  135        0.024279   1.000000
  136        0.060214   1.000000
  137        0.174061   1.000290
  138        0.257474   1.009229
  139        0.302655   1.027522
  140        0.380870   0.966908
  141        0.460120   0.439446
  142        0.497928   0.158683
  143        0.511490   0.086619
  144        0.594957  -0.031013
  145        0.612752  -0.023155
  146        0.701111  -0.001256
  147        0.848387  -0.000000
  148        0.862103  -0.000000
  149        0.893132  -0.000000
  150        0.978044  -0.000000
  151        1.034838  -0.000000
  152        1.135432  -0.000000
  153        1.208158  -0.000000
  154        1.286536  -0.000000
  155        1.322511  -0.000000
  156        1.342470  -0.000000
  157        1.369564  -0.000000