 running on   72 total cores
 distrk:  each k-point on   72 cores,    1 groups
 distr:  one band on    9 cores,    8 groups
 using from now: INCAR     
 vasp.5.4.4.18Apr17-6-g9f103f2a35 (build Dec  7 2020 12:43:57) complex           
 POSCAR found type information on POSCAR  Mo V  B  H 
 POSCAR found :  4 types and      73 ions
 scaLAPACK will be used

 ----------------------------------------------------------------------------- 
|                                                                             |
|  ADVICE TO THIS USER RUNNING 'VASP/VAMP'   (HEAR YOUR MASTER'S VOICE ...):  |
|                                                                             |
|      You enforced a specific xc-type in the INCAR file,                     |
|      a different type was found on the POTCAR file                          |
|          I HOPE YOU KNOW, WHAT YOU ARE  DOING                               |
|                                                                             |
 ----------------------------------------------------------------------------- 

 LDA part: xc-table for Pade appr. of Perdew
 POSCAR, INCAR and KPOINTS ok, starting setup
 resort distribution
 resort distribution
 resort distribution
 resort distribution
 resort distribution
 resort distribution
 resort distribution
 resort distribution
 resort distribution
 resort distribution
 resort distribution
 resort distribution
 resort distribution
 resort distribution
 resort distribution
 resort distribution
 resort distribution
 resort distribution
 resort distribution
 resort distribution
 resort distribution
 resort distribution
 resort distribution
 resort distribution
 resort distribution
 resort distribution
 resort distribution
 resort distribution
 resort distribution
 resort distribution
 resort distribution
 resort distribution
 resort distribution
 resort distribution
 resort distribution
 resort distribution
 resort distribution
 resort distribution
 resort distribution
 resort distribution
 resort distribution
 resort distribution
 resort distribution
 resort distribution
 resort distribution
 resort distribution
 resort distribution
 resort distribution
 resort distribution
 resort distribution
 resort distribution
 resort distribution
 resort distribution
 resort distribution
 resort distribution
 resort distribution
 resort distribution
 resort distribution
 resort distribution
 resort distribution
 resort distribution
 resort distribution
 resort distribution
 resort distribution
 resort distribution
 resort distribution
 resort distribution
 resort distribution
 resort distribution
 resort distribution
 resort distribution
 resort distribution
 FFT: planning ...
 WAVECAR not read
 augmentation electrons   283.06512711537027     
 soft         electrons   0.0000000000000000     
 augmentation electrons   283.06512711537027     
 soft         electrons   0.0000000000000000     
 augmentation electrons   283.06512711537027     
 soft         electrons   0.0000000000000000     
 augmentation electrons   283.06512711537027     
 soft         electrons   0.0000000000000000     
 augmentation electrons   283.06512711537027     
 soft         electrons   0.0000000000000000     
 augmentation electrons   283.06512711537027     
 soft         electrons   0.0000000000000000     
 augmentation electrons   283.06512711537027     
 soft         electrons   0.0000000000000000     
 augmentation electrons   283.06512711537027     
 soft         electrons   0.0000000000000000     
 augmentation electrons   283.06512711537027     
 soft         electrons   0.0000000000000000     
 augmentation electrons   283.06512711537027     
 soft         electrons   0.0000000000000000     
 augmentation electrons   283.06512711537027     
 soft         electrons   0.0000000000000000     
 augmentation electrons   283.06512711537027     
 soft         electrons   0.0000000000000000     
 augmentation electrons   283.06512711537027     
 soft         electrons   0.0000000000000000     
 augmentation electrons   283.06512711537027     
 soft         electrons   0.0000000000000000     
 augmentation electrons   283.06512711537027     
 soft         electrons   0.0000000000000000     
 augmentation electrons   283.06512711537027     
 soft         electrons   0.0000000000000000     
 augmentation electrons   283.06512711537027     
 soft         electrons   0.0000000000000000     
 augmentation electrons   283.06512711537027     
 soft         electrons   0.0000000000000000     
 augmentation electrons   283.06512711537027     
 soft         electrons   0.0000000000000000     
 augmentation electrons   283.06512711537027     
 soft         electrons   0.0000000000000000     
 augmentation electrons   283.06512711537027     
 soft         electrons   0.0000000000000000     
 augmentation electrons   283.06512711537027     
 soft         electrons   0.0000000000000000     
 augmentation electrons   283.06512711537027     
 soft         electrons   0.0000000000000000     
 augmentation electrons   283.06512711537027     
 soft         electrons   0.0000000000000000     
 augmentation electrons   283.06512711537027     
 soft         electrons   0.0000000000000000     
 augmentation electrons   283.06512711537027     
 soft         electrons   0.0000000000000000     
 augmentation electrons   283.06512711537027     
 soft         electrons   0.0000000000000000     
 augmentation electrons   283.06512711537027     
 soft         electrons   0.0000000000000000     
 augmentation electrons   283.06512711537027     
 soft         electrons   0.0000000000000000     
 augmentation electrons   283.06512711537027     
 soft         electrons   0.0000000000000000     
 augmentation electrons   283.06512711537027     
 soft         electrons   0.0000000000000000     
 augmentation electrons   283.06512711537027     
 soft         electrons   0.0000000000000000     
 augmentation electrons   283.06512711537027     
 soft         electrons   0.0000000000000000     
 augmentation electrons   283.06512711537027     
 soft         electrons   0.0000000000000000     
 augmentation electrons   283.06512711537027     
 soft         electrons   0.0000000000000000     
 augmentation electrons   283.06512711537027     
 soft         electrons   0.0000000000000000     
 augmentation electrons   283.06512711537027     
 soft         electrons   0.0000000000000000     
 augmentation electrons   283.06512711537027     
 soft         electrons   0.0000000000000000     
 augmentation electrons   283.06512711537027     
 soft         electrons   0.0000000000000000     
 augmentation electrons   283.06512711537027     
 soft         electrons   0.0000000000000000     
 augmentation electrons   283.06512711537027     
 soft         electrons   0.0000000000000000     
 augmentation electrons   283.06512711537027     
 soft         electrons   0.0000000000000000     
 augmentation electrons   283.06512711537027     
 soft         electrons   0.0000000000000000     
 augmentation electrons   283.06512711537027     
 soft         electrons   0.0000000000000000     
 augmentation electrons   283.06512711537027     
 soft         electrons   0.0000000000000000     
 augmentation electrons   283.06512711537027     
 soft         electrons   0.0000000000000000     
 augmentation electrons   283.06512711537027     
 soft         electrons   0.0000000000000000     
 augmentation electrons   283.06512711537027     
 soft         electrons   0.0000000000000000     
 augmentation electrons   283.06512711537027     
 soft         electrons   0.0000000000000000     
 augmentation electrons   283.06512711537027     
 soft         electrons   0.0000000000000000     
 augmentation electrons   283.06512711537027     
 soft         electrons   0.0000000000000000     
 augmentation electrons   283.06512711537027     
 soft         electrons   0.0000000000000000     
 augmentation electrons   283.06512711537027     
 soft         electrons   0.0000000000000000     
 augmentation electrons   283.06512711537027     
 soft         electrons   0.0000000000000000     
 augmentation electrons   283.06512711537027     
 soft         electrons   0.0000000000000000     
 augmentation electrons   283.06512711537027     
 soft         electrons   0.0000000000000000     
 augmentation electrons   283.06512711537027     
 soft         electrons   0.0000000000000000     
 augmentation electrons   283.06512711537027     
 soft         electrons   0.0000000000000000     
 augmentation electrons   283.06512711537027     
 soft         electrons   0.0000000000000000     
 augmentation electrons   283.06512711537027     
 soft         electrons   0.0000000000000000     
 augmentation electrons   283.06512711537027     
 soft         electrons   0.0000000000000000     
 augmentation electrons   283.06512711537027     
 soft         electrons   0.0000000000000000     
 augmentation electrons   283.06512711537027     
 soft         electrons   0.0000000000000000     
 augmentation electrons   283.06512711537027     
 soft         electrons   0.0000000000000000     
 augmentation electrons   283.06512711537027     
 soft         electrons   0.0000000000000000     
 augmentation electrons   283.06512711537027     
 soft         electrons   0.0000000000000000     
 augmentation electrons   283.06512711537027     
 soft         electrons   0.0000000000000000     
 augmentation electrons   283.06512711537027     
 soft         electrons   0.0000000000000000     
 augmentation electrons   283.06512711537027     
 soft         electrons   0.0000000000000000     
 augmentation electrons   283.06512711537027     
 soft         electrons   0.0000000000000000     
 augmentation electrons   283.06512711537027     
 soft         electrons   0.0000000000000000     
 augmentation electrons   283.06512711537027     
 soft         electrons   0.0000000000000000     
 total        electrons   283.06512711537027     
 total        electrons   283.06512711537027     
 total        electrons   283.06512711537027     
 total        electrons   283.06512711537027     
 total        electrons   283.06512711537027     
 total        electrons   283.06512711537027     
 total        electrons   283.06512711537027     
 total        electrons   283.06512711537027     
 total        electrons   283.06512711537027     
 total        electrons   283.06512711537027     
 total        electrons   283.06512711537027     
 total        electrons   283.06512711537027     
 total        electrons   283.06512711537027     
 total        electrons   283.06512711537027     
 total        electrons   283.06512711537027     
 total        electrons   283.06512711537027     
 total        electrons   283.06512711537027     
 total        electrons   283.06512711537027     
 total        electrons   283.06512711537027     
 total        electrons   283.06512711537027     
 total        electrons   283.06512711537027     
 total        electrons   283.06512711537027     
 total        electrons   283.06512711537027     
 total        electrons   283.06512711537027     
 total        electrons   283.06512711537027     
 total        electrons   283.06512711537027     
 total        electrons   283.06512711537027     
 total        electrons   283.06512711537027     
 total        electrons   283.06512711537027     
 total        electrons   283.06512711537027     
 total        electrons   283.06512711537027     
 total        electrons   283.06512711537027     
 total        electrons   283.06512711537027     
 total        electrons   283.06512711537027     
 total        electrons   283.06512711537027     
 total        electrons   283.06512711537027     
 total        electrons   283.06512711537027     
 total        electrons   283.06512711537027     
 total        electrons   283.06512711537027     
 total        electrons   283.06512711537027     
 total        electrons   283.06512711537027     
 total        electrons   283.06512711537027     
 total        electrons   283.06512711537027     
 total        electrons   283.06512711537027     
 total        electrons   283.06512711537027     
 total        electrons   283.06512711537027     
 total        electrons   283.06512711537027     
 total        electrons   283.06512711537027     
 total        electrons   283.06512711537027     
 total        electrons   283.06512711537027     
 total        electrons   283.06512711537027     
 total        electrons   283.06512711537027     
 total        electrons   283.06512711537027     
 total        electrons   283.06512711537027     
 total        electrons   283.06512711537027     
 total        electrons   283.06512711537027     
 total        electrons   283.06512711537027     
 total        electrons   283.06512711537027     
 total        electrons   283.06512711537027     
 total        electrons   283.06512711537027     
 total        electrons   283.06512711537027     
 total        electrons   283.06512711537027     
 total        electrons   283.06512711537027     
 total        electrons   283.06512711537027     
 total        electrons   283.06512711537027     
 total        electrons   283.06512711537027     
 total        electrons   283.06512711537027     
 total        electrons   283.06512711537027     
 total        electrons   283.06512711537027     
 total        electrons   283.06512711537027     
 total        electrons   283.06512711537027     
 total        electrons   283.06512711537027     
 augmentation electrons   1284.9953543078657     
 soft         electrons   0.0000000000000000     
 augmentation electrons   1284.9953543078657     
 soft         electrons   0.0000000000000000     
 augmentation electrons   1284.9953543078657     
 soft         electrons   0.0000000000000000     
 augmentation electrons   1284.9953543078657     
 soft         electrons   0.0000000000000000     
 augmentation electrons   1284.9953543078657     
 soft         electrons   0.0000000000000000     
 augmentation electrons   1284.9953543078657     
 soft         electrons   0.0000000000000000     
 augmentation electrons   1284.9953543078657     
 soft         electrons   0.0000000000000000     
 augmentation electrons   1284.9953543078657     
 soft         electrons   0.0000000000000000     
 augmentation electrons   1284.9953543078657     
 soft         electrons   0.0000000000000000     
 augmentation electrons   1284.9953543078657     
 soft         electrons   0.0000000000000000     
 augmentation electrons   1284.9953543078657     
 soft         electrons   0.0000000000000000     
 augmentation electrons   1284.9953543078657     
 soft         electrons   0.0000000000000000     
 augmentation electrons   1284.9953543078657     
 soft         electrons   0.0000000000000000     
 augmentation electrons   1284.9953543078657     
 soft         electrons   0.0000000000000000     
 augmentation electrons   1284.9953543078657     
 soft         electrons   0.0000000000000000     
 augmentation electrons   1284.9953543078657     
 soft         electrons   0.0000000000000000     
 augmentation electrons   1284.9953543078657     
 soft         electrons   0.0000000000000000     
 augmentation electrons   1284.9953543078657     
 soft         electrons   0.0000000000000000     
 augmentation electrons   1284.9953543078657     
 soft         electrons   0.0000000000000000     
 augmentation electrons   1284.9953543078657     
 soft         electrons   0.0000000000000000     
 augmentation electrons   1284.9953543078657     
 soft         electrons   0.0000000000000000     
 augmentation electrons   1284.9953543078657     
 soft         electrons   0.0000000000000000     
 augmentation electrons   1284.9953543078657     
 soft         electrons   0.0000000000000000     
 augmentation electrons   1284.9953543078657     
 soft         electrons   0.0000000000000000     
 augmentation electrons   1284.9953543078657     
 soft         electrons   0.0000000000000000     
 augmentation electrons   1284.9953543078657     
 soft         electrons   0.0000000000000000     
 augmentation electrons   1284.9953543078657     
 soft         electrons   0.0000000000000000     
 augmentation electrons   1284.9953543078657     
 soft         electrons   0.0000000000000000     
 augmentation electrons   1284.9953543078657     
 soft         electrons   0.0000000000000000     
 augmentation electrons   1284.9953543078657     
 soft         electrons   0.0000000000000000     
 augmentation electrons   1284.9953543078657     
 soft         electrons   0.0000000000000000     
 augmentation electrons   1284.9953543078657     
 soft         electrons   0.0000000000000000     
 augmentation electrons   1284.9953543078657     
 soft         electrons   0.0000000000000000     
 augmentation electrons   1284.9953543078657     
 soft         electrons   0.0000000000000000     
 augmentation electrons   1284.9953543078657     
 soft         electrons   0.0000000000000000     
 augmentation electrons   1284.9953543078657     
 soft         electrons   0.0000000000000000     
 augmentation electrons   1284.9953543078657     
 soft         electrons   0.0000000000000000     
 augmentation electrons   1284.9953543078657     
 soft         electrons   0.0000000000000000     
 augmentation electrons   1284.9953543078657     
 soft         electrons   0.0000000000000000     
 augmentation electrons   1284.9953543078657     
 soft         electrons   0.0000000000000000     
 augmentation electrons   1284.9953543078657     
 soft         electrons   0.0000000000000000     
 augmentation electrons   1284.9953543078657     
 soft         electrons   0.0000000000000000     
 augmentation electrons   1284.9953543078657     
 soft         electrons   0.0000000000000000     
 augmentation electrons   1284.9953543078657     
 soft         electrons   0.0000000000000000     
 augmentation electrons   1284.9953543078657     
 soft         electrons   0.0000000000000000     
 augmentation electrons   1284.9953543078657     
 soft         electrons   0.0000000000000000     
 augmentation electrons   1284.9953543078657     
 soft         electrons   0.0000000000000000     
 augmentation electrons   1284.9953543078657     
 soft         electrons   0.0000000000000000     
 augmentation electrons   1284.9953543078657     
 soft         electrons   0.0000000000000000     
 augmentation electrons   1284.9953543078657     
 soft         electrons   0.0000000000000000     
 augmentation electrons   1284.9953543078657     
 soft         electrons   0.0000000000000000     
 augmentation electrons   1284.9953543078657     
 soft         electrons   0.0000000000000000     
 augmentation electrons   1284.9953543078657     
 soft         electrons   0.0000000000000000     
 augmentation electrons   1284.9953543078657     
 soft         electrons   0.0000000000000000     
 augmentation electrons   1284.9953543078657     
 soft         electrons   0.0000000000000000     
 augmentation electrons   1284.9953543078657     
 soft         electrons   0.0000000000000000     
 augmentation electrons   1284.9953543078657     
 soft         electrons   0.0000000000000000     
 augmentation electrons   1284.9953543078657     
 soft         electrons   0.0000000000000000     
 augmentation electrons   1284.9953543078657     
 soft         electrons   0.0000000000000000     
 augmentation electrons   1284.9953543078657     
 soft         electrons   0.0000000000000000     
 augmentation electrons   1284.9953543078657     
 soft         electrons   0.0000000000000000     
 augmentation electrons   1284.9953543078657     
 soft         electrons   0.0000000000000000     
 augmentation electrons   1284.9953543078657     
 soft         electrons   0.0000000000000000     
 augmentation electrons   1284.9953543078657     
 soft         electrons   0.0000000000000000     
 augmentation electrons   1284.9953543078657     
 soft         electrons   0.0000000000000000     
 augmentation electrons   1284.9953543078657     
 soft         electrons   0.0000000000000000     
 augmentation electrons   1284.9953543078657     
 soft         electrons   0.0000000000000000     
 augmentation electrons   1284.9953543078657     
 soft         electrons   0.0000000000000000     
 augmentation electrons   1284.9953543078657     
 soft         electrons   0.0000000000000000     
 augmentation electrons   1284.9953543078657     
 soft         electrons   0.0000000000000000     
 augmentation electrons   1284.9953543078657     
 soft         electrons   0.0000000000000000     
 augmentation electrons   1284.9953543078657     
 soft         electrons   0.0000000000000000     
 total        electrons   1284.9953543078657     
 total        electrons   1284.9953543078657     
 total        electrons   1284.9953543078657     
 total        electrons   1284.9953543078657     
 total        electrons   1284.9953543078657     
 total        electrons   1284.9953543078657     
 total        electrons   1284.9953543078657     
 total        electrons   1284.9953543078657     
 total        electrons   1284.9953543078657     
 total        electrons   1284.9953543078657     
 total        electrons   1284.9953543078657     
 total        electrons   1284.9953543078657     
 total        electrons   1284.9953543078657     
 total        electrons   1284.9953543078657     
 total        electrons   1284.9953543078657     
 total        electrons   1284.9953543078657     
 total        electrons   1284.9953543078657     
 total        electrons   1284.9953543078657     
 total        electrons   1284.9953543078657     
 total        electrons   1284.9953543078657     
 total        electrons   1284.9953543078657     
 total        electrons   1284.9953543078657     
 total        electrons   1284.9953543078657     
 total        electrons   1284.9953543078657     
 total        electrons   1284.9953543078657     
 total        electrons   1284.9953543078657     
 total        electrons   1284.9953543078657     
 total        electrons   1284.9953543078657     
 total        electrons   1284.9953543078657     
 total        electrons   1284.9953543078657     
 total        electrons   1284.9953543078657     
 total        electrons   1284.9953543078657     
 total        electrons   1284.9953543078657     
 total        electrons   1284.9953543078657     
 total        electrons   1284.9953543078657     
 total        electrons   1284.9953543078657     
 total        electrons   1284.9953543078657     
 total        electrons   1284.9953543078657     
 total        electrons   1284.9953543078657     
 total        electrons   1284.9953543078657     
 total        electrons   1284.9953543078657     
 total        electrons   1284.9953543078657     
 total        electrons   1284.9953543078657     
 total        electrons   1284.9953543078657     
 total        electrons   1284.9953543078657     
 total        electrons   1284.9953543078657     
 total        electrons   1284.9953543078657     
 total        electrons   1284.9953543078657     
 total        electrons   1284.9953543078657     
 total        electrons   1284.9953543078657     
 total        electrons   1284.9953543078657     
 total        electrons   1284.9953543078657     
 total        electrons   1284.9953543078657     
 total        electrons   1284.9953543078657     
 total        electrons   1284.9953543078657     
 total        electrons   1284.9953543078657     
 total        electrons   1284.9953543078657     
 total        electrons   1284.9953543078657     
 total        electrons   1284.9953543078657     
 total        electrons   1284.9953543078657     
 total        electrons   1284.9953543078657     
 total        electrons   1284.9953543078657     
 total        electrons   1284.9953543078657     
 total        electrons   1284.9953543078657     
 total        electrons   1284.9953543078657     
 total        electrons   1284.9953543078657     
 total        electrons   1284.9953543078657     
 total        electrons   1284.9953543078657     
 total        electrons   1284.9953543078657     
 total        electrons   1284.9953543078657     
 total        electrons   1284.9953543078657     
 total        electrons   1284.9953543078657     
 entering main loop
       N       E                     dE             d eps       ncg     rms          rms(c)
DAV:   1     0.247128999217E+04    0.24713E+04   -0.10261E+05  8464   0.126E+03
DAV:   2    -0.189055242234E+03   -0.26603E+04   -0.24705E+04  9656   0.312E+02
DAV:   3    -0.622351344683E+03   -0.43330E+03   -0.41164E+03 11896   0.145E+02
DAV:   4    -0.658848846843E+03   -0.36498E+02   -0.34838E+02 13664   0.460E+01
DAV:   5    -0.661201575039E+03   -0.23527E+01   -0.22717E+01 14392   0.110E+01    0.146E+02
RMM:   6    -0.609295218530E+03    0.51906E+02   -0.11018E+03 13339   0.870E+01    0.693E+01
RMM:   7    -0.695716064795E+03   -0.86421E+02   -0.35795E+02 11219   0.493E+01    0.555E+01
RMM:   8    -0.619351656144E+03    0.76364E+02   -0.17432E+02 11816   0.269E+01    0.420E+01
RMM:   9    -0.572204208353E+03    0.47147E+02   -0.38058E+01 12065   0.155E+01    0.265E+01
RMM:  10    -0.560881908012E+03    0.11322E+02   -0.29282E+01 10164   0.162E+01    0.188E+01
RMM:  11    -0.560071795193E+03    0.81011E+00   -0.86949E+00 11808   0.673E+00    0.152E+01
RMM:  12    -0.560155777822E+03   -0.83983E-01   -0.16988E+00 13352   0.176E+00    0.141E+01
RMM:  13    -0.560026033592E+03    0.12974E+00   -0.12270E+00 12183   0.266E+00    0.121E+01
RMM:  14    -0.560404855681E+03   -0.37882E+00   -0.40099E+00 10189   0.630E+00    0.919E+00
RMM:  15    -0.559357249006E+03    0.10476E+01   -0.13952E+00  9419   0.426E+00    0.426E+00
RMM:  16    -0.559087496785E+03    0.26975E+00   -0.96324E-01 13134   0.155E+00    0.255E+00
RMM:  17    -0.559058580148E+03    0.28917E-01   -0.40156E-01 13068   0.110E+00    0.214E+00
RMM:  18    -0.559033849613E+03    0.24731E-01   -0.13510E-01 11079   0.106E+00    0.141E+00
RMM:  19    -0.559010755760E+03    0.23094E-01   -0.12973E-01 12538   0.770E-01    0.575E-01
RMM:  20    -0.559010720639E+03    0.35120E-04   -0.41455E-02 12850   0.389E-01    0.595E-01
RMM:  21    -0.559006615698E+03    0.41049E-02   -0.14076E-02 10803   0.281E-01    0.241E-01
RMM:  22    -0.559005597354E+03    0.10183E-02   -0.86923E-03 13126   0.127E-01    0.205E-01
RMM:  23    -0.559004045424E+03    0.15519E-02   -0.28656E-03 12755   0.960E-02    0.119E-01
RMM:  24    -0.559003812638E+03    0.23279E-03   -0.13439E-03 12668   0.636E-02    0.767E-02
RMM:  25    -0.559003903771E+03   -0.91134E-04   -0.70269E-04 11707   0.559E-02    0.717E-02
RMM:  26    -0.559004176102E+03   -0.27233E-03   -0.39819E-04 10824   0.510E-02    0.696E-02
RMM:  27    -0.559004695881E+03   -0.51978E-03   -0.39936E-04 10771   0.426E-02    0.315E-02
RMM:  28    -0.559005061293E+03   -0.36541E-03   -0.23491E-04 12121   0.252E-02    0.286E-02
RMM:  29    -0.559005341742E+03   -0.28045E-03   -0.24607E-04 11349   0.200E-02    0.153E-02
RMM:  30    -0.559005428233E+03   -0.86490E-04   -0.67879E-05 10451   0.155E-02    0.145E-02
RMM:  31    -0.559005469644E+03   -0.41411E-04   -0.48702E-05  9912   0.873E-03    0.962E-03
RMM:  32    -0.559005595046E+03   -0.12540E-03   -0.19507E-05  9814   0.834E-03    0.823E-03
RMM:  33    -0.559005767441E+03   -0.17239E-03   -0.22319E-05  9495   0.985E-03    0.948E-03
RMM:  34    -0.559005933927E+03   -0.16649E-03   -0.15890E-05  8578   0.635E-03    0.693E-03
RMM:  35    -0.559005988488E+03   -0.54561E-04   -0.57281E-06  7889   0.586E-03    0.851E-03
RMM:  36    -0.559006051089E+03   -0.62600E-04   -0.80319E-06  8021   0.687E-03    0.416E-03
RMM:  37    -0.559006080477E+03   -0.29389E-04   -0.35643E-06  7564   0.372E-03    0.299E-03
RMM:  38    -0.559006099133E+03   -0.18656E-04   -0.24347E-06  7067   0.400E-03    0.296E-03
RMM:  39    -0.559006104342E+03   -0.52083E-05   -0.74320E-07  6221   0.263E-03    0.982E-04
RMM:  40    -0.559006108185E+03   -0.38435E-05   -0.62537E-07  6062   0.221E-03    0.178E-03
RMM:  41    -0.559006108995E+03   -0.80993E-06   -0.27414E-07  5231   0.153E-03
   1 F= -.55900611E+03 E0= -.55900644E+03  d E =0.996442E-03
 augmentation electrons   31.431678644620753     
 soft         electrons   251.69617302749896     
 augmentation electrons   31.431678644620753     
 soft         electrons   251.69617302749896     
 augmentation electrons   31.431678644620753     
 soft         electrons   251.69617302749896     
 augmentation electrons   31.431678644620753     
 soft         electrons   251.69617302749896     
 augmentation electrons   31.431678644620753     
 soft         electrons   251.69617302749896     
 augmentation electrons   31.431678644620753     
 soft         electrons   251.69617302749896     
 augmentation electrons   31.431678644620753     
 soft         electrons   251.69617302749896     
 augmentation electrons   31.431678644620753     
 soft         electrons   251.69617302749896     
 augmentation electrons   31.431678644620753     
 soft         electrons   251.69617302749896     
 augmentation electrons   31.431678644620753     
 soft         electrons   251.69617302749896     
 augmentation electrons   31.431678644620753     
 soft         electrons   251.69617302749896     
 augmentation electrons   31.431678644620753     
 soft         electrons   251.69617302749896     
 augmentation electrons   31.431678644620753     
 soft         electrons   251.69617302749896     
 augmentation electrons   31.431678644620753     
 soft         electrons   251.69617302749896     
 augmentation electrons   31.431678644620753     
 soft         electrons   251.69617302749896     
 augmentation electrons   31.431678644620753     
 soft         electrons   251.69617302749896     
 augmentation electrons   31.431678644620753     
 soft         electrons   251.69617302749896     
 augmentation electrons   31.431678644620753     
 soft         electrons   251.69617302749896     
 augmentation electrons   31.431678644620753     
 soft         electrons   251.69617302749896     
 augmentation electrons   31.431678644620753     
 soft         electrons   251.69617302749896     
 augmentation electrons   31.431678644620753     
 soft         electrons   251.69617302749896     
 augmentation electrons   31.431678644620753     
 soft         electrons   251.69617302749896     
 augmentation electrons   31.431678644620753     
 soft         electrons   251.69617302749896     
 augmentation electrons   31.431678644620753     
 soft         electrons   251.69617302749896     
 augmentation electrons   31.431678644620753     
 soft         electrons   251.69617302749896     
 augmentation electrons   31.431678644620753     
 soft         electrons   251.69617302749896     
 augmentation electrons   31.431678644620753     
 soft         electrons   251.69617302749896     
 augmentation electrons   31.431678644620753     
 soft         electrons   251.69617302749896     
 augmentation electrons   31.431678644620753     
 soft         electrons   251.69617302749896     
 augmentation electrons   31.431678644620753     
 soft         electrons   251.69617302749896     
 augmentation electrons   31.431678644620753     
 soft         electrons   251.69617302749896     
 augmentation electrons   31.431678644620753     
 soft         electrons   251.69617302749896     
 augmentation electrons   31.431678644620753     
 soft         electrons   251.69617302749896     
 augmentation electrons   31.431678644620753     
 soft         electrons   251.69617302749896     
 augmentation electrons   31.431678644620753     
 soft         electrons   251.69617302749896     
 augmentation electrons   31.431678644620753     
 soft         electrons   251.69617302749896     
 augmentation electrons   31.431678644620753     
 soft         electrons   251.69617302749896     
 augmentation electrons   31.431678644620753     
 soft         electrons   251.69617302749896     
 augmentation electrons   31.431678644620753     
 soft         electrons   251.69617302749896     
 augmentation electrons   31.431678644620753     
 soft         electrons   251.69617302749896     
 augmentation electrons   31.431678644620753     
 soft         electrons   251.69617302749896     
 augmentation electrons   31.431678644620753     
 soft         electrons   251.69617302749896     
 augmentation electrons   31.431678644620753     
 soft         electrons   251.69617302749896     
 augmentation electrons   31.431678644620753     
 soft         electrons   251.69617302749896     
 augmentation electrons   31.431678644620753     
 soft         electrons   251.69617302749896     
 augmentation electrons   31.431678644620753     
 soft         electrons   251.69617302749896     
 augmentation electrons   31.431678644620753     
 soft         electrons   251.69617302749896     
 augmentation electrons   31.431678644620753     
 soft         electrons   251.69617302749896     
 augmentation electrons   31.431678644620753     
 soft         electrons   251.69617302749896     
 augmentation electrons   31.431678644620753     
 soft         electrons   251.69617302749896     
 augmentation electrons   31.431678644620753     
 soft         electrons   251.69617302749896     
 augmentation electrons   31.431678644620753     
 soft         electrons   251.69617302749896     
 augmentation electrons   31.431678644620753     
 soft         electrons   251.69617302749896     
 augmentation electrons   31.431678644620753     
 soft         electrons   251.69617302749896     
 augmentation electrons   31.431678644620753     
 soft         electrons   251.69617302749896     
 augmentation electrons   31.431678644620753     
 soft         electrons   251.69617302749896     
 augmentation electrons   31.431678644620753     
 soft         electrons   251.69617302749896     
 augmentation electrons   31.431678644620753     
 soft         electrons   251.69617302749896     
 augmentation electrons   31.431678644620753     
 soft         electrons   251.69617302749896     
 augmentation electrons   31.431678644620753     
 soft         electrons   251.69617302749896     
 augmentation electrons   31.431678644620753     
 soft         electrons   251.69617302749896     
 augmentation electrons   31.431678644620753     
 soft         electrons   251.69617302749896     
 augmentation electrons   31.431678644620753     
 soft         electrons   251.69617302749896     
 augmentation electrons   31.431678644620753     
 soft         electrons   251.69617302749896     
 augmentation electrons   31.431678644620753     
 soft         electrons   251.69617302749896     
 augmentation electrons   31.431678644620753     
 soft         electrons   251.69617302749896     
 augmentation electrons   31.431678644620753     
 soft         electrons   251.69617302749896     
 augmentation electrons   31.431678644620753     
 soft         electrons   251.69617302749896     
 augmentation electrons   31.431678644620753     
 soft         electrons   251.69617302749896     
 augmentation electrons   31.431678644620753     
 soft         electrons   251.69617302749896     
 augmentation electrons   31.431678644620753     
 soft         electrons   251.69617302749896     
 augmentation electrons   31.431678644620753     
 soft         electrons   251.69617302749896     
 total        electrons   283.12785167211973     
 total        electrons   283.12785167211973     
 total        electrons   283.12785167211973     
 total        electrons   283.12785167211973     
 total        electrons   283.12785167211973     
 total        electrons   283.12785167211973     
 total        electrons   283.12785167211973     
 total        electrons   283.12785167211973     
 total        electrons   283.12785167211973     
 total        electrons   283.12785167211973     
 total        electrons   283.12785167211973     
 total        electrons   283.12785167211973     
 total        electrons   283.12785167211973     
 total        electrons   283.12785167211973     
 total        electrons   283.12785167211973     
 total        electrons   283.12785167211973     
 total        electrons   283.12785167211973     
 total        electrons   283.12785167211973     
 total        electrons   283.12785167211973     
 total        electrons   283.12785167211973     
 total        electrons   283.12785167211973     
 total        electrons   283.12785167211973     
 total        electrons   283.12785167211973     
 total        electrons   283.12785167211973     
 total        electrons   283.12785167211973     
 total        electrons   283.12785167211973     
 total        electrons   283.12785167211973     
 total        electrons   283.12785167211973     
 total        electrons   283.12785167211973     
 total        electrons   283.12785167211973     
 total        electrons   283.12785167211973     
 total        electrons   283.12785167211973     
 total        electrons   283.12785167211973     
 total        electrons   283.12785167211973     
 total        electrons   283.12785167211973     
 total        electrons   283.12785167211973     
 total        electrons   283.12785167211973     
 total        electrons   283.12785167211973     
 total        electrons   283.12785167211973     
 total        electrons   283.12785167211973     
 total        electrons   283.12785167211973     
 total        electrons   283.12785167211973     
 total        electrons   283.12785167211973     
 total        electrons   283.12785167211973     
 total        electrons   283.12785167211973     
 total        electrons   283.12785167211973     
 total        electrons   283.12785167211973     
 total        electrons   283.12785167211973     
 total        electrons   283.12785167211973     
 total        electrons   283.12785167211973     
 total        electrons   283.12785167211973     
 total        electrons   283.12785167211973     
 total        electrons   283.12785167211973     
 total        electrons   283.12785167211973     
 total        electrons   283.12785167211973     
 total        electrons   283.12785167211973     
 total        electrons   283.12785167211973     
 total        electrons   283.12785167211973     
 total        electrons   283.12785167211973     
 total        electrons   283.12785167211973     
 total        electrons   283.12785167211973     
 total        electrons   283.12785167211973     
 total        electrons   283.12785167211973     
 total        electrons   283.12785167211973     
 total        electrons   283.12785167211973     
 total        electrons   283.12785167211973     
 total        electrons   283.12785167211973     
 total        electrons   283.12785167211973     
 total        electrons   283.12785167211973     
 total        electrons   283.12785167211973     
 total        electrons   283.12785167211973     
 total        electrons   283.12785167211973     
Note: The following floating-point exceptions are signalling: IEEE_OVERFLOW_FLAG
Note: The following floating-point exceptions are signalling: IEEE_OVERFLOW_FLAG
Note: The following floating-point exceptions are signalling: IEEE_OVERFLOW_FLAG
Note: The following floating-point exceptions are signalling: IEEE_OVERFLOW_FLAG
Note: The following floating-point exceptions are signalling: IEEE_OVERFLOW_FLAG
Note: The following floating-point exceptions are signalling: IEEE_OVERFLOW_FLAG
Note: The following floating-point exceptions are signalling: IEEE_OVERFLOW_FLAG
Note: The following floating-point exceptions are signalling: IEEE_OVERFLOW_FLAG
Note: The following floating-point exceptions are signalling: IEEE_OVERFLOW_FLAG
Note: The following floating-point exceptions are signalling: IEEE_OVERFLOW_FLAG
Note: The following floating-point exceptions are signalling: IEEE_OVERFLOW_FLAG
Note: The following floating-point exceptions are signalling: IEEE_OVERFLOW_FLAG
Note: The following floating-point exceptions are signalling: IEEE_OVERFLOW_FLAG
Note: The following floating-point exceptions are signalling: IEEE_OVERFLOW_FLAG
Note: The following floating-point exceptions are signalling: IEEE_OVERFLOW_FLAG
Note: The following floating-point exceptions are signalling: IEEE_OVERFLOW_FLAG
Note: The following floating-point exceptions are signalling: IEEE_OVERFLOW_FLAG
Note: The following floating-point exceptions are signalling: IEEE_OVERFLOW_FLAG
Note: The following floating-point exceptions are signalling: IEEE_OVERFLOW_FLAG
Note: The following floating-point exceptions are signalling: IEEE_OVERFLOW_FLAG
Note: The following floating-point exceptions are signalling: IEEE_OVERFLOW_FLAG
Note: The following floating-point exceptions are signalling: IEEE_OVERFLOW_FLAG
Note: The following floating-point exceptions are signalling: IEEE_OVERFLOW_FLAG
Note: The following floating-point exceptions are signalling: IEEE_OVERFLOW_FLAG
Note: The following floating-point exceptions are signalling: IEEE_OVERFLOW_FLAG
Note: The following floating-point exceptions are signalling: IEEE_OVERFLOW_FLAG
Note: The following floating-point exceptions are signalling: IEEE_OVERFLOW_FLAG
Note: The following floating-point exceptions are signalling: IEEE_OVERFLOW_FLAG
Note: The following floating-point exceptions are signalling: IEEE_OVERFLOW_FLAG
Note: The following floating-point exceptions are signalling: IEEE_OVERFLOW_FLAG
Note: The following floating-point exceptions are signalling: IEEE_OVERFLOW_FLAG
Note: The following floating-point exceptions are signalling: IEEE_OVERFLOW_FLAG
Note: The following floating-point exceptions are signalling: IEEE_OVERFLOW_FLAG
Note: The following floating-point exceptions are signalling: IEEE_OVERFLOW_FLAG
Note: The following floating-point exceptions are signalling: IEEE_OVERFLOW_FLAG
Note: The following floating-point exceptions are signalling: IEEE_OVERFLOW_FLAG
Note: The following floating-point exceptions are signalling: IEEE_OVERFLOW_FLAG
Note: The following floating-point exceptions are signalling: IEEE_OVERFLOW_FLAG
Note: The following floating-point exceptions are signalling: IEEE_OVERFLOW_FLAG
Note: The following floating-point exceptions are signalling: IEEE_OVERFLOW_FLAG
Note: The following floating-point exceptions are signalling: IEEE_OVERFLOW_FLAG
Note: The following floating-point exceptions are signalling: IEEE_OVERFLOW_FLAG
Note: The following floating-point exceptions are signalling: IEEE_OVERFLOW_FLAG
Note: The following floating-point exceptions are signalling: IEEE_OVERFLOW_FLAG
Note: The following floating-point exceptions are signalling: IEEE_OVERFLOW_FLAG
Note: The following floating-point exceptions are signalling: IEEE_OVERFLOW_FLAG
Note: The following floating-point exceptions are signalling: IEEE_OVERFLOW_FLAG
Note: The following floating-point exceptions are signalling: IEEE_OVERFLOW_FLAG
Note: The following floating-point exceptions are signalling: IEEE_OVERFLOW_FLAG
Note: The following floating-point exceptions are signalling: IEEE_OVERFLOW_FLAG
Note: The following floating-point exceptions are signalling: IEEE_OVERFLOW_FLAG
Note: The following floating-point exceptions are signalling: IEEE_OVERFLOW_FLAG
Note: The following floating-point exceptions are signalling: IEEE_OVERFLOW_FLAG
Note: The following floating-point exceptions are signalling: IEEE_OVERFLOW_FLAG
Note: The following floating-point exceptions are signalling: IEEE_OVERFLOW_FLAG
Note: The following floating-point exceptions are signalling: IEEE_OVERFLOW_FLAG
Note: The following floating-point exceptions are signalling: IEEE_OVERFLOW_FLAG
Note: The following floating-point exceptions are signalling: IEEE_OVERFLOW_FLAG
Note: The following floating-point exceptions are signalling: IEEE_OVERFLOW_FLAG
Note: The following floating-point exceptions are signalling: IEEE_OVERFLOW_FLAG
Note: The following floating-point exceptions are signalling: IEEE_OVERFLOW_FLAG
Note: The following floating-point exceptions are signalling: IEEE_OVERFLOW_FLAG
Note: The following floating-point exceptions are signalling: IEEE_OVERFLOW_FLAG
Note: The following floating-point exceptions are signalling: IEEE_OVERFLOW_FLAG
Note: The following floating-point exceptions are signalling: IEEE_OVERFLOW_FLAG
Note: The following floating-point exceptions are signalling: IEEE_OVERFLOW_FLAG
Note: The following floating-point exceptions are signalling: IEEE_OVERFLOW_FLAG
Note: The following floating-point exceptions are signalling: IEEE_OVERFLOW_FLAG
Note: The following floating-point exceptions are signalling: IEEE_OVERFLOW_FLAG
Note: The following floating-point exceptions are signalling: IEEE_OVERFLOW_FLAG
Note: The following floating-point exceptions are signalling: IEEE_OVERFLOW_FLAG
Note: The following floating-point exceptions are signalling: IEEE_OVERFLOW_FLAG
