   54   54   85    1
  0.1322961E+02  0.6078000E-09  0.6078000E-09  0.2233000E-08  0.5000000E-15
   1.0000000000000000E-004
  CAR 
 Name                                    
    202     25    132

  0.3742002E-15  0.3742002E-15  0.1262379E-14  0.1234568E-01
    1      -11.342227   1.000000
    2      -10.767161   1.000000
    3       -9.938681   1.000000
    4       -8.502535   1.000000
    5       -8.449101   1.000000
    6       -8.096270   1.000000
    7       -8.069401   1.000000
    8       -8.017240   1.000000
    9       -7.869960   1.000000
   10       -7.742936   1.000000
   11       -7.602064   1.000000
   12       -7.538731   1.000000
   13       -7.538225   1.000000
   14       -7.529908   1.000000
   15       -7.203985   1.000000
   16       -7.184413   1.000000
   17       -7.147180   1.000000
   18       -6.951759   1.000000
   19       -6.889750   1.000000
   20       -6.644667   1.000000
   21       -6.075956   1.000000
   22       -5.986031   1.000000
   23       -5.767014   1.000000
   24       -5.705479   1.000000
   25       -5.651074   1.000000
   26       -5.627649   1.000000
   27       -5.593986   1.000000
   28       -5.135852   1.000000
   29       -5.030094   1.000000
   30       -5.012197   1.000000
   31       -4.510860   1.000000
   32       -4.379208   1.000000
   33       -4.368352   1.000000
   34       -4.090624   1.000000
   35       -4.070797   1.000000
   36       -4.011306   1.000000
   37       -3.807763   1.000000
   38       -3.388812   1.000000
   39       -3.212217   1.000000
   40       -3.050656   1.000000
   41       -2.873676   1.000000
   42       -2.741497   1.000000
   43       -2.685777   1.000000
   44       -2.481459   1.000000
   45       -2.463418   1.000000
   46       -2.295111   1.000000
   47       -2.267091   1.000000
   48       -2.123252   1.000000
   49       -2.079996   1.000000
   50       -1.940792   1.000000
   51       -1.823936   1.000000
   52       -1.795048   1.000000
   53       -1.739647   1.000000
   54       -1.666194   1.000000
   55       -1.651275   1.000000
   56       -1.583896   1.000000
   57       -1.515422   1.000000
   58       -1.475780   1.000000
   59       -1.396501   1.000000
   60       -1.356605   1.000000
   61       -1.356525   1.000000
   62       -1.313831   1.000000
   63       -1.161351   1.000000
   64       -0.960093   1.000000
   65       -0.952020   1.000000
   66       -0.864644   1.000000
   67       -0.780925   1.000000
   68       -0.709854   1.000000
   69       -0.679861   1.000000
   70       -0.599500   1.000000
   71       -0.560099   1.000000
   72       -0.482055   1.000000
   73       -0.411451   1.000000
   74       -0.085245   1.000000
   75        0.005806   1.000000
   76        0.013508   1.000000
   77        0.196725   1.000000
   78        0.317002   1.000000
   79        0.405034   1.000000
   80        0.540322   1.000000
   81        0.626043   1.000000
   82        0.637385   1.000000
   83        1.173923   1.000000
   84        1.219908   1.000000
   85        1.386136   1.000000
   86        1.426823   1.000000
   87        1.444591   1.000000
   88        1.570046   1.000000
   89        1.616994   1.000000
   90        1.688243   1.000000
   91        1.760971   1.000000
   92        1.808184   1.000000
   93        1.819275   1.000000
   94        2.014935   1.000000
   95        2.200881   1.000002
   96        2.246314   1.000007
   97        2.330087   1.000092
   98        2.330687   1.000094
   99        2.768668   0.992287
  100        2.844402   0.829402
  101        2.908408   0.592626
  102        3.137147  -0.028264
  103        3.265474  -0.019643
  104        3.407340  -0.001910
  105        3.422359  -0.001385
  106        3.581083  -0.000021
  107        3.603146  -0.000011
  108        3.696728  -0.000000
  109        3.702049  -0.000000
  110        3.717879  -0.000000
  111        3.840504  -0.000000
  112        3.863779  -0.000000
  113        3.985732  -0.000000
  114        3.996031  -0.000000
  115        4.069813  -0.000000
  116        4.102699  -0.000000
  117        4.131774  -0.000000
  118        4.204841  -0.000000
  119        4.299809  -0.000000
  120        4.360384  -0.000000
  121        4.430475  -0.000000
  122        4.457824  -0.000000
  123        4.474879  -0.000000
  124        4.491293  -0.000000
  125        4.553238  -0.000000
  126        4.622856  -0.000000
  127        4.634450  -0.000000
  128        4.640085  -0.000000
  129        5.032451  -0.000000
  130        5.233172  -0.000000
  131        5.330082  -0.000000
  132        5.375649  -0.000000

  0.1111111E+00  0.3687552E-15  0.1262379E-14  0.4938272E-01
    1      -11.284609   1.000000
    2      -10.715295   1.000000
    3       -9.900823   1.000000
    4       -8.484506   1.000000
    5       -8.462343   1.000000
    6       -8.194175   1.000000
    7       -8.150865   1.000000
    8       -8.072847   1.000000
    9       -8.035441   1.000000
   10       -7.936992   1.000000
   11       -7.832588   1.000000
   12       -7.785822   1.000000
   13       -7.665528   1.000000
   14       -7.613109   1.000000
   15       -7.020882   1.000000
   16       -6.962675   1.000000
   17       -6.805357   1.000000
   18       -6.760430   1.000000
   19       -6.650768   1.000000
   20       -6.459339   1.000000
   21       -6.063045   1.000000
   22       -6.035773   1.000000
   23       -5.823428   1.000000
   24       -5.689026   1.000000
   25       -5.683352   1.000000
   26       -5.552648   1.000000
   27       -5.510630   1.000000
   28       -5.170431   1.000000
   29       -5.048976   1.000000
   30       -5.039948   1.000000
   31       -4.389821   1.000000
   32       -4.329782   1.000000
   33       -4.168667   1.000000
   34       -4.056894   1.000000
   35       -3.977833   1.000000
   36       -3.912772   1.000000
   37       -3.653311   1.000000
   38       -3.361534   1.000000
   39       -3.192686   1.000000
   40       -3.020988   1.000000
   41       -2.922395   1.000000
   42       -2.792727   1.000000
   43       -2.688473   1.000000
   44       -2.517127   1.000000
   45       -2.436153   1.000000
   46       -2.389095   1.000000
   47       -2.344048   1.000000
   48       -2.204626   1.000000
   49       -2.162424   1.000000
   50       -2.096643   1.000000
   51       -1.842133   1.000000
   52       -1.793069   1.000000
   53       -1.726599   1.000000
   54       -1.680947   1.000000
   55       -1.638003   1.000000
   56       -1.541878   1.000000
   57       -1.495214   1.000000
   58       -1.426893   1.000000
   59       -1.388983   1.000000
   60       -1.358003   1.000000
   61       -1.337035   1.000000
   62       -1.296465   1.000000
   63       -1.198610   1.000000
   64       -1.014473   1.000000
   65       -0.989211   1.000000
   66       -0.956515   1.000000
   67       -0.889699   1.000000
   68       -0.796931   1.000000
   69       -0.739093   1.000000
   70       -0.627857   1.000000
   71       -0.578477   1.000000
   72       -0.435094   1.000000
   73       -0.338895   1.000000
   74       -0.169703   1.000000
   75       -0.091718   1.000000
   76       -0.020585   1.000000
   77        0.192798   1.000000
   78        0.220673   1.000000
   79        0.231855   1.000000
   80        0.465684   1.000000
   81        0.542245   1.000000
   82        0.596076   1.000000
   83        1.010979   1.000000
   84        1.076636   1.000000
   85        1.169094   1.000000
   86        1.395350   1.000000
   87        1.447485   1.000000
   88        1.494585   1.000000
   89        1.648010   1.000000
   90        1.660312   1.000000
   91        1.736233   1.000000
   92        1.776849   1.000000
   93        1.895918   1.000000
   94        1.954802   1.000000
   95        2.163359   1.000000
   96        2.249549   1.000008
   97        2.551587   1.011079
   98        2.642856   1.030306
   99        2.790058   0.960550
  100        2.830881   0.868903
  101        2.932363   0.491891
  102        3.006823   0.201466
  103        3.251124  -0.022909
  104        3.300281  -0.012614
  105        3.312268  -0.010604
  106        3.608637  -0.000009
  107        3.701970  -0.000000
  108        3.708653  -0.000000
  109        3.781404  -0.000000
  110        3.784008  -0.000000
  111        3.826039  -0.000000
  112        3.868744  -0.000000
  113        3.926968  -0.000000
  114        4.015671  -0.000000
  115        4.041887  -0.000000
  116        4.087825  -0.000000
  117        4.136722  -0.000000
  118        4.146546  -0.000000
  119        4.223855  -0.000000
  120        4.344655  -0.000000
  121        4.358466  -0.000000
  122        4.400416  -0.000000
  123        4.419131  -0.000000
  124        4.513688  -0.000000
  125        4.536483  -0.000000
  126        4.556025  -0.000000
  127        4.569805  -0.000000
  128        4.695761  -0.000000
  129        5.001893  -0.000000
  130        5.116270  -0.000000
  131        5.175515  -0.000000
  132        5.295706  -0.000000

  0.2222222E+00  0.3503827E-15  0.1262379E-14  0.4938272E-01
    1      -11.113937   1.000000
    2      -10.562355   1.000000
    3       -9.790994   1.000000
    4       -8.803740   1.000000
    5       -8.641118   1.000000
    6       -8.551521   1.000000
    7       -8.342453   1.000000
    8       -8.144475   1.000000
    9       -8.048660   1.000000
   10       -8.024408   1.000000
   11       -7.984920   1.000000
   12       -7.889077   1.000000
   13       -7.843110   1.000000
   14       -7.806763   1.000000
   15       -6.824265   1.000000
   16       -6.635820   1.000000
   17       -6.601607   1.000000
   18       -6.520997   1.000000
   19       -6.484394   1.000000
   20       -6.198701   1.000000
   21       -5.977858   1.000000
   22       -5.861389   1.000000
   23       -5.710741   1.000000
   24       -5.675594   1.000000
   25       -5.579057   1.000000
   26       -5.451899   1.000000
   27       -5.341675   1.000000
   28       -5.117949   1.000000
   29       -4.995012   1.000000
   30       -4.845718   1.000000
   31       -4.213382   1.000000
   32       -4.187217   1.000000
   33       -3.946966   1.000000
   34       -3.806908   1.000000
   35       -3.746859   1.000000
   36       -3.671103   1.000000
   37       -3.338290   1.000000
   38       -3.257743   1.000000
   39       -3.171160   1.000000
   40       -3.112661   1.000000
   41       -3.038985   1.000000
   42       -2.935409   1.000000
   43       -2.914780   1.000000
   44       -2.801402   1.000000
   45       -2.568423   1.000000
   46       -2.424916   1.000000
   47       -2.391540   1.000000
   48       -2.273537   1.000000
   49       -2.118817   1.000000
   50       -2.059238   1.000000
   51       -1.899685   1.000000
   52       -1.826451   1.000000
   53       -1.765839   1.000000
   54       -1.722176   1.000000
   55       -1.657120   1.000000
   56       -1.639328   1.000000
   57       -1.581675   1.000000
   58       -1.471213   1.000000
   59       -1.433714   1.000000
   60       -1.369871   1.000000
   61       -1.351764   1.000000
   62       -1.312399   1.000000
   63       -1.273340   1.000000
   64       -1.150272   1.000000
   65       -1.134048   1.000000
   66       -1.016939   1.000000
   67       -1.000723   1.000000
   68       -0.915534   1.000000
   69       -0.843506   1.000000
   70       -0.764983   1.000000
   71       -0.663156   1.000000
   72       -0.586966   1.000000
   73       -0.447491   1.000000
   74       -0.393945   1.000000
   75       -0.341225   1.000000
   76       -0.027640   1.000000
   77        0.061445   1.000000
   78        0.152022   1.000000
   79        0.212880   1.000000
   80        0.347485   1.000000
   81        0.523207   1.000000
   82        0.601404   1.000000
   83        0.734329   1.000000
   84        0.833341   1.000000
   85        1.031412   1.000000
   86        1.142113   1.000000
   87        1.317642   1.000000
   88        1.453868   1.000000
   89        1.501143   1.000000
   90        1.617679   1.000000
   91        1.627301   1.000000
   92        1.809548   1.000000
   93        1.857690   1.000000
   94        1.933998   1.000000
   95        2.088444   1.000000
   96        2.236925   1.000005
   97        2.521176   1.006863
   98        2.593462   1.019209
   99        2.779009   0.978269
  100        2.929600   0.503582
  101        3.081530   0.022254
  102        3.134080  -0.026912
  103        3.242162  -0.024983
  104        3.387476  -0.002864
  105        3.419612  -0.001470
  106        3.534996  -0.000082
  107        3.559581  -0.000040
  108        3.607074  -0.000009
  109        3.648646  -0.000002
  110        3.662711  -0.000001
  111        3.758406  -0.000000
  112        3.844333  -0.000000
  113        3.878227  -0.000000
  114        3.896529  -0.000000
  115        3.954525  -0.000000
  116        4.006310  -0.000000
  117        4.083849  -0.000000
  118        4.125801  -0.000000
  119        4.188805  -0.000000
  120        4.248187  -0.000000
  121        4.284099  -0.000000
  122        4.376500  -0.000000
  123        4.425791  -0.000000
  124        4.462535  -0.000000
  125        4.501028  -0.000000
  126        4.659364  -0.000000
  127        4.689774  -0.000000
  128        4.728694  -0.000000
  129        4.828381  -0.000000
  130        4.949310  -0.000000
  131        5.015637  -0.000000
  132        5.175012  -0.000000

  0.3333333E+00  0.3767071E-15  0.1262379E-14  0.4938272E-01
    1      -10.837435   1.000000
    2      -10.316882   1.000000
    3       -9.622969   1.000000
    4       -9.406054   1.000000
    5       -9.085357   1.000000
    6       -8.803570   1.000000
    7       -8.248886   1.000000
    8       -8.190091   1.000000
    9       -8.152767   1.000000
   10       -8.111865   1.000000
   11       -8.022370   1.000000
   12       -7.964037   1.000000
   13       -7.891182   1.000000
   14       -7.717267   1.000000
   15       -7.178389   1.000000
   16       -6.785793   1.000000
   17       -6.390745   1.000000
   18       -6.293584   1.000000
   19       -6.083096   1.000000
   20       -5.973797   1.000000
   21       -5.811454   1.000000
   22       -5.765573   1.000000
   23       -5.693078   1.000000
   24       -5.530019   1.000000
   25       -5.457169   1.000000
   26       -5.264387   1.000000
   27       -4.941439   1.000000
   28       -4.812958   1.000000
   29       -4.528807   1.000000
   30       -4.423434   1.000000
   31       -4.019950   1.000000
   32       -3.926118   1.000000
   33       -3.813274   1.000000
   34       -3.611823   1.000000
   35       -3.576970   1.000000
   36       -3.529708   1.000000
   37       -3.471818   1.000000
   38       -3.429627   1.000000
   39       -3.342430   1.000000
   40       -3.296095   1.000000
   41       -3.166745   1.000000
   42       -3.136133   1.000000
   43       -2.875196   1.000000
   44       -2.709658   1.000000
   45       -2.596191   1.000000
   46       -2.477753   1.000000
   47       -2.311614   1.000000
   48       -2.275716   1.000000
   49       -2.218005   1.000000
   50       -2.081078   1.000000
   51       -2.068495   1.000000
   52       -2.012612   1.000000
   53       -1.888229   1.000000
   54       -1.870279   1.000000
   55       -1.727644   1.000000
   56       -1.689788   1.000000
   57       -1.639015   1.000000
   58       -1.585436   1.000000
   59       -1.563271   1.000000
   60       -1.499642   1.000000
   61       -1.459177   1.000000
   62       -1.383176   1.000000
   63       -1.343717   1.000000
   64       -1.270759   1.000000
   65       -1.185917   1.000000
   66       -1.109758   1.000000
   67       -1.066331   1.000000
   68       -0.977369   1.000000
   69       -0.953987   1.000000
   70       -0.907817   1.000000
   71       -0.786529   1.000000
   72       -0.680272   1.000000
   73       -0.641632   1.000000
   74       -0.436200   1.000000
   75       -0.408837   1.000000
   76       -0.365975   1.000000
   77       -0.104491   1.000000
   78        0.020896   1.000000
   79        0.247473   1.000000
   80        0.463093   1.000000
   81        0.517484   1.000000
   82        0.586977   1.000000
   83        0.734905   1.000000
   84        0.785244   1.000000
   85        0.899462   1.000000
   86        1.118993   1.000000
   87        1.166250   1.000000
   88        1.306982   1.000000
   89        1.394842   1.000000
   90        1.501864   1.000000
   91        1.581087   1.000000
   92        1.674969   1.000000
   93        1.802274   1.000000
   94        1.850678   1.000000
   95        2.120134   1.000000
   96        2.223188   1.000003
   97        2.302529   1.000042
   98        2.434926   1.001279
   99        2.580595   1.016456
  100        2.852551   0.803520
  101        2.975298   0.315407
  102        3.091944   0.008061
  103        3.161684  -0.034664
  104        3.225071  -0.028832
  105        3.286356  -0.015230
  106        3.305844  -0.011652
  107        3.426969  -0.001251
  108        3.510556  -0.000161
  109        3.590623  -0.000016
  110        3.619877  -0.000006
  111        3.686083  -0.000001
  112        3.724930  -0.000000
  113        3.731905  -0.000000
  114        3.889778  -0.000000
  115        3.909048  -0.000000
  116        3.992444  -0.000000
  117        4.057269  -0.000000
  118        4.088363  -0.000000
  119        4.129282  -0.000000
  120        4.202908  -0.000000
  121        4.342851  -0.000000
  122        4.406433  -0.000000
  123        4.475967  -0.000000
  124        4.526040  -0.000000
  125        4.589822  -0.000000
  126        4.591478  -0.000000
  127        4.754427  -0.000000
  128        4.780918  -0.000000
  129        4.813529  -0.000000
  130        4.901176  -0.000000
  131        5.035571  -0.000000
  132        5.166722  -0.000000

  0.4444444E+00  0.3698634E-15  0.1262379E-14  0.4938272E-01
    1      -10.478955   1.000000
    2      -10.013427   1.000000
    3       -9.917826   1.000000
    4       -9.572715   1.000000
    5       -9.365799   1.000000
    6       -9.060163   1.000000
    7       -8.298365   1.000000
    8       -8.248879   1.000000
    9       -8.183371   1.000000
   10       -8.054965   1.000000
   11       -8.023140   1.000000
   12       -7.923607   1.000000
   13       -7.869527   1.000000
   14       -7.549593   1.000000
   15       -7.474202   1.000000
   16       -7.110048   1.000000
   17       -6.295538   1.000000
   18       -6.188501   1.000000
   19       -5.846563   1.000000
   20       -5.798360   1.000000
   21       -5.720502   1.000000
   22       -5.586697   1.000000
   23       -5.489329   1.000000
   24       -5.471699   1.000000
   25       -5.401282   1.000000
   26       -5.356465   1.000000
   27       -4.362450   1.000000
   28       -4.199282   1.000000
   29       -4.092858   1.000000
   30       -4.020039   1.000000
   31       -4.002645   1.000000
   32       -3.856596   1.000000
   33       -3.822896   1.000000
   34       -3.787410   1.000000
   35       -3.660574   1.000000
   36       -3.562838   1.000000
   37       -3.516644   1.000000
   38       -3.486107   1.000000
   39       -3.395598   1.000000
   40       -3.317761   1.000000
   41       -3.168562   1.000000
   42       -3.145741   1.000000
   43       -3.135444   1.000000
   44       -3.059330   1.000000
   45       -2.638895   1.000000
   46       -2.592078   1.000000
   47       -2.434421   1.000000
   48       -2.314624   1.000000
   49       -2.171244   1.000000
   50       -2.117363   1.000000
   51       -2.021675   1.000000
   52       -1.995600   1.000000
   53       -1.974410   1.000000
   54       -1.847401   1.000000
   55       -1.793587   1.000000
   56       -1.776251   1.000000
   57       -1.694440   1.000000
   58       -1.644777   1.000000
   59       -1.573436   1.000000
   60       -1.563385   1.000000
   61       -1.543038   1.000000
   62       -1.485057   1.000000
   63       -1.423762   1.000000
   64       -1.301184   1.000000
   65       -1.262039   1.000000
   66       -1.201639   1.000000
   67       -1.164512   1.000000
   68       -1.079799   1.000000
   69       -0.951735   1.000000
   70       -0.916490   1.000000
   71       -0.852194   1.000000
   72       -0.741967   1.000000
   73       -0.664272   1.000000
   74       -0.509902   1.000000
   75       -0.439858   1.000000
   76       -0.422174   1.000000
   77       -0.361612   1.000000
   78        0.102988   1.000000
   79        0.307563   1.000000
   80        0.329454   1.000000
   81        0.360639   1.000000
   82        0.694568   1.000000
   83        0.749722   1.000000
   84        0.869703   1.000000
   85        0.902857   1.000000
   86        1.064232   1.000000
   87        1.099562   1.000000
   88        1.223738   1.000000
   89        1.351535   1.000000
   90        1.503579   1.000000
   91        1.570325   1.000000
   92        1.671612   1.000000
   93        1.786647   1.000000
   94        1.942004   1.000000
   95        2.021334   1.000000
   96        2.252360   1.000009
   97        2.323720   1.000077
   98        2.340544   1.000124
   99        2.408675   1.000702
  100        2.502240   1.004937
  101        2.543700   1.009845
  102        2.856397   0.790788
  103        2.955789   0.393714
  104        3.111093  -0.011953
  105        3.184290  -0.035171
  106        3.319207  -0.009546
  107        3.384506  -0.003036
  108        3.411038  -0.001767
  109        3.465858  -0.000506
  110        3.530110  -0.000094
  111        3.574070  -0.000026
  112        3.601553  -0.000011
  113        3.683433  -0.000001
  114        3.800439  -0.000000
  115        3.866746  -0.000000
  116        3.973238  -0.000000
  117        4.039324  -0.000000
  118        4.069311  -0.000000
  119        4.150489  -0.000000
  120        4.208632  -0.000000
  121        4.376402  -0.000000
  122        4.468235  -0.000000
  123        4.493279  -0.000000
  124        4.585504  -0.000000
  125        4.657096  -0.000000
  126        4.674126  -0.000000
  127        4.822941  -0.000000
  128        4.897822  -0.000000
  129        4.969731  -0.000000
  130        5.044821  -0.000000
  131        5.153164  -0.000000
  132        5.260231  -0.000000

  0.1111111E+00  0.1111111E+00  0.1262379E-14  0.2469136E-01
    1      -11.170236   1.000000
    2      -10.613018   1.000000
    3       -9.827455   1.000000
    4       -8.547349   1.000000
    5       -8.531051   1.000000
    6       -8.428517   1.000000
    7       -8.408215   1.000000
    8       -8.254931   1.000000
    9       -8.169996   1.000000
   10       -8.134493   1.000000
   11       -7.951038   1.000000
   12       -7.944728   1.000000
   13       -7.658552   1.000000
   14       -7.244611   1.000000
   15       -7.195760   1.000000
   16       -6.720500   1.000000
   17       -6.718293   1.000000
   18       -6.571306   1.000000
   19       -6.488680   1.000000
   20       -6.134156   1.000000
   21       -6.016518   1.000000
   22       -6.003664   1.000000
   23       -5.792906   1.000000
   24       -5.667722   1.000000
   25       -5.560441   1.000000
   26       -5.463186   1.000000
   27       -5.391597   1.000000
   28       -5.162258   1.000000
   29       -4.983645   1.000000
   30       -4.915149   1.000000
   31       -4.482489   1.000000
   32       -4.166519   1.000000
   33       -3.951290   1.000000
   34       -3.916730   1.000000
   35       -3.785790   1.000000
   36       -3.662228   1.000000
   37       -3.423028   1.000000
   38       -3.354299   1.000000
   39       -3.204458   1.000000
   40       -3.094577   1.000000
   41       -2.986400   1.000000
   42       -2.916914   1.000000
   43       -2.799205   1.000000
   44       -2.610966   1.000000
   45       -2.550400   1.000000
   46       -2.370380   1.000000
   47       -2.357863   1.000000
   48       -2.187377   1.000000
   49       -2.187019   1.000000
   50       -2.090746   1.000000
   51       -2.061729   1.000000
   52       -1.868146   1.000000
   53       -1.804520   1.000000
   54       -1.651755   1.000000
   55       -1.640891   1.000000
   56       -1.588660   1.000000
   57       -1.528075   1.000000
   58       -1.432744   1.000000
   59       -1.423749   1.000000
   60       -1.343575   1.000000
   61       -1.309406   1.000000
   62       -1.263557   1.000000
   63       -1.170644   1.000000
   64       -1.142469   1.000000
   65       -1.132871   1.000000
   66       -1.005904   1.000000
   67       -0.992539   1.000000
   68       -0.844656   1.000000
   69       -0.825760   1.000000
   70       -0.697474   1.000000
   71       -0.574137   1.000000
   72       -0.515158   1.000000
   73       -0.436010   1.000000
   74       -0.385230   1.000000
   75       -0.333182   1.000000
   76       -0.060679   1.000000
   77        0.162126   1.000000
   78        0.177246   1.000000
   79        0.240640   1.000000
   80        0.407245   1.000000
   81        0.465932   1.000000
   82        0.567285   1.000000
   83        0.620270   1.000000
   84        0.932678   1.000000
   85        1.188948   1.000000
   86        1.211048   1.000000
   87        1.449620   1.000000
   88        1.509771   1.000000
   89        1.537625   1.000000
   90        1.572238   1.000000
   91        1.581268   1.000000
   92        1.718099   1.000000
   93        1.845276   1.000000
   94        2.072368   1.000000
   95        2.077358   1.000000
   96        2.252844   1.000009
   97        2.639962   1.029711
   98        2.700372   1.034516
   99        2.734080   1.023138
  100        2.784572   0.969711
  101        3.044427   0.093949
  102        3.146455  -0.031564
  103        3.169247  -0.035306
  104        3.325312  -0.008678
  105        3.406311  -0.001952
  106        3.508249  -0.000171
  107        3.639500  -0.000003
  108        3.659606  -0.000002
  109        3.788184  -0.000000
  110        3.796213  -0.000000
  111        3.803300  -0.000000
  112        3.861499  -0.000000
  113        3.904843  -0.000000
  114        3.938386  -0.000000
  115        4.001298  -0.000000
  116        4.034862  -0.000000
  117        4.075963  -0.000000
  118        4.129878  -0.000000
  119        4.152248  -0.000000
  120        4.194363  -0.000000
  121        4.269254  -0.000000
  122        4.286388  -0.000000
  123        4.389240  -0.000000
  124        4.493835  -0.000000
  125        4.577671  -0.000000
  126        4.584286  -0.000000
  127        4.729547  -0.000000
  128        4.783591  -0.000000
  129        4.862124  -0.000000
  130        4.909157  -0.000000
  131        5.101090  -0.000000
  132        5.177574  -0.000000

  0.2222222E+00  0.1111111E+00  0.1262379E-14  0.4938272E-01
    1      -10.946162   1.000000
    2      -10.413630   1.000000
    3       -9.687517   1.000000
    4       -9.091528   1.000000
    5       -8.835296   1.000000
    6       -8.664478   1.000000
    7       -8.589110   1.000000
    8       -8.451799   1.000000
    9       -8.320946   1.000000
   10       -8.201043   1.000000
   11       -7.843272   1.000000
   12       -7.800326   1.000000
   13       -7.608015   1.000000
   14       -7.406433   1.000000
   15       -6.954886   1.000000
   16       -6.741652   1.000000
   17       -6.651035   1.000000
   18       -6.582273   1.000000
   19       -6.466497   1.000000
   20       -6.140683   1.000000
   21       -5.977716   1.000000
   22       -5.625228   1.000000
   23       -5.516549   1.000000
   24       -5.441358   1.000000
   25       -5.289866   1.000000
   26       -5.218887   1.000000
   27       -5.110055   1.000000
   28       -4.958157   1.000000
   29       -4.728910   1.000000
   30       -4.646672   1.000000
   31       -4.473124   1.000000
   32       -4.145633   1.000000
   33       -3.725042   1.000000
   34       -3.638416   1.000000
   35       -3.554082   1.000000
   36       -3.504640   1.000000
   37       -3.418582   1.000000
   38       -3.371211   1.000000
   39       -3.265417   1.000000
   40       -3.189203   1.000000
   41       -3.026166   1.000000
   42       -2.963852   1.000000
   43       -2.800884   1.000000
   44       -2.725600   1.000000
   45       -2.584552   1.000000
   46       -2.479151   1.000000
   47       -2.432044   1.000000
   48       -2.255264   1.000000
   49       -2.163730   1.000000
   50       -2.097186   1.000000
   51       -2.077771   1.000000
   52       -1.986448   1.000000
   53       -1.951610   1.000000
   54       -1.875075   1.000000
   55       -1.848624   1.000000
   56       -1.697011   1.000000
   57       -1.625135   1.000000
   58       -1.535874   1.000000
   59       -1.452282   1.000000
   60       -1.383560   1.000000
   61       -1.365562   1.000000
   62       -1.315290   1.000000
   63       -1.301734   1.000000
   64       -1.200524   1.000000
   65       -1.165609   1.000000
   66       -1.062337   1.000000
   67       -1.047776   1.000000
   68       -0.980849   1.000000
   69       -0.941349   1.000000
   70       -0.867629   1.000000
   71       -0.705364   1.000000
   72       -0.619290   1.000000
   73       -0.557299   1.000000
   74       -0.542859   1.000000
   75       -0.406704   1.000000
   76       -0.111392   1.000000
   77       -0.061693   1.000000
   78        0.104651   1.000000
   79        0.186321   1.000000
   80        0.330693   1.000000
   81        0.362039   1.000000
   82        0.486100   1.000000
   83        0.824452   1.000000
   84        0.895844   1.000000
   85        1.008965   1.000000
   86        1.134487   1.000000
   87        1.236854   1.000000
   88        1.394111   1.000000
   89        1.439919   1.000000
   90        1.504927   1.000000
   91        1.616596   1.000000
   92        1.661926   1.000000
   93        1.745931   1.000000
   94        1.865916   1.000000
   95        2.156512   1.000000
   96        2.227070   1.000004
   97        2.342044   1.000129
   98        2.488429   1.003828