    3    3   60    1
  0.8144830E+01  0.3039000E-09  0.3039000E-09  0.3055000E-09  0.5000000E-15
   1.0000000000000000E-004
  CAR 
 Name                                    
     12    216     10

  0.3742002E-15  0.3742002E-15  0.3742002E-15  0.2962963E-03
    1       -5.573938   1.000000
    2        4.372523   1.000000
    3        4.372526   1.000000
    4        5.122711   1.000000
    5        6.099283   1.000000
    6        9.031614   1.000000
    7        9.031615   1.000000
    8       12.051262  -0.000000
    9       12.051265  -0.000000
   10       13.606030   0.000000

  0.6666667E-01  0.3766815E-15  0.3742002E-15  0.1777778E-02
    1       -5.486232   1.000000
    2        4.158946   1.000000
    3        4.409407   1.000000
    4        5.175293   1.000000
    5        5.851430   1.000000
    6        8.995751   1.000000
    7        9.367147   1.000388
    8       11.499423  -0.000000
    9       11.581658  -0.000000
   10       14.093904   0.000000

  0.1333333E+00  0.3754153E-15  0.3742002E-15  0.1777778E-02
    1       -5.226925   1.000000
    2        3.589851   1.000000
    3        4.505927   1.000000
    4        5.300614   1.000000
    5        5.329266   1.000000
    6        8.896193   1.000000
    7       10.125353  -0.000000
    8       10.646094  -0.000000
    9       10.928917  -0.000000
   10       14.727511   0.000000

  0.2000000E+00  0.3870416E-15  0.3742002E-15  0.1777778E-02
    1       -4.806970   1.000000
    2        2.806644   1.000000
    3        4.623852   1.000000
    4        4.781721   1.000000
    5        5.389364   1.000000
    6        8.754012   1.000000
    7       10.038615  -0.000000
    8       10.468702  -0.000000
    9       10.954994  -0.000000
   10       15.170025   0.000000

  0.2666667E+00  0.4120044E-15  0.3742002E-15  0.1777778E-02
    1       -4.243196   1.000000
    2        1.918176   1.000000
    3        4.306845   1.000000
    4        4.718266   1.000000
    5        5.301734   1.000000
    6        8.596860   1.000000
    7        9.926946  -0.000193
    8       10.257522  -0.000000
    9       11.538588  -0.000000
   10       15.480729   0.000000

  0.3333333E+00  0.4025434E-15  0.3742002E-15  0.1777778E-02
    1       -3.557101   1.000000
    2        0.983704   1.000000
    3        3.939142   1.000000
    4        4.763954   1.000000
    5        5.036395   1.000000
    6        8.452164   1.000000
    7       10.265021  -0.000000
    8       10.336007  -0.000000
    9       11.670755  -0.000000
   10       15.596418   0.000000

  0.4000000E+00  0.3732510E-15  0.3742002E-15  0.1777778E-02
    1       -2.775792   1.000000
    2        0.037956   1.000000
    3        3.691074   1.000000
    4        4.747484   1.000000
    5        4.769627   1.000000
    6        8.342609   1.000000
    7       10.390761  -0.000000
    8       11.040911  -0.000000
    9       11.539053  -0.000000
   10       15.678389   0.000000

  0.4666667E+00  0.3915456E-15  0.3742002E-15  0.1777778E-02
    1       -1.959396   1.000000
    2       -0.860134   1.000000
    3        3.566563   1.000000
    4        4.572125   1.000000
    5        4.762314   1.000000
    6        8.283887   1.000000
    7       10.501845  -0.000000
    8       11.414500  -0.000000
    9       11.646000  -0.000000
   10       15.711151   0.000000

  0.6666667E-01  0.6666667E-01  0.3742002E-15  0.1777778E-02
    1       -5.312689   1.000000
    2        3.783192   1.000000
    3        4.451901   1.000000
    4        5.273836   1.000000
    5        5.480454   1.000000
    6        8.908489   1.000000
    7        9.921955  -0.000250
    8       10.908498  -0.000000
    9       11.040551  -0.000000
   10       14.876125   0.000000

  0.1333333E+00  0.6666667E-01  0.3742002E-15  0.3555556E-02
    1       -4.972837   1.000000
    2        3.142363   1.000000
    3        4.471408   1.000000
    4        4.980370   1.000000
    5        5.441489   1.000000
    6        8.734950   1.000000
    7       10.189870  -0.000000
    8       10.606637  -0.000000
    9       10.754447  -0.000000
   10       15.234012   0.000000

  0.2000000E+00  0.6666667E-01  0.3742002E-15  0.3555556E-02
    1       -4.480277   1.000000
    2        2.344242   1.000000
    3        4.407179   1.000000
    4        4.505493   1.000000
    5        5.596652   1.000000
    6        8.510885   1.000000
    7        9.705047   0.059660
    8       10.465002  -0.000000
    9       11.559715  -0.000000
   10       15.435878   0.000000

  0.2666667E+00  0.6666667E-01  0.3742002E-15  0.3555556E-02
    1       -3.853783   1.000000
    2        1.462749   1.000000
    3        4.116238   1.000000
    4        4.235960   1.000000
    5        5.652442   1.000000
    6        8.275276   1.000000
    7        9.621931   0.652263
    8       10.626697  -0.000000
    9       12.017103  -0.000000
   10       15.489242   0.000000

  0.3333333E+00  0.6666667E-01  0.3742002E-15  0.3555556E-02
    1       -3.116640   1.000000
    2        0.540034   1.000000
    3        3.833918   1.000000
    4        4.012995   1.000000
    5        5.608867   1.000000
    6        8.068293   1.000000
    7        9.874245  -0.002298
    8       11.008989  -0.000000
    9       12.052725  -0.000000
   10       15.834985   0.000000

  0.4000000E+00  0.6666667E-01  0.3742002E-15  0.3555556E-02
    1       -2.301903   1.000000
    2       -0.387010   1.000000
    3        3.664386   1.000000
    4        3.832119   1.000000
    5        5.541710   1.000000
    6        7.926463   1.000000
    7       10.206796  -0.000000
    8       11.438758  -0.000000
    9       11.945116  -0.000000
   10       15.918772   0.000000

  0.4666667E+00  0.6666667E-01  0.3742002E-15  0.1777778E-02
    1       -1.636142   1.000000
    2       -1.090422   1.000000
    3        3.608001   1.000000
    4        3.763814   1.000000
    5        5.512673   1.000000
    6        7.875984   1.000000
    7       10.354192  -0.000000
    8       11.642486  -0.000000
    9       11.892073  -0.000000
   10       15.984526   0.000000

  0.1333333E+00  0.1333333E+00  0.3742002E-15  0.1777778E-02
    1       -4.559843   1.000000
    2        2.549137   1.000000
    3        4.202599   1.000000
    4        4.594217   1.000000
    5        5.738885   1.000000
    6        8.407420   1.000000
    7        9.615759   0.700604
    8       10.559006  -0.000000
    9       11.647522  -0.000000
   10       15.406511   0.000000

  0.2000000E+00  0.1333333E+00  0.3742002E-15  0.3555556E-02
    1       -4.002812   1.000000
    2        1.845681   1.000000
    3        3.785434   1.000000
    4        4.260922   1.000000
    5        6.087566   1.000000
    6        8.000233   1.000000
    7        9.185886   1.000000
    8       10.806505  -0.000000
    9       12.518135   0.000000
   10       15.141918   0.000000

  0.2666667E+00  0.1333333E+00  0.3742002E-15  0.3555556E-02
    1       -3.321345   1.000000
    2        1.046823   1.000000
    3        3.361468   1.000000
    4        4.014559   1.000000
    5        6.324561   1.000000
    6        7.598450   1.000000
    7        9.128285   1.000000
    8       11.160356  -0.000000
    9       12.980219   0.000000
   10       15.448445   0.000000

  0.3333333E+00  0.1333333E+00  0.3742002E-15  0.3555556E-02
    1       -2.540308   1.000000
    2        0.175981   1.000000
    3        3.037149   1.000000
    4        3.859604   1.000000
    5        6.379612   1.000000
    6        7.278336   1.000000
    7        9.461716   1.014998
    8       11.384861  -0.000000
    9       13.019625   0.000000
   10       16.204548   0.000000

  0.4000000E+00  0.1333333E+00  0.3742002E-15  0.3555556E-02
    1       -1.705173   1.000000
    2       -0.709906   1.000000
    3        2.865865   1.000000
    4        3.786911   1.000000
    5        6.357926   1.000000
    6        7.100788   1.000000
    7        9.879862  -0.001819
    8       11.371332  -0.000000
    9       12.968931   0.000000
   10       16.639609   0.000000

  0.2000000E+00  0.2000000E+00  0.3742002E-15  0.1777778E-02
    1       -3.389541   1.000000
    2        1.312555   1.000000
    3        3.047311   1.000000
    4        4.102316   1.000000
    5        6.665066   1.000000
    6        7.389999   1.000000
    7        8.759883   1.000000
    8       11.220585  -0.000000
    9       13.582248   0.000000
   10       14.976210   0.000000

  0.2666667E+00  0.2000000E+00  0.3742002E-15  0.3555556E-02
    1       -2.660550   1.000000
    2        0.682833   1.000000
    3        2.412090   1.000000
    4        4.039716   1.000000
    5        6.820724   1.000000
    6        7.108770   1.000000
    7        8.693778   1.000000
    8       11.394088  -0.000000
    9       14.173366   0.000000
   10       15.383570   0.000000

  0.3333333E+00  0.2000000E+00  0.3742002E-15  0.3555556E-02
    1       -1.843365   1.000000
    2       -0.091618   1.000000
    3        2.025418   1.000000
    4        4.044520   1.000000
    5        6.407248   1.000000
    6        7.221589   1.000000
    7        9.123190   1.000000
    8       11.169680  -0.000000
    9       14.194961   0.000000
   10       16.241286   0.000000

  0.4000000E+00  0.2000000E+00  0.3742002E-15  0.1777778E-02
    1       -1.062962   1.000000
    2       -0.867048   1.000000
    3        1.902418   1.000000
    4        4.058197   1.000000
    5        6.252753   1.000000
    6        7.214325   1.000000
    7        9.485908   1.025676
    8       10.901805  -0.000000
    9       14.173154   0.000000
   10       16.643447   0.000000

  0.2666667E+00  0.2666667E+00  0.3742002E-15  0.1777778E-02
    1       -1.893989   1.000000
    2        0.313235   1.000000
    3        1.549543   1.000000
    4        4.192609   1.000000
    5        6.104982   1.000000
    6        7.903006   1.000000
    7        8.450321   1.000000
    8       11.107317  -0.000000
    9       15.289652   0.000000
   10       15.392764   0.000000

  0.3333333E+00  0.2666667E+00  0.3742002E-15  0.3555556E-02
    1       -1.061876   1.000000
    2       -0.258673   1.000000
    3        1.048633   1.000000
    4        4.399263   1.000000
    5        5.601489   1.000000
    6        8.090819   1.000000
    7        8.898013   1.000000
    8       10.518653  -0.000000
    9       15.280623   0.000000
   10       16.197029   0.000000

  0.3333333E+00  0.3333333E+00  0.3742002E-15  0.5925926E-03
    1       -0.407154   1.000000
    2       -0.407151   1.000000
    3        0.419657   1.000000
    4        4.922500   1.000000
    5        4.922502   1.000000
    6        8.720278   1.000000
    7        8.720279   1.000000
    8       10.030669  -0.000000
    9       15.962180   0.000000
   10       15.962181   0.000000

  0.3742002E-15  0.3742002E-15  0.6666667E-01  0.5925926E-03
    1       -5.507564   1.000000
    2        4.426731   1.000000
    3        4.426733   1.000000
    4        4.680904   1.000000
    5        6.489096   1.000000
    6        8.814508   1.000000
    7        8.814509   1.000000
    8       11.896777  -0.000000
    9       11.896780  -0.000000
   10       14.107920   0.000000

  0.6666667E-01  0.3766815E-15  0.6666667E-01  0.3555556E-02
    1       -5.420898   1.000000
    2        4.207036   1.000000
    3        4.457720   1.000000
    4        4.697040   1.000000
    5        6.247473   1.000000
    6        8.766481   1.000000
    7        9.157335   1.000000
    8       11.504325  -0.000000
    9       11.585912  -0.000000
   10       14.266373   0.000000

  0.1333333E+00  0.3754153E-15  0.6666667E-01  0.3555556E-02
    1       -5.164797   1.000000
    2        3.619369   1.000000
    3        4.534347   1.000000
    4        4.684713   1.000000
    5        5.840805   1.000000
    6        8.651787   1.000000
    7        9.770788  -0.034564
    8       10.947185  -0.000000
    9       11.088041  -0.000000
   10       14.725095   0.000000

  0.2000000E+00  0.3870416E-15  0.6666667E-01  0.3555556E-02
    1       -4.750306   1.000000
    2        2.810983   1.000000
    3        4.515995   1.000000
    4        4.614662   1.000000
    5        5.563528   1.000000
    6        8.541985   1.000000
    7        9.856222  -0.004616
    8       10.699068  -0.000000
    9       11.150062  -0.000000
   10       14.940238   0.000000

  0.2666667E+00  0.4120044E-15  0.6666667E-01  0.3555556E-02
    1       -4.194302   1.000000
    2        1.900971   1.000000
    3        4.225810   1.000000
    4        4.654824   1.000000
    5        5.335418   1.000000
    6        8.496583   1.000000
    7        9.858772  -0.004203
    8       10.468757  -0.000000
    9       11.607476  -0.000000
   10       15.073277   0.000000

  0.3333333E+00  0.4025434E-15  0.6666667E-01  0.3555556E-02
    1       -3.517754   1.000000
    2        0.953833   1.000000
    3        3.950431   1.000000
    4        4.642258   1.000000
    5        5.039651   1.000000
    6        8.510028   1.000000
    7       10.231561  -0.000000
    8       10.398969  -0.000000
    9       11.725671  -0.000000
   10       15.565805   0.000000

  0.4000000E+00  0.3732510E-15  0.6666667E-01  0.3555556E-02
    1       -2.745362   1.000000
    2        0.003295   1.000000
    3        3.753850   1.000000
    4        4.602102   1.000000
    5        4.751267   1.000000
    6        8.534462   1.000000
    7       10.449188  -0.000000
    8       10.722697  -0.000000
    9       11.783620  -0.000000
   10       15.690895   0.000000

  0.4666667E+00  0.3915456E-15  0.6666667E-01  0.3555556E-02
    1       -1.921931   1.000000
    2       -0.907996   1.000000
    3        3.654177   1.000000
    4        4.570649   1.000000
    5        4.578648   1.000000
    6        8.545275   1.000000
    7       10.520514  -0.000000
    8       10.900830  -0.000000
    9       12.098077  -0.000000
   10       15.463721   0.000000

  0.6666667E-01  0.6666667E-01  0.6666667E-01  0.3555556E-02
    1       -5.249487   1.000000
    2        3.823641   1.000000
    3        4.478113   1.000000
    4        4.700730   1.000000
    5        5.962494   1.000000
    6        8.637630   1.000000
    7        9.681366   0.182582
    8       11.028672  -0.000000
    9       11.221955  -0.000000
   10       14.909950   0.000000

  0.1333333E+00  0.6666667E-01  0.6666667E-01  0.7111111E-02
    1       -4.913984   1.000000
    2        3.166357   1.000000
    3        4.419440   1.000000
    4        4.634374   1.000000
    5        5.762011   1.000000
    6        8.414403   1.000000
    7       10.124328  -0.000000
    8       10.593877  -0.000000
    9       11.104169  -0.000000
   10       15.147245   0.000000

  0.2000000E+00  0.6666667E-01  0.6666667E-01  0.7111111E-02
    1       -4.428136   1.000000
    2        2.344480   1.000000
    3        4.214335   1.000000
    4        4.498295   1.000000
    5        5.714574   1.000000
    6        8.225062   1.000000
    7        9.923399  -0.000232
    8       10.516671  -0.000000
    9       11.623802  -0.000000
   10       15.082981   0.000000

  0.2666667E+00  0.6666667E-01  0.6666667E-01  0.7111111E-02
    1       -3.810563   1.000000
    2        1.443101   1.000000
    3        3.968264   1.000000
    4        4.293974   1.000000
    5        5.638479   1.000000
    6        8.166579   1.000000
    7        9.860538  -0.003935
    8       10.616783  -0.000000
    9       12.011193  -0.000000
   10       15.254000   0.000000

  0.3333333E+00  0.6666667E-01  0.6666667E-01  0.7111111E-02
    1       -3.083506   1.000000
    2        0.510038   1.000000
    3        3.780972   1.000000
    4        4.050279   1.000000
    5        5.490507   1.000000
    6        8.190439   1.000000
    7       10.014472  -0.000001
    8       10.899852  -0.000000
    9       12.083072  -0.000000
   10       15.729173   0.000000

  0.4000000E+00  0.6666667E-01  0.6666667E-01  0.7111111E-02
    1       -2.275031   1.000000
    2       -0.421822   1.000000
    3        3.688967   1.000000
    4        3.837893   1.000000
    5        5.357294   1.000000
    6        8.200059   1.000000
    7       10.258900  -0.000000
    8       11.144249  -0.000000
    9       12.169082  -0.000000
   10       15.713226   0.000000

  0.4666667E+00  0.6666667E-01  0.6666667E-01  0.3555556E-02
    1       -1.569095   1.000000
    2       -1.168769   1.000000
    3        3.692994   1.000000
    4        3.724851   1.000000
    5        5.306254   1.000000
    6        8.197136   1.000000
    7       10.377738  -0.000000
    8       11.205924  -0.000000
    9       12.276256  -0.000000
   10       15.616877   0.000000

  0.1333333E+00  0.1333333E+00  0.6666667E-01  0.3555556E-02
    1       -4.506648   1.000000
    2        2.569144   1.000000
    3        4.033348   1.000000
    4        4.508364   1.000000
    5        5.953340   1.000000
    6        7.980389   1.000000
    7       10.025687  -0.000000
    8       10.507252  -0.000000
    9       11.691111  -0.000000
   10       15.224723   0.000000

  0.2000000E+00  0.1333333E+00  0.6666667E-01  0.7111111E-02
    1       -3.957739   1.000000
    2        1.849740   1.000000
    3        3.605839   1.000000
    4        4.298542   1.000000
    5        6.207457   1.000000
    6        7.613186   1.000000
    7        9.639343   0.507762
    8       10.799207  -0.000000
    9       12.451231   0.000000
   10       14.990365   0.000000

  0.2666667E+00  0.1333333E+00  0.6666667E-01  0.7111111E-02
    1       -3.286575   1.000000
    2        1.031350   1.000000
    3        3.243304   1.000000
    4        4.084171   1.000000
    5        6.215966   1.000000
    6        7.554575   1.000000
    7        9.467439   1.017335
    8       11.131716  -0.000000
    9       12.876524   0.000000
   10       15.262967   0.000000

  0.3333333E+00  0.1333333E+00  0.6666667E-01  0.7111111E-02
    1       -2.516412   1.000000
    2        0.150035   1.000000
    3        2.982143   1.000000
    4        3.929898   1.000000
    5        6.020011   1.000000
    6        7.650946   1.000000
    7        9.623716   0.637905
    8       11.324570  -0.000000
    9       12.962648   0.000000
   10       15.788018   0.000000

  0.4000000E+00  0.1333333E+00  0.6666667E-01  0.7111111E-02
    1       -1.681440   1.000000
    2       -0.745197   1.000000
    3        2.844954   1.000000
    4        3.854744   1.000000
    5        5.872723   1.000000
    6        7.678192   1.000000
    7        9.941635  -0.000086
    8       11.298935  -0.000000
    9       12.969537   0.000000
   10       16.024855   0.000000

  0.2000000E+00  0.2000000E+00  0.6666667E-01  0.3555556E-02
    1       -3.354232   1.000000
    2        1.313935   1.000000
    3        2.919194   1.000000
    4        4.149389   1.000000
    5        6.812912   1.000000
    6        6.972823   1.000000
    7        9.239413   1.000000
    8       11.210260  -0.000000
    9       13.416871   0.000000
   10       14.855779   0.000000

  0.2666667E+00  0.2000000E+00  0.6666667E-01  0.7111111E-02
    1       -2.637500   1.000000
    2        0.670017   1.000000
    3        2.349828   1.000000
    4        4.081672   1.000000
    5        6.389256   1.000000
    6        7.404426   1.000000
    7        9.045531   1.000000
    8       11.379300  -0.000000
    9       14.003828   0.000000
   10       15.202544   0.000000

  0.3333333E+00  0.2000000E+00  0.6666667E-01  0.7111111E-02
    1       -1.833240   1.000000
    2       -0.113301   1.000000
    3        2.011026   1.000000
    4        4.082554   1.000000
    5        5.984064   1.000000
    6        7.693121   1.000000
    7        9.278019   1.000002
    8       11.169267  -0.000000
    9       14.085828   0.000000
   10       15.927025   0.000000

  0.4000000E+00  0.2000000E+00  0.6666667E-01  0.3555556E-02
    1       -1.016334   1.000000
    2       -0.931767   1.000000
    3        1.903474   1.000000
    4        4.096039   1.000000
    5        5.832574   1.000000
    6        7.736443   1.000000
    7        9.569377   0.962917
    8       10.920914  -0.000000
    9       14.082657   0.000000
   10       16.263960   0.000000

  0.2666667E+00  0.2666667E+00  0.6666667E-01  0.3555556E-02
    1       -1.886444   1.000000
    2        0.293892   1.000000
    3        1.536790   1.000000
    4        4.209324   1.000000
    5        5.875682   1.000000
    6        8.036009   1.000000
    7        8.780702   1.000000
    8       11.117583  -0.000000
    9       15.154519   0.000000
   10       15.182263   0.000000

  0.3333333E+00  0.2666667E+00  0.6666667E-01  0.7111111E-02
    1       -1.074978   1.000000
    2       -0.280368   1.000000
    3        1.072125   1.000000
    4        4.396821   1.000000
    5        5.433123   1.000000
    6        8.347094   1.000000
    7        9.047409   1.000000
    8       10.557224  -0.000000
    9       15.162711   0.000000
   10       15.998105   0.000000

  0.3333333E+00  0.3333333E+00  0.6666667E-01  0.1185185E-02
    1       -0.449903   1.000000
    2       -0.449901   1.000000
    3        0.498307   1.000000
    4        4.859386   1.000000
    5        4.859388   1.000000
    6        8.902410   1.000000
    7        8.902411   1.000000
    8       10.076252  -0.000000
    9       15.829503   0.000000
   10       15.829503   0.000000

  0.3742002E-15  0.3742002E-15  0.1333333E+00  0.5925926E-03
    1       -5.312190   1.000000
    2        3.905295   1.000000
    3        4.588947   1.000000
    4        4.588950   1.000000
    5        7.128161   1.000000
    6        8.308687   1.000000
    7        8.308689   1.000000
    8       11.464019  -0.000000
    9       11.464022  -0.000000
   10       14.082444   0.000000

  0.6666667E-01  0.3766815E-15  0.1333333E+00  0.3555556E-02
    1       -5.228801   1.000000
    2        3.921456   1.000000
    3        4.353677   1.000000
    4        4.600199   1.000000
    5        6.761776   1.000000
    6        8.252831   1.000000
    7        8.748608   1.000000
    8       11.306075  -0.000000
    9       11.409606  -0.000000
   10       14.378144   0.000000

  0.1333333E+00  0.3754153E-15  0.1333333E+00  0.3555556E-02
    1       -4.982657   1.000000
    2        3.651871   1.000000
    3        4.030876   1.000000
    4        4.612274   1.000000
    5        6.241953   1.000000
    6        8.158710   1.000000
    7        9.326914   1.000043
    8       11.158582  -0.000000
    9       11.273163  -0.000000
   10       14.857063   0.000000

  0.2000000E+00  0.3870416E-15  0.1333333E+00  0.3555556E-02
    1       -4.585329   1.000000
    2        2.801081   1.000000
    3        4.047169   1.000000
    4        4.578199   1.000000
    5        5.799013   1.000000
    6        8.165476   1.000000
    7        9.528182   1.033547
    8       11.097854  -0.000000
    9       11.467922  -0.000000
   10       14.646174   0.000000

  0.2666667E+00  0.4120044E-15  0.1333333E+00  0.3555556E-02
    1       -4.053871   1.000000
    2        1.850628   1.000000
    3        4.027174   1.000000
    4        4.474972   1.000000
    5        5.402470   1.000000
    6        8.346208   1.000000
    7        9.657473   0.356695
    8       10.916911  -0.000000
    9       11.853931  -0.000000
   10       14.609733   0.000000

  0.3333333E+00  0.4025434E-15  0.1333333E+00  0.3555556E-02
    1       -3.408305   1.000000
    2        0.884796   1.000000
    3        3.971448   1.000000
    4        4.332205   1.000000
    5        5.036108   1.000000
    6        8.658220   1.000000
    7        9.958759  -0.000032
    8       10.757210  -0.000000
    9       11.960938  -0.000000
   10       15.004199   0.000000

  0.4000000E+00  0.3732510E-15  0.1333333E+00  0.3555556E-02
    1       -2.669022   1.000000
    2       -0.064685   1.000000
    3        3.916911   1.000000
    4        4.202713   1.000000
    5        4.740778   1.000000
    6        8.983131   1.000000
    7       10.244972  -0.000000
    8       10.640121  -0.000000
    9       12.143198  -0.000000
   10       15.241285   0.000000

  0.4666667E+00  0.3915456E-15  0.1333333E+00  0.3555556E-02
    1       -1.855030   1.000000
    2       -0.981874   1.000000
    3        3.887227   1.000000
    4        4.127849   1.000000
    5        4.574314   1.000000
    6        9.189230   1.000000
    7       10.333818  -0.000000
    8       10.579206  -0.000000
    9       12.540730   0.000000
   10       14.969340   0.000000

  0.6666667E-01  0.6666667E-01  0.1333333E+00  0.3555556E-02
    1       -5.064015   1.000000
    2        3.931075   1.000000
    3        3.941653   1.000000
    4        4.590771   1.000000
    5        6.427192   1.000000
    6        8.076661   1.000000
    7        9.296375   1.000007
    8       11.070426  -0.000000
    9       11.375650  -0.000000
   10       14.903672   0.000000

  0.1333333E+00  0.6666667E-01  0.1333333E+00  0.7111111E-02
    1       -4.742150   1.000000
    2        3.220307   1.000000
    3        3.911737   1.000000
    4        4.534219   1.000000
    5        6.162477   1.000000
    6        7.841781   1.000000
    7        9.786361  -0.029350
    8       10.901343  -0.000000
    9       11.454633  -0.000000
   10       15.021450   0.000000

  0.2000000E+00  0.6666667E-01  0.1333333E+00  0.7111111E-02
    1       -4.277356   1.000000
    2        2.334643   1.000000
    3        3.834648   1.000000
    4        4.431748   1.000000
    5        5.904081   1.000000
    6        7.819753   1.000000
    7        9.938175  -0.000105
    8       10.852574  -0.000000
    9       11.825606  -0.000000
   10       14.705762   0.000000

  0.2666667E+00  0.6666667E-01  0.1333333E+00  0.7111111E-02
    1       -3.688156   1.000000
    2        1.392397   1.000000
    3        3.729453   1.000000
    4        4.282171   1.000000
    5        5.568924   1.000000
    6        8.080623   1.000000
    7       10.109049  -0.000000
    8       10.762466  -0.000000
    9       12.120336  -0.000000
   10       14.791578   0.000000

  0.3333333E+00  0.6666667E-01  0.1333333E+00  0.7111111E-02
    1       -2.994877   1.000000
    2        0.445425   1.000000
    3        3.641822   1.000000
    4        4.110948   1.000000
    5        5.239385   1.000000
    6        8.474005   1.000000
    7       10.324315  -0.000000
    8       10.706514  -0.000000
    9       12.235030  -0.000000
   10       15.173592   0.000000

  0.4000000E+00  0.6666667E-01  0.1333333E+00  0.7111111E-02
    1       -2.217569   1.000000
    2       -0.482052   1.000000
    3        3.592754   1.000000
    4        3.972642   1.000000
    5        5.008850   1.000000
    6        8.797630   1.000000
    7       10.422961  -0.000000
    8       10.715887  -0.000000
    9       12.477285   0.000000
   10       15.195238   0.000000

  0.4666667E+00  0.6666667E-01  0.1333333E+00  0.3555556E-02
    1       -1.376274   1.000000
    2       -1.372838   1.000000
    3        3.578794   1.000000
    4        3.919087   1.000000
    5        4.927053   1.000000
    6        8.916338   1.000000
    7       10.445584  -0.000000
    8       10.720712  -0.000000
    9       12.668861   0.000000
   10       15.047809   0.000000

  0.1333333E+00  0.1333333E+00  0.1333333E+00  0.3555556E-02
    1       -4.352503   1.000000
    2        2.625401   1.000000
    3        3.583641   1.000000
    4        4.414870   1.000000
    5        6.388186   1.000000
    6        7.295942   1.000000
    7       10.343729  -0.000000
    8       10.592697  -0.000000
    9       11.845734  -0.000000
   10       14.972678   0.000000

  0.2000000E+00  0.1333333E+00  0.1333333E+00  0.7111111E-02
    1       -3.829130   1.000000
    2        1.858052   1.000000
    3        3.254667   1.000000
    4        4.300414   1.000000
    5        6.344008   1.000000
    6        7.205808   1.000000
    7       10.321863  -0.000000
    8       10.762104  -0.000000
    9       12.387785   0.000000
   10       14.699729   0.000000

  0.2666667E+00  0.1333333E+00  0.1333333E+00  0.7111111E-02
    1       -3.190934   1.000000
    2        0.993390   1.000000
    3        3.014117   1.000000
    4        4.176364   1.000000
    5        5.878843   1.000000
    6        7.707661   1.000000
    7       10.151171  -0.000000
    8       11.032597  -0.000000
    9       12.740754   0.000000
   10       14.863455   0.000000

  0.3333333E+00  0.1333333E+00  0.1333333E+00  0.7111111E-02
    1       -2.458636   1.000000
    2        0.097823   1.000000
    3        2.857267   1.000000
    4        4.077863   1.000000
    5        5.483055   1.000000
    6        8.236538   1.000000
    7       10.076140  -0.000000
    8       11.154944  -0.000000
    9       12.897251   0.000000
   10       15.233509   0.000000

  0.4000000E+00  0.1333333E+00  0.1333333E+00  0.7111111E-02
    1       -1.654279   1.000000
    2       -0.790291   1.000000
    3        2.778504   1.000000
    4        4.030047   1.000000
    5        5.263085   1.000000
    6        8.548863   1.000000
    7       10.126493  -0.000000
    8       11.123312  -0.000000
    9       13.000330   0.000000
   10       15.375832   0.000000

  0.2000000E+00  0.2000000E+00  0.1333333E+00  0.3555556E-02
    1       -3.256294   1.000000
    2        1.315658   1.000000
    3        2.650588   1.000000
    4        4.210181   1.000000
    5        6.308975   1.000000
    6        7.212660   1.000000
    7       10.059911  -0.000000
    8       11.161642  -0.000000
    9       13.126391   0.000000
   10       14.594698   0.000000

  0.2666667E+00  0.2000000E+00  0.1333333E+00  0.7111111E-02
    1       -2.578663   1.000000
    2        0.636093   1.000000
    3        2.217498   1.000000
    4        4.165207   1.000000
    5        5.799142   1.000000
    6        7.842666   1.000000
    7        9.802519  -0.022024
    8       11.331495  -0.000000
    9       13.673103   0.000000
   10       14.842313   0.000000
