 running on    4 total cores
 distrk:  each k-point on    4 cores,    1 groups
 distr:  one band on    2 cores,    2 groups
 using from now: INCAR     
 vasp.5.4.4.18Apr17-6-g9f103f2a35 (build Dec  7 2020 12:43:57) complex           
 POSCAR found type information on POSCAR  Mo B 
 POSCAR found :  2 types and       3 ions
 scaLAPACK will be used
 LDA part: xc-table for Pade appr. of Perdew
 POSCAR, INCAR and KPOINTS ok, starting setup
 FFT: planning ...
 WAVECAR not read
 augmentation electrons   12.018373587906812     
 soft         electrons   0.0000000000000000     
 augmentation electrons   12.018373587906812     
 soft         electrons   0.0000000000000000     
 augmentation electrons   12.018373587906812     
 soft         electrons   0.0000000000000000     
 augmentation electrons   12.018373587906812     
 soft         electrons   0.0000000000000000     
 total        electrons   12.018373587906812     
 total        electrons   12.018373587906812     
 total        electrons   12.018373587906812     
 total        electrons   12.018373587906812     
 augmentation electrons   169.75791458332097     
 soft         electrons   0.0000000000000000     
 augmentation electrons   169.75791458332097     
 soft         electrons   0.0000000000000000     
 augmentation electrons   169.75791458332097     
 soft         electrons   0.0000000000000000     
 augmentation electrons   169.75791458332097     
 soft         electrons   0.0000000000000000     
 total        electrons   169.75791458332097     
 total        electrons   169.75791458332097     
 total        electrons   169.75791458332097     
 total        electrons   169.75791458332097     
 entering main loop
       N       E                     dE             d eps       ncg     rms          rms(c)
DAV:   1     0.383845707128E+02    0.38385E+02   -0.57075E+03  4320   0.105E+03
DAV:   2    -0.182695073579E+02   -0.56654E+02   -0.53727E+02  5166   0.218E+02
DAV:   3    -0.204868383086E+02   -0.22173E+01   -0.21162E+01  6152   0.380E+01
DAV:   4    -0.205150148729E+02   -0.28177E-01   -0.27899E-01  5580   0.318E+00
DAV:   5    -0.205154330722E+02   -0.41820E-03   -0.41762E-03  5612   0.298E-01    0.338E+01
RMM:   6    -0.161269356578E+02    0.43885E+01   -0.14619E+01  4341   0.250E+01    0.757E+00
RMM:   7    -0.162321558407E+02   -0.10522E+00   -0.67992E-01  4329   0.558E+00    0.456E+00
RMM:   8    -0.163727023150E+02   -0.14055E+00   -0.90286E-01  4320   0.124E+01    0.469E+00
RMM:   9    -0.163256002064E+02    0.47102E-01   -0.18397E-01  4324   0.323E+00    0.101E+00
RMM:  10    -0.163233273011E+02    0.22729E-02   -0.17879E-02  4331   0.188E+00    0.551E-01
RMM:  11    -0.163233301728E+02   -0.28717E-05   -0.86830E-03  4320   0.107E+00    0.222E-01
RMM:  12    -0.163275751593E+02   -0.42450E-02   -0.22945E-02  4320   0.217E+00    0.106E-01
RMM:  13    -0.163275490778E+02    0.26081E-04   -0.57054E-04  4349   0.239E-01    0.823E-02
RMM:  14    -0.163275428658E+02    0.62120E-05   -0.42559E-04  4321   0.251E-01    0.352E-02
RMM:  15    -0.163275653281E+02   -0.22462E-04   -0.92000E-05  4349   0.959E-02    0.247E-02
RMM:  16    -0.163275603147E+02    0.50134E-05   -0.42477E-05  4319   0.927E-02    0.845E-03
RMM:  17    -0.163275606449E+02   -0.33024E-06   -0.18076E-06  3021   0.194E-02
   1 F= -.17709973E+02 E0= -.17710000E+02  d E =-.177100E+02
 curvature:   0.00 expect dE= 0.000E+00 dE for cont linesearch  0.000E+00
 trial: gam= 0.00000 g(F)=  0.298E-43 g(S)=  0.517E+00 ort = 0.000E+00 (trialstep = 0.100E+01)
 search vector abs. value=  0.517E+00
 bond charge predicted
       N       E                     dE             d eps       ncg     rms          rms(c)
DAV:   1    -0.166969754422E+02   -0.36942E+00   -0.12825E+01  4360   0.349E+01    0.116E+01
RMM:   2    -0.164712486864E+02    0.22573E+00   -0.51955E-01  4320   0.518E+00    0.459E+00
RMM:   3    -0.164506820500E+02    0.20567E-01   -0.61922E-02  4320   0.224E+00    0.272E+00
RMM:   4    -0.164547382564E+02   -0.40562E-02   -0.47310E-02  4320   0.222E+00    0.525E-01
RMM:   5    -0.164557799985E+02   -0.10417E-02   -0.51510E-03  4374   0.798E-01    0.126E-01
RMM:   6    -0.164553971902E+02    0.38281E-03   -0.16054E-03  4322   0.426E-01    0.306E-02
RMM:   7    -0.164554669139E+02   -0.69724E-04   -0.15072E-04  4361   0.124E-01    0.262E-02
RMM:   8    -0.164554688653E+02   -0.19514E-05   -0.14127E-05  4307   0.352E-02    0.159E-02
RMM:   9    -0.164555081463E+02   -0.39281E-04   -0.18740E-04  4322   0.204E-01    0.926E-03
RMM:  10    -0.164555081764E+02   -0.30092E-07   -0.62660E-06  3741   0.254E-02
   2 F= -.17642460E+02 E0= -.17642467E+02  d E =0.675131E-01
 trial-energy change:    0.067513  1 .order    0.040228   -0.517123    0.597579
 step:   0.4280(harm=  0.4639)  dis= 0.00000  next Energy=   -17.818488 (dE=-0.109E+00)
 bond charge predicted
       N       E                     dE             d eps       ncg     rms          rms(c)
DAV:   1    -0.165967663267E+02   -0.14126E+00   -0.43000E+00  4346   0.210E+01    0.611E+00
RMM:   2    -0.165268125334E+02    0.69954E-01   -0.11193E-01  4320   0.259E+00    0.232E+00
RMM:   3    -0.165197635624E+02    0.70490E-02   -0.21235E-02  4320   0.121E+00    0.105E+00
RMM:   4    -0.165208239330E+02   -0.10604E-02   -0.12789E-02  4320   0.118E+00    0.317E-01
RMM:   5    -0.165211982780E+02   -0.37434E-03   -0.13372E-03  4353   0.436E-01    0.570E-02
RMM:   6    -0.165210840803E+02    0.11420E-03   -0.38524E-04  4322   0.238E-01    0.151E-02
RMM:   7    -0.165210997449E+02   -0.15665E-04   -0.67413E-05  4324   0.645E-02    0.111E-02
RMM:   8    -0.165211004391E+02   -0.69419E-06   -0.90766E-06  4256   0.327E-02
   3 F= -.17814856E+02 E0= -.17814917E+02  d E =-.104883E+00
 curvature:  -0.23 expect dE=-0.485E-02 dE for cont linesearch -0.346E-04
 ZBRENT: interpolating
 opt :   0.4208  next Energy=   -17.814887 (dE=-0.105E+00)
 bond charge predicted
       N       E                     dE             d eps       ncg     rms          rms(c)
DAV:   1    -0.165197362195E+02    0.13635E-02   -0.70720E-04  4882   0.267E-01    0.861E-02
RMM:   2    -0.165197266477E+02    0.95718E-05   -0.18589E-05  4286   0.328E-02    0.355E-02
RMM:   3    -0.165197270104E+02   -0.36263E-06   -0.36233E-06  3534   0.178E-02    0.173E-02
RMM:   4    -0.165197284240E+02   -0.14137E-05   -0.22669E-06  2638   0.180E-02    0.533E-03
RMM:   5    -0.165197286622E+02   -0.23813E-06   -0.51616E-07  2343   0.960E-03
   4 F= -.17814902E+02 E0= -.17814961E+02  d E =-.104930E+00
 curvature:  -0.21 expect dE=-0.422E-02 dE for cont linesearch -0.101E-06
 trial: gam= 0.03971 g(F)=  0.192E-43 g(S)=  0.200E-01 ort =-0.498E-03 (trialstep = 0.884E+00)
 search vector abs. value=  0.208E-01
 bond charge predicted
       N       E                     dE             d eps       ncg     rms          rms(c)
DAV:   1    -0.165311129840E+02   -0.11385E-01   -0.50879E-01  4382   0.610E+00    0.382E-01
RMM:   2    -0.165284114809E+02    0.27015E-02   -0.13486E-02  4325   0.106E+00    0.378E-01
RMM:   3    -0.165282108530E+02    0.20063E-03   -0.55666E-04  4354   0.168E-01    0.242E-01
RMM:   4    -0.165281784427E+02    0.32410E-04   -0.46644E-04  4320   0.235E-01    0.352E-02
RMM:   5    -0.165281864306E+02   -0.79880E-05   -0.23288E-05  4321   0.496E-02    0.316E-02
RMM:   6    -0.165282414702E+02   -0.55040E-04   -0.96196E-05  4320   0.134E-01    0.200E-02
RMM:   7    -0.165282574355E+02   -0.15965E-04   -0.20743E-05  4138   0.602E-02    0.991E-03
RMM:   8    -0.165282651945E+02   -0.77590E-05   -0.65760E-05  4317   0.115E-01    0.435E-03
RMM:   9    -0.165282652999E+02   -0.10535E-06   -0.32352E-06  3423   0.286E-02
   5 F= -.17825842E+02 E0= -.17825853E+02  d E =-.109397E-01
 trial-energy change:   -0.010940  1 .order   -0.010823   -0.017699   -0.003947
 step:   1.1225(harm=  1.1379)  dis= 0.00000  next Energy=   -17.826376 (dE=-0.115E-01)
 bond charge predicted
       N       E                     dE             d eps       ncg     rms          rms(c)
DAV:   1    -0.165283241470E+02   -0.58953E-04   -0.37144E-02  4450   0.164E+00    0.102E-01
RMM:   2    -0.165281396173E+02    0.18453E-03   -0.93848E-04  4325   0.283E-01    0.987E-02
RMM:   3    -0.165281253114E+02    0.14306E-04   -0.38544E-05  4359   0.476E-02    0.625E-02
RMM:   4    -0.165281257302E+02   -0.41876E-06   -0.38930E-05  4320   0.706E-02    0.103E-02
RMM:   5    -0.165281273574E+02   -0.16273E-05   -0.38346E-06  3332   0.211E-02    0.107E-02
RMM:   6    -0.165281316727E+02   -0.43152E-05   -0.55899E-06  3635   0.335E-02    0.443E-03
RMM:   7    -0.165281334107E+02   -0.17381E-05   -0.29024E-06  3116   0.236E-02    0.262E-03
RMM:   8    -0.165281338160E+02   -0.40523E-06   -0.33657E-06  3135   0.250E-02
   6 F= -.17826427E+02 E0= -.17826379E+02  d E =-.115248E-01
 curvature:  -0.59 expect dE=-0.106E-04 dE for cont linesearch -0.556E-05
 trial: gam=-0.01628 g(F)=  0.567E-44 g(S)=  0.180E-04 ort = 0.443E-03 (trialstep = 0.932E+00)
 search vector abs. value=  0.907E-05
 reached required accuracy - stopping structural energy minimisation
 writing wavefunctions
 augmentation electrons   1.1767632637326750     
 soft         electrons   10.845155894135424     
 augmentation electrons   1.1767632637326750     
 soft         electrons   10.845155894135424     
 augmentation electrons   1.1767632637326750     
 soft         electrons   10.845155894135424     
 augmentation electrons   1.1767632637326750     
 soft         electrons   10.845155894135424     
 total        electrons   12.021919157868098     
 total        electrons   12.021919157868098     
 total        electrons   12.021919157868098     
 total        electrons   12.021919157868098     
