   72   72   85    1
  0.2145201E+02  0.1036705E-08  0.2428040E-08  0.6136055E-09  0.5000000E-15
   1.0000000000000000E-004
  CAR 
 Name                                    
    276     30    176

  0.3742002E-15  0.3742002E-15  0.3742002E-15  0.7407407E-02
    1      -14.195376   1.000000
    2      -13.014772   1.000000
    3      -13.012858   1.000000
    4      -12.956435   1.000000
    5      -12.066409   1.000000
    6      -11.840451   1.000000
    7      -11.839536   1.000000
    8      -11.646951   1.000000
    9      -11.646081   1.000000
   10      -11.440164   1.000000
   11      -11.349716   1.000000
   12      -11.153399   1.000000
   13      -11.151967   1.000000
   14      -10.667708   1.000000
   15      -10.599225   1.000000
   16      -10.340452   1.000000
   17      -10.339469   1.000000
   18      -10.260943   1.000000
   19       -9.778468   1.000000
   20       -9.706635   1.000000
   21       -9.705314   1.000000
   22       -9.699205   1.000000
   23       -9.509317   1.000000
   24       -9.439377   1.000000
   25       -9.027869   1.000000
   26       -8.982640   1.000000
   27       -8.611053   1.000000
   28       -8.609712   1.000000
   29       -8.346099   1.000000
   30       -8.329626   1.000000
   31       -8.298114   1.000000
   32       -7.932441   1.000000
   33       -7.904270   1.000000
   34       -7.394378   1.000000
   35       -7.393251   1.000000
   36       -7.207944   1.000000
   37       -7.165641   1.000000
   38       -6.959164   1.000000
   39       -6.958080   1.000000
   40       -6.900829   1.000000
   41       -6.899629   1.000000
   42       -6.880529   1.000000
   43       -6.617874   1.000000
   44       -6.592315   1.000000
   45       -6.457673   1.000000
   46       -6.457123   1.000000
   47       -6.318456   1.000000
   48       -6.317338   1.000000
   49       -6.304977   1.000000
   50       -5.994065   1.000000
   51       -5.993657   1.000000
   52       -5.851658   1.000000
   53       -5.832649   1.000000
   54       -5.832033   1.000000
   55       -5.676672   1.000000
   56       -5.675573   1.000000
   57       -5.589375   1.000000
   58       -5.407325   1.000000
   59       -5.387291   1.000000
   60       -5.364744   1.000000
   61       -4.906526   1.000000
   62       -4.905759   1.000000
   63       -4.889732   1.000000
   64       -4.839706   1.000000
   65       -4.744395   1.000000
   66       -4.743217   1.000000
   67       -4.619170   1.000000
   68       -4.340694   1.000000
   69       -4.245237   1.000000
   70       -4.243734   1.000000
   71       -4.243516   1.000000
   72       -4.243006   1.000000
   73       -4.146010   1.000000
   74       -4.143859   1.000000
   75       -4.106821   1.000000
   76       -4.106409   1.000000
   77       -3.989922   1.000000
   78       -3.986681   1.000000
   79       -3.790560   1.000000
   80       -3.790190   1.000000
   81       -3.778706   1.000000
   82       -3.763938   1.000000
   83       -3.761718   1.000000
   84       -3.702880   1.000000
   85       -3.701890   1.000000
   86       -3.698013   1.000000
   87       -3.696983   1.000000
   88       -3.654896   1.000000
   89       -3.607052   1.000000
   90       -3.605819   1.000000
   91       -3.451694   1.000000
   92       -3.132865   1.000000
   93       -3.132015   1.000000
   94       -3.117674   1.000000
   95       -3.038569   1.000000
   96       -2.929532   1.000000
   97       -2.929052   1.000000
   98       -2.781596   1.000000
   99       -2.624307   1.000000
  100       -2.501490   1.000000
  101       -2.500980   1.000000
  102       -2.457522   1.000000
  103       -2.456209   1.000000
  104       -2.334338   1.000000
  105       -2.234486   1.000000
  106       -2.234164   1.000000
  107       -2.194743   1.000000
  108       -2.135192   1.000000
  109       -2.127352   1.000000
  110       -2.064824   1.000000
  111       -1.973398   1.000000
  112       -1.972515   1.000000
  113       -1.810846   1.000000
  114       -1.792119   1.000000
  115       -1.767798   1.000000
  116       -1.767371   1.000000
  117       -1.756784   1.000000
  118       -1.684644   1.000000
  119       -1.598566   1.000000
  120       -1.545807   1.000000
  121       -1.238569   1.000000
  122       -1.034586   1.000000
  123       -1.034424   1.000000
  124       -0.983274   1.000000
  125       -0.811116   1.000000
  126       -0.650719   1.000000
  127       -0.649975   1.000000
  128       -0.610853   1.000000
  129       -0.512399   1.000000
  130       -0.511672   1.000000
  131       -0.253267   1.000000
  132       -0.252723   1.000000
  133       -0.097823   1.001597
  134        0.063760   0.992777
  135        0.094760   0.870573
  136        0.094857   0.870043
  137        0.185538   0.185221
  138        0.258268  -0.034034
  139        0.271237  -0.035234
  140        0.271549  -0.035198
  141        0.356933  -0.005307
  142        0.403911  -0.000765
  143        0.419529  -0.000358
  144        0.419995  -0.000350
  145        0.440208  -0.000121
  146        0.478761  -0.000012
  147        0.503623  -0.000002
  148        0.651144  -0.000000
  149        0.657885  -0.000000
  150        0.659719  -0.000000
  151        0.882439  -0.000000
  152        0.882948  -0.000000
  153        0.914258  -0.000000
  154        0.993199  -0.000000
  155        0.993997  -0.000000
  156        1.053928  -0.000000
  157        1.063597  -0.000000
  158        1.147350  -0.000000
  159        1.165963  -0.000000
  160        1.176116  -0.000000
  161        1.204755  -0.000000
  162        1.205015  -0.000000
  163        1.224042  -0.000000
  164        1.225128  -0.000000
  165        1.365249  -0.000000
  166        1.437427  -0.000000
  167        1.437688  -0.000000
  168        1.451259  -0.000000
  169        1.477510  -0.000000
  170        1.477623  -0.000000
  171        1.491940  -0.000000
  172        1.561139  -0.000000
  173        1.578908  -0.000000
  174        1.581655  -0.000000
  175        1.587125  -0.000000
  176        1.609051  -0.000000

  0.2000000E+00  0.3742002E-15  0.3742002E-15  0.1481481E-01
    1      -14.146142   1.000000
    2      -13.427615   1.000000
    3      -12.910327   1.000000
    4      -12.525044   1.000000
    5      -12.233145   1.000000
    6      -12.050355   1.000000
    7      -11.800903   1.000000
    8      -11.461685   1.000000
    9      -11.430646   1.000000
   10      -11.373141   1.000000
   11      -11.308395   1.000000
   12      -11.248360   1.000000
   13      -11.026614   1.000000
   14      -10.761855   1.000000
   15      -10.730996   1.000000
   16      -10.696732   1.000000
   17      -10.639022   1.000000
   18       -9.914789   1.000000
   19       -9.750700   1.000000
   20       -9.716958   1.000000
   21       -9.632916   1.000000
   22       -9.632013   1.000000
   23       -9.523431   1.000000
   24       -9.478728   1.000000
   25       -9.182850   1.000000
   26       -8.928477   1.000000
   27       -8.428763   1.000000
   28       -8.334227   1.000000
   29       -8.310043   1.000000
   30       -8.251434   1.000000
   31       -8.243575   1.000000
   32       -8.201646   1.000000
   33       -7.747359   1.000000
   34       -7.625794   1.000000
   35       -7.424691   1.000000
   36       -7.391362   1.000000
   37       -7.216318   1.000000
   38       -7.072731   1.000000
   39       -7.071658   1.000000
   40       -6.845202   1.000000
   41       -6.828379   1.000000
   42       -6.784473   1.000000
   43       -6.616296   1.000000
   44       -6.612563   1.000000
   45       -6.495196   1.000000
   46       -6.492045   1.000000
   47       -6.382821   1.000000
   48       -6.271667   1.000000
   49       -6.213815   1.000000
   50       -6.196183   1.000000
   51       -5.886542   1.000000
   52       -5.863240   1.000000
   53       -5.758894   1.000000
   54       -5.559935   1.000000
   55       -5.551910   1.000000
   56       -5.495423   1.000000
   57       -5.465947   1.000000
   58       -5.448992   1.000000
   59       -5.420796   1.000000
   60       -5.387417   1.000000
   61       -5.211720   1.000000
   62       -5.010313   1.000000
   63       -4.904464   1.000000
   64       -4.799334   1.000000
   65       -4.759450   1.000000
   66       -4.692649   1.000000
   67       -4.675667   1.000000
   68       -4.313302   1.000000
   69       -4.308445   1.000000
   70       -4.305955   1.000000
   71       -4.252400   1.000000
   72       -4.240138   1.000000
   73       -4.203490   1.000000
   74       -4.079224   1.000000
   75       -4.062223   1.000000
   76       -4.040508   1.000000
   77       -3.930877   1.000000
   78       -3.912449   1.000000
   79       -3.880979   1.000000
   80       -3.855159   1.000000
   81       -3.823994   1.000000
   82       -3.798261   1.000000
   83       -3.778441   1.000000
   84       -3.758395   1.000000
   85       -3.696504   1.000000
   86       -3.654952   1.000000
   87       -3.654652   1.000000
   88       -3.641318   1.000000
   89       -3.626820   1.000000
   90       -3.512169   1.000000
   91       -3.483436   1.000000
   92       -3.212034   1.000000
   93       -3.154569   1.000000
   94       -3.130857   1.000000
   95       -2.991264   1.000000
   96       -2.978434   1.000000
   97       -2.889842   1.000000
   98       -2.809051   1.000000
   99       -2.680767   1.000000
  100       -2.537751   1.000000
  101       -2.518419   1.000000
  102       -2.466766   1.000000
  103       -2.405523   1.000000
  104       -2.273251   1.000000
  105       -2.181932   1.000000
  106       -2.179303   1.000000
  107       -2.161073   1.000000
  108       -2.116048   1.000000
  109       -2.088823   1.000000
  110       -2.056323   1.000000
  111       -2.049014   1.000000
  112       -2.047785   1.000000
  113       -1.810404   1.000000
  114       -1.752205   1.000000
  115       -1.701677   1.000000
  116       -1.670335   1.000000
  117       -1.605785   1.000000
  118       -1.593751   1.000000
  119       -1.538256   1.000000
  120       -1.499144   1.000000
  121       -1.216346   1.000000
  122       -1.069888   1.000000
  123       -1.058717   1.000000
  124       -1.045681   1.000000
  125       -0.918875   1.000000
  126       -0.710685   1.000000
  127       -0.672630   1.000000
  128       -0.637419   1.000000
  129       -0.596227   1.000000
  130       -0.521825   1.000000
  131       -0.415410   1.000000
  132       -0.383406   1.000000
  133       -0.283762   1.000000
  134       -0.054979   1.008040
  135       -0.049276   1.009621
  136        0.053838   1.013106
  137        0.153638   0.425920
  138        0.247428  -0.027603
  139        0.262623  -0.035095
  140        0.373609  -0.002836
  141        0.408657  -0.000611
  142        0.450341  -0.000068
  143        0.452449  -0.000061
  144        0.467894  -0.000024
  145        0.511177  -0.000001
  146        0.513331  -0.000001
  147        0.557369  -0.000000
  148        0.609674  -0.000000
  149        0.689772  -0.000000
  150        0.748928  -0.000000
  151        0.909137  -0.000000
  152        0.935022  -0.000000
  153        0.978334  -0.000000
  154        1.020328  -0.000000
  155        1.056316  -0.000000
  156        1.130629  -0.000000
  157        1.132731  -0.000000
  158        1.140376  -0.000000
  159        1.157479  -0.000000
  160        1.177403  -0.000000
  161        1.236293  -0.000000
  162        1.255541  -0.000000
  163        1.271781  -0.000000
  164        1.276650  -0.000000
  165        1.373671  -0.000000
  166        1.403772  -0.000000
  167        1.424504  -0.000000
  168        1.428658  -0.000000
  169        1.482289  -0.000000
  170        1.483267  -0.000000
  171        1.515640  -0.000000
  172        1.553347  -0.000000
  173        1.582563  -0.000000
  174        1.606062  -0.000000
  175        1.617925  -0.000000
  176        1.673708  -0.000000

  0.4000000E+00  0.3742002E-15  0.3742002E-15  0.1481481E-01
    1      -13.999459   1.000000
    2      -13.758331   1.000000
    3      -12.772728   1.000000
    4      -12.545820   1.000000
    5      -12.001693   1.000000
    6      -11.971046   1.000000
    7      -11.919082   1.000000
    8      -11.402201   1.000000
    9      -11.364965   1.000000
   10      -11.362403   1.000000
   11      -11.200617   1.000000
   12      -11.184957   1.000000
   13      -10.982883   1.000000
   14      -10.973212   1.000000
   15      -10.884011   1.000000
   16      -10.837397   1.000000
   17      -10.744590   1.000000
   18      -10.254095   1.000000
   19       -9.763753   1.000000
   20       -9.748355   1.000000
   21       -9.542307   1.000000
   22       -9.474151   1.000000
   23       -9.434963   1.000000
   24       -9.380837   1.000000
   25       -9.181119   1.000000
   26       -8.927922   1.000000
   27       -8.465798   1.000000
   28       -8.211407   1.000000
   29       -8.048678   1.000000
   30       -7.992746   1.000000
   31       -7.953677   1.000000
   32       -7.937664   1.000000
   33       -7.916880   1.000000
   34       -7.899599   1.000000
   35       -7.640918   1.000000
   36       -7.632021   1.000000
   37       -7.435022   1.000000
   38       -7.404734   1.000000
   39       -7.235785   1.000000
   40       -6.972351   1.000000
   41       -6.829806   1.000000
   42       -6.625410   1.000000
   43       -6.615803   1.000000
   44       -6.549743   1.000000
   45       -6.545734   1.000000
   46       -6.273079   1.000000
   47       -6.225283   1.000000
   48       -6.178484   1.000000
   49       -6.046880   1.000000
   50       -6.042682   1.000000
   51       -6.011349   1.000000
   52       -5.912641   1.000000
   53       -5.907777   1.000000
   54       -5.720831   1.000000
   55       -5.639774   1.000000
   56       -5.470761   1.000000
   57       -5.338805   1.000000
   58       -5.303134   1.000000
   59       -5.277841   1.000000
   60       -5.227606   1.000000
   61       -5.154956   1.000000
   62       -5.064243   1.000000
   63       -4.900958   1.000000
   64       -4.862273   1.000000
   65       -4.768116   1.000000
   66       -4.633641   1.000000
   67       -4.544973   1.000000
   68       -4.525534   1.000000
   69       -4.437308   1.000000
   70       -4.342683   1.000000
   71       -4.313553   1.000000
   72       -4.242248   1.000000
   73       -4.211813   1.000000
   74       -4.198211   1.000000
   75       -4.152201   1.000000
   76       -4.120186   1.000000
   77       -4.017780   1.000000
   78       -3.905328   1.000000
   79       -3.892403   1.000000
   80       -3.877458   1.000000
   81       -3.871230   1.000000
   82       -3.817647   1.000000
   83       -3.772071   1.000000
   84       -3.670951   1.000000
   85       -3.665426   1.000000
   86       -3.637229   1.000000
   87       -3.504434   1.000000
   88       -3.482577   1.000000
   89       -3.477636   1.000000
   90       -3.434730   1.000000
   91       -3.390521   1.000000
   92       -3.326406   1.000000
   93       -3.256935   1.000000
   94       -3.215385   1.000000
   95       -3.132776   1.000000
   96       -3.009486   1.000000
   97       -3.005914   1.000000
   98       -2.837162   1.000000
   99       -2.688061   1.000000
  100       -2.520057   1.000000
  101       -2.429001   1.000000
  102       -2.377655   1.000000
  103       -2.358535   1.000000
  104       -2.352981   1.000000
  105       -2.262000   1.000000
  106       -2.188956   1.000000
  107       -2.161474   1.000000
  108       -2.142710   1.000000
  109       -2.138718   1.000000
  110       -2.134420   1.000000
  111       -1.836972   1.000000
  112       -1.778655   1.000000
  113       -1.733461   1.000000
  114       -1.697563   1.000000
  115       -1.578869   1.000000
  116       -1.531189   1.000000
  117       -1.497354   1.000000
  118       -1.372004   1.000000
  119       -1.334042   1.000000
  120       -1.285093   1.000000
  121       -1.241008   1.000000
  122       -1.186339   1.000000
  123       -1.153395   1.000000
  124       -1.128814   1.000000
  125       -1.125913   1.000000
  126       -0.889445   1.000000
  127       -0.869982   1.000000
  128       -0.769472   1.000000
  129       -0.760574   1.000000
  130       -0.753663   1.000000
  131       -0.549773   1.000000
  132       -0.512473   1.000000
  133       -0.280843   1.000000
  134       -0.250931   1.000000
  135       -0.114182   1.000766
  136        0.128335   0.637645
  137        0.137085   0.565472
  138        0.152845   0.432559
  139        0.293164  -0.028395
  140        0.352151  -0.006269
  141        0.373282  -0.002873
  142        0.379443  -0.002241
  143        0.439293  -0.000127
  144        0.471356  -0.000020
  145        0.511793  -0.000001
  146        0.522046  -0.000001
  147        0.646275  -0.000000
  148        0.788267  -0.000000
  149        0.791451  -0.000000
  150        0.835816  -0.000000
  151        0.980671  -0.000000
  152        1.003883  -0.000000
  153        1.055874  -0.000000
  154        1.074777  -0.000000
  155        1.078368  -0.000000
  156        1.165712  -0.000000
  157        1.215570  -0.000000
  158        1.247743  -0.000000
  159        1.266295  -0.000000
  160        1.281560  -0.000000
  161        1.286514  -0.000000
  162        1.288749  -0.000000
  163        1.321940  -0.000000
  164        1.398631  -0.000000
  165        1.419608  -0.000000
  166        1.434458  -0.000000
  167        1.439683  -0.000000
  168        1.455588  -0.000000
  169        1.526310  -0.000000
  170        1.527545  -0.000000
  171        1.566850  -0.000000
  172        1.599761  -0.000000
  173        1.627249  -0.000000
  174        1.628396  -0.000000
  175        1.630695  -0.000000
  176        1.657965  -0.000000

  0.3742002E-15  0.3333333E+00  0.3742002E-15  0.1481481E-01
    1      -14.195376   1.000000
    2      -13.014772   1.000000
    3      -13.012858   1.000000
    4      -12.956434   1.000000
    5      -12.066408   1.000000
    6      -11.840451   1.000000
    7      -11.839535   1.000000
    8      -11.646950   1.000000
    9      -11.646081   1.000000
   10      -11.440164   1.000000
   11      -11.349714   1.000000
   12      -11.153399   1.000000
   13      -11.151967   1.000000
   14      -10.667707   1.000000
   15      -10.599223   1.000000
   16      -10.340451   1.000000
   17      -10.339468   1.000000
   18      -10.260942   1.000000
   19       -9.778466   1.000000
   20       -9.706634   1.000000
   21       -9.705313   1.000000
   22       -9.699210   1.000000
   23       -9.509316   1.000000
   24       -9.439373   1.000000
   25       -9.027868   1.000000
   26       -8.982635   1.000000
   27       -8.611052   1.000000
   28       -8.609710   1.000000
   29       -8.346096   1.000000
   30       -8.329636   1.000000
   31       -8.298118   1.000000
   32       -7.932432   1.000000
   33       -7.904262   1.000000
   34       -7.394377   1.000000
   35       -7.393250   1.000000
   36       -7.207940   1.000000
   37       -7.165639   1.000000
   38       -6.959164   1.000000
   39       -6.958080   1.000000
   40       -6.900828   1.000000
   41       -6.899627   1.000000
   42       -6.880528   1.000000
   43       -6.617870   1.000000
   44       -6.592304   1.000000
   45       -6.457669   1.000000
   46       -6.457119   1.000000
   47       -6.318460   1.000000
   48       -6.317343   1.000000
   49       -6.304978   1.000000
   50       -5.994061   1.000000
   51       -5.993653   1.000000
   52       -5.851659   1.000000
   53       -5.832649   1.000000
   54       -5.832033   1.000000
   55       -5.676672   1.000000
   56       -5.675573   1.000000
   57       -5.589371   1.000000
   58       -5.407326   1.000000
   59       -5.387289   1.000000
   60       -5.364727   1.000000
   61       -4.906529   1.000000
   62       -4.905762   1.000000
   63       -4.889725   1.000000
   64       -4.839703   1.000000
   65       -4.744400   1.000000
   66       -4.743222   1.000000
   67       -4.619159   1.000000
   68       -4.340691   1.000000
   69       -4.245237   1.000000
   70       -4.243733   1.000000
   71       -4.243512   1.000000
   72       -4.243002   1.000000
   73       -4.146008   1.000000
   74       -4.143856   1.000000
   75       -4.106817   1.000000
   76       -4.106405   1.000000
   77       -3.989918   1.000000
   78       -3.986675   1.000000
   79       -3.790557   1.000000
   80       -3.790188   1.000000
   81       -3.778700   1.000000
   82       -3.763925   1.000000
   83       -3.761713   1.000000
   84       -3.702881   1.000000
   85       -3.701891   1.000000
   86       -3.698010   1.000000
   87       -3.696981   1.000000
   88       -3.654892   1.000000
   89       -3.607052   1.000000
   90       -3.605820   1.000000
   91       -3.451690   1.000000
   92       -3.132867   1.000000
   93       -3.132017   1.000000
   94       -3.117668   1.000000
   95       -3.038569   1.000000
   96       -2.929531   1.000000
   97       -2.929051   1.000000
   98       -2.781592   1.000000
   99       -2.624305   1.000000
  100       -2.501492   1.000000
  101       -2.500982   1.000000
  102       -2.457521   1.000000
  103       -2.456208   1.000000
  104       -2.334326   1.000000
  105       -2.234489   1.000000
  106       -2.234166   1.000000
  107       -2.194740   1.000000
  108       -2.135188   1.000000
  109       -2.127338   1.000000
  110       -2.064826   1.000000
  111       -1.973396   1.000000
  112       -1.972514   1.000000
  113       -1.810843   1.000000
  114       -1.792113   1.000000
  115       -1.767797   1.000000
  116       -1.767370   1.000000
  117       -1.756778   1.000000
  118       -1.684640   1.000000
  119       -1.598563   1.000000
  120       -1.545806   1.000000
  121       -1.238561   1.000000
  122       -1.034592   1.000000
  123       -1.034430   1.000000
  124       -0.983272   1.000000
  125       -0.811113   1.000000
  126       -0.650722   1.000000
  127       -0.649977   1.000000
  128       -0.610851   1.000000
  129       -0.512390   1.000000
  130       -0.511668   1.000000
  131       -0.253269   1.000000
  132       -0.252725   1.000000
  133       -0.097818   1.001597
  134        0.063762   0.992771
  135        0.094759   0.870583
  136        0.094855   0.870052
  137        0.185543   0.185190
  138        0.258268  -0.034033
  139        0.271236  -0.035234
  140        0.271549  -0.035198
  141        0.356941  -0.005305
  142        0.403919  -0.000765
  143        0.419529  -0.000358
  144        0.419996  -0.000350
  145        0.440209  -0.000121
  146        0.478763  -0.000012
  147        0.503645  -0.000002
  148        0.651150  -0.000000
  149        0.657882  -0.000000
  150        0.659717  -0.000000
  151        0.882435  -0.000000
  152        0.882944  -0.000000
  153        0.914263  -0.000000
  154        0.993197  -0.000000
  155        0.993996  -0.000000
  156        1.053931  -0.000000
  157        1.063596  -0.000000
  158        1.147350  -0.000000
  159        1.165963  -0.000000
  160        1.176124  -0.000000
  161        1.204755  -0.000000
  162        1.205015  -0.000000
  163        1.224040  -0.000000
  164        1.225126  -0.000000
  165        1.365253  -0.000000
  166        1.437419  -0.000000
  167        1.437714  -0.000000
  168        1.451259  -0.000000
  169        1.477522  -0.000000
  170        1.477621  -0.000000
  171        1.491945  -0.000000
  172        1.561146  -0.000000
  173        1.578661  -0.000000
  174        1.581660  -0.000000
  175        1.587071  -0.000000
  176        1.608827  -0.000000

  0.2000000E+00  0.3333333E+00  0.3742002E-15  0.2962963E-01
    1      -14.146143   1.000000
    2      -13.427615   1.000000
    3      -12.910327   1.000000
    4      -12.525044   1.000000
    5      -12.233144   1.000000
    6      -12.050356   1.000000
    7      -11.800902   1.000000
    8      -11.461685   1.000000
    9      -11.430646   1.000000
   10      -11.373140   1.000000
   11      -11.308396   1.000000
   12      -11.248360   1.000000
   13      -11.026613   1.000000
   14      -10.761855   1.000000
   15      -10.730996   1.000000
   16      -10.696731   1.000000
   17      -10.639022   1.000000
   18       -9.914789   1.000000
   19       -9.750700   1.000000
   20       -9.716961   1.000000
   21       -9.632917   1.000000
   22       -9.632014   1.000000
   23       -9.523430   1.000000
   24       -9.478727   1.000000
   25       -9.182849   1.000000
   26       -8.928475   1.000000
   27       -8.428757   1.000000
   28       -8.334230   1.000000
   29       -8.310044   1.000000
   30       -8.251435   1.000000
   31       -8.243575   1.000000
   32       -8.201644   1.000000
   33       -7.747363   1.000000
   34       -7.625792   1.000000
   35       -7.424683   1.000000
   36       -7.391363   1.000000
   37       -7.216314   1.000000
   38       -7.072729   1.000000
   39       -7.071660   1.000000
   40       -6.845202   1.000000
   41       -6.828377   1.000000
   42       -6.784474   1.000000
   43       -6.616295   1.000000
   44       -6.612564   1.000000
   45       -6.495198   1.000000
   46       -6.492046   1.000000
   47       -6.382821   1.000000
   48       -6.271666   1.000000
   49       -6.213814   1.000000
   50       -6.196186   1.000000
   51       -5.886548   1.000000
   52       -5.863241   1.000000
   53       -5.758887   1.000000
   54       -5.559938   1.000000
   55       -5.551908   1.000000
   56       -5.495422   1.000000
   57       -5.465947   1.000000
   58       -5.448993   1.000000
   59       -5.420796   1.000000
   60       -5.387420   1.000000
   61       -5.211721   1.000000
   62       -5.010312   1.000000
   63       -4.904467   1.000000
   64       -4.799330   1.000000
   65       -4.759451   1.000000
   66       -4.692651   1.000000
   67       -4.675668   1.000000
   68       -4.313302   1.000000
   69       -4.308443   1.000000
   70       -4.305956   1.000000
   71       -4.252403   1.000000
   72       -4.240136   1.000000
   73       -4.203495   1.000000
   74       -4.079228   1.000000
   75       -4.062221   1.000000
   76       -4.040513   1.000000
   77       -3.930876   1.000000
   78       -3.912451   1.000000
   79       -3.880981   1.000000
   80       -3.855159   1.000000
   81       -3.823995   1.000000
   82       -3.798260   1.000000
   83       -3.778442   1.000000
   84       -3.758395   1.000000
   85       -3.696504   1.000000
   86       -3.654953   1.000000
   87       -3.654654   1.000000
   88       -3.641317   1.000000
   89       -3.626818   1.000000
   90       -3.512168   1.000000
   91       -3.483435   1.000000
   92       -3.212035   1.000000
   93       -3.154573   1.000000
   94       -3.130857   1.000000
   95       -2.991265   1.000000
   96       -2.978434   1.000000
   97       -2.889843   1.000000
   98       -2.809049   1.000000
   99       -2.680766   1.000000
  100       -2.537750   1.000000
  101       -2.518419   1.000000
  102       -2.466770   1.000000
  103       -2.405527   1.000000
  104       -2.273251   1.000000
  105       -2.181935   1.000000
  106       -2.179302   1.000000
  107       -2.161069   1.000000
  108       -2.116048   1.000000
  109       -2.088825   1.000000
  110       -2.056326   1.000000
  111       -2.049016   1.000000
  112       -2.047784   1.000000
  113       -1.810401   1.000000
  114       -1.752201   1.000000
  115       -1.701676   1.000000
  116       -1.670333   1.000000
  117       -1.605785   1.000000
  118       -1.593752   1.000000
  119       -1.538255   1.000000
  120       -1.499144   1.000000
  121       -1.216345   1.000000
  122       -1.069887   1.000000
  123       -1.058717   1.000000
  124       -1.045683   1.000000
  125       -0.918877   1.000000
  126       -0.710684   1.000000
  127       -0.672631   1.000000
  128       -0.637422   1.000000
  129       -0.596228   1.000000
  130       -0.521826   1.000000
  131       -0.415400   1.000000
  132       -0.383405   1.000000
  133       -0.283763   1.000000
  134       -0.054981   1.008039
  135       -0.049277   1.009621
  136        0.053838   1.013106
  137        0.153639   0.425918
  138        0.247427  -0.027602
  139        0.262622  -0.035095
  140        0.373609  -0.002836
  141        0.408660  -0.000611
  142        0.450342  -0.000068
  143        0.452450  -0.000061
  144        0.467893  -0.000024
  145        0.511177  -0.000001
  146        0.513332  -0.000001
  147        0.557369  -0.000000
  148        0.609674  -0.000000
  149        0.689777  -0.000000
  150        0.748927  -0.000000
  151        0.909138  -0.000000
  152        0.935021  -0.000000
  153        0.978336  -0.000000
  154        1.020329  -0.000000
  155        1.056317  -0.000000
  156        1.130629  -0.000000
  157        1.132732  -0.000000
  158        1.140376  -0.000000
  159        1.157479  -0.000000
  160        1.177403  -0.000000
  161        1.236293  -0.000000
  162        1.255541  -0.000000
  163        1.271779  -0.000000
  164        1.276648  -0.000000
  165        1.373662  -0.000000
  166        1.403775  -0.000000
  167        1.424500  -0.000000
  168        1.428659  -0.000000
  169        1.482291  -0.000000
  170        1.483266  -0.000000
  171        1.515639  -0.000000
  172        1.553352  -0.000000
  173        1.582562  -0.000000
  174        1.606063  -0.000000
  175        1.617947  -0.000000
  176        1.671036  -0.000000

  0.4000000E+00  0.3333333E+00  0.3742002E-15  0.2962963E-01
    1      -13.999458   1.000000
    2      -13.758333   1.000000
    3      -12.772727   1.000000
    4      -12.545821   1.000000
    5      -12.001694   1.000000
    6      -11.971045   1.000000
    7      -11.919081   1.000000
    8      -11.402202   1.000000
    9      -11.364965   1.000000
   10      -11.362403   1.000000
   11      -11.200618   1.000000