   73   73    1    1
  0.2139262E+02  0.1053953E-08  0.6141200E-09  0.2412750E-08  0.5000000E-15
   1.0000000000000000E-004
  CAR 
 Name                                    
    268     23    176

  0.3742002E-15  0.3742002E-15  0.1262379E-14  0.2222222E-01
    1      -13.745579   1.000000
    2      -12.693920   1.000000
    3      -12.493300   1.000000
    4      -12.316582   1.000000
    5      -11.736099   1.000000
    6      -11.587777   1.000000
    7      -11.482061   1.000000
    8      -11.209586   1.000000
    9      -11.176622   1.000000
   10      -11.055823   1.000000
   11      -10.960311   1.000000
   12      -10.781227   1.000000
   13      -10.576658   1.000000
   14      -10.271638   1.000000
   15      -10.207119   1.000000
   16      -10.075569   1.000000
   17      -10.005238   1.000000
   18       -9.898698   1.000000
   19       -9.674878   1.000000
   20       -9.581914   1.000000
   21       -9.378250   1.000000
   22       -9.307854   1.000000
   23       -9.280751   1.000000
   24       -9.074816   1.000000
   25       -8.779187   1.000000
   26       -8.752640   1.000000
   27       -8.519494   1.000000
   28       -8.234144   1.000000
   29       -8.200054   1.000000
   30       -7.999086   1.000000
   31       -7.844784   1.000000
   32       -7.786697   1.000000
   33       -7.440214   1.000000
   34       -7.291370   1.000000
   35       -7.255282   1.000000
   36       -7.140422   1.000000
   37       -7.007769   1.000000
   38       -6.794427   1.000000
   39       -6.721076   1.000000
   40       -6.637612   1.000000
   41       -6.587175   1.000000
   42       -6.516442   1.000000
   43       -6.466048   1.000000
   44       -6.284468   1.000000
   45       -6.064067   1.000000
   46       -5.999588   1.000000
   47       -5.984216   1.000000
   48       -5.920611   1.000000
   49       -5.902334   1.000000
   50       -5.708389   1.000000
   51       -5.647932   1.000000
   52       -5.618562   1.000000
   53       -5.574861   1.000000
   54       -5.387828   1.000000
   55       -5.355987   1.000000
   56       -5.343797   1.000000
   57       -5.237226   1.000000
   58       -5.145851   1.000000
   59       -5.098927   1.000000
   60       -5.050523   1.000000
   61       -4.968654   1.000000
   62       -4.920005   1.000000
   63       -4.747273   1.000000
   64       -4.650211   1.000000
   65       -4.561525   1.000000
   66       -4.552335   1.000000
   67       -4.423050   1.000000
   68       -4.412305   1.000000
   69       -4.403253   1.000000
   70       -4.255254   1.000000
   71       -4.235293   1.000000
   72       -4.213853   1.000000
   73       -4.119940   1.000000
   74       -4.051154   1.000000
   75       -3.952830   1.000000
   76       -3.944271   1.000000
   77       -3.840619   1.000000
   78       -3.773945   1.000000
   79       -3.768493   1.000000
   80       -3.732677   1.000000
   81       -3.644981   1.000000
   82       -3.585926   1.000000
   83       -3.503665   1.000000
   84       -3.475283   1.000000
   85       -3.456478   1.000000
   86       -3.353734   1.000000
   87       -3.321898   1.000000
   88       -3.220794   1.000000
   89       -3.191304   1.000000
   90       -3.142354   1.000000
   91       -3.032235   1.000000
   92       -2.978924   1.000000
   93       -2.928968   1.000000
   94       -2.849958   1.000000
   95       -2.746549   1.000000
   96       -2.691308   1.000000
   97       -2.614993   1.000000
   98       -2.484591   1.000000
   99       -2.394819   1.000000
  100       -2.374073   1.000000
  101       -2.330988   1.000000
  102       -2.291706   1.000000
  103       -2.183098   1.000000
  104       -2.151515   1.000000
  105       -2.131873   1.000000
  106       -2.078439   1.000000
  107       -2.055902   1.000000
  108       -2.008476   1.000000
  109       -1.967320   1.000000
  110       -1.916590   1.000000
  111       -1.781832   1.000000
  112       -1.739899   1.000000
  113       -1.652707   1.000000
  114       -1.577627   1.000000
  115       -1.475626   1.000000
  116       -1.359241   1.000000
  117       -1.333377   1.000000
  118       -1.130385   1.000000
  119       -1.035993   1.000000
  120       -1.001574   1.000000
  121       -0.981503   1.000000
  122       -0.835978   1.000000
  123       -0.613435   1.000000
  124       -0.486922   1.000000
  125       -0.403127   1.000004
  126       -0.342441   1.000030
  127       -0.284198   1.000158
  128       -0.141378   1.004132
  129       -0.042000   1.018864
  130        0.010574   1.030630
  131        0.042800   1.035177
  132        0.170971   0.932144
  133        0.192267   0.881639
  134        0.198524   0.864635
  135        0.349161   0.285705
  136        0.396531   0.129960
  137        0.429211   0.053599
  138        0.441484   0.031811
  139        0.526221  -0.034462
  140        0.689405  -0.008958
  141        0.754886  -0.002791
  142        0.766308  -0.002215
  143        0.818988  -0.000691
  144        0.892181  -0.000105
  145        0.962908  -0.000013
  146        1.021008  -0.000002
  147        1.133069  -0.000000
  148        1.178743  -0.000000
  149        1.237327  -0.000000
  150        1.269775  -0.000000
  151        1.295529  -0.000000
  152        1.359933  -0.000000
  153        1.372627  -0.000000
  154        1.413167  -0.000000
  155        1.422986  -0.000000
  156        1.437796  -0.000000
  157        1.540451  -0.000000
  158        1.581501  -0.000000
  159        1.612760  -0.000000
  160        1.648187  -0.000000
  161        1.656076  -0.000000
  162        1.681129  -0.000000
  163        1.699706  -0.000000
  164        1.719130  -0.000000
  165        1.753954  -0.000000
  166        1.767577  -0.000000
  167        1.822711  -0.000000
  168        1.892377  -0.000000
  169        1.956329  -0.000000
  170        1.965559  -0.000000
  171        2.147298  -0.000000
  172        2.383166  -0.000000
  173        2.405196  -0.000000
  174        2.600645  -0.000000
  175        2.741294  -0.000000
  176        3.573036  -0.000000

  0.2000000E+00  0.3742002E-15  0.1262379E-14  0.4444444E-01
    1      -13.718070   1.000000
    2      -12.816089   1.000000
    3      -12.597565   1.000000
    4      -12.007680   1.000000
    5      -11.861823   1.000000
    6      -11.734632   1.000000
    7      -11.241467   1.000000
    8      -11.183167   1.000000
    9      -11.104741   1.000000
   10      -11.001281   1.000000
   11      -10.921056   1.000000
   12      -10.786972   1.000000
   13      -10.552740   1.000000
   14      -10.436717   1.000000
   15      -10.298415   1.000000
   16      -10.091890   1.000000
   17      -10.081506   1.000000
   18       -9.993397   1.000000
   19       -9.726325   1.000000
   20       -9.631905   1.000000
   21       -9.422416   1.000000
   22       -9.333942   1.000000
   23       -9.211563   1.000000
   24       -9.022047   1.000000
   25       -8.814282   1.000000
   26       -8.710399   1.000000
   27       -8.261590   1.000000
   28       -8.175458   1.000000
   29       -8.091479   1.000000
   30       -7.928797   1.000000
   31       -7.902252   1.000000
   32       -7.743015   1.000000
   33       -7.396296   1.000000
   34       -7.338458   1.000000
   35       -7.277255   1.000000
   36       -7.190446   1.000000
   37       -7.046735   1.000000
   38       -6.846241   1.000000
   39       -6.797757   1.000000
   40       -6.659953   1.000000
   41       -6.631615   1.000000
   42       -6.603544   1.000000
   43       -6.464082   1.000000
   44       -6.371308   1.000000
   45       -6.250527   1.000000
   46       -6.059438   1.000000
   47       -5.917864   1.000000
   48       -5.803535   1.000000
   49       -5.779405   1.000000
   50       -5.728811   1.000000
   51       -5.630762   1.000000
   52       -5.595199   1.000000
   53       -5.564306   1.000000
   54       -5.545735   1.000000
   55       -5.321558   1.000000
   56       -5.302451   1.000000
   57       -5.166484   1.000000
   58       -5.145686   1.000000
   59       -5.028717   1.000000
   60       -4.943167   1.000000
   61       -4.914480   1.000000
   62       -4.867834   1.000000
   63       -4.792834   1.000000
   64       -4.657818   1.000000
   65       -4.602973   1.000000
   66       -4.526361   1.000000
   67       -4.441549   1.000000
   68       -4.411657   1.000000
   69       -4.349472   1.000000
   70       -4.263202   1.000000
   71       -4.233008   1.000000
   72       -4.181949   1.000000
   73       -4.076177   1.000000
   74       -4.016496   1.000000
   75       -3.956170   1.000000
   76       -3.934043   1.000000
   77       -3.870356   1.000000
   78       -3.792437   1.000000
   79       -3.790954   1.000000
   80       -3.734913   1.000000
   81       -3.667365   1.000000
   82       -3.640273   1.000000
   83       -3.581211   1.000000
   84       -3.524946   1.000000
   85       -3.475361   1.000000
   86       -3.355559   1.000000
   87       -3.298504   1.000000
   88       -3.281185   1.000000
   89       -3.147210   1.000000
   90       -3.142121   1.000000
   91       -3.059927   1.000000
   92       -2.966944   1.000000
   93       -2.944267   1.000000
   94       -2.816315   1.000000
   95       -2.730165   1.000000
   96       -2.679980   1.000000
   97       -2.619247   1.000000
   98       -2.501832   1.000000
   99       -2.486422   1.000000
  100       -2.412869   1.000000
  101       -2.301283   1.000000
  102       -2.287303   1.000000
  103       -2.243111   1.000000
  104       -2.159924   1.000000
  105       -2.147595   1.000000
  106       -2.064544   1.000000
  107       -2.029100   1.000000
  108       -1.953075   1.000000
  109       -1.861957   1.000000
  110       -1.845267   1.000000
  111       -1.761680   1.000000
  112       -1.703919   1.000000
  113       -1.585194   1.000000
  114       -1.532631   1.000000
  115       -1.449068   1.000000
  116       -1.366978   1.000000
  117       -1.306888   1.000000
  118       -1.104869   1.000000
  119       -1.053974   1.000000
  120       -1.002504   1.000000
  121       -0.980457   1.000000
  122       -0.912666   1.000000
  123       -0.689476   1.000000
  124       -0.523643   1.000000
  125       -0.502978   1.000000
  126       -0.369754   1.000013
  127       -0.346070   1.000027
  128       -0.258265   1.000312
  129       -0.092258   1.009538
  130       -0.078893   1.011644
  131        0.065649   1.034623
  132        0.140307   0.985087
  133        0.225731   0.779858
  134        0.245448   0.708611
  135        0.309875   0.443763
  136        0.355652   0.261623
  137        0.461264   0.004168
  138        0.500578  -0.027092
  139        0.553438  -0.034952
  140        0.661183  -0.013557
  141        0.771210  -0.002002
  142        0.780011  -0.001662
  143        0.854044  -0.000292
  144        0.893592  -0.000101
  145        1.024953  -0.000002
  146        1.035906  -0.000001
  147        1.123443  -0.000000
  148        1.216119  -0.000000
  149        1.236582  -0.000000
  150        1.276549  -0.000000
  151        1.333232  -0.000000
  152        1.349531  -0.000000
  153        1.399996  -0.000000
  154        1.450385  -0.000000
  155        1.485334  -0.000000
  156        1.538417  -0.000000
  157        1.568849  -0.000000
  158        1.593184  -0.000000
  159        1.630018  -0.000000
  160        1.668104  -0.000000
  161        1.684565  -0.000000
  162        1.713124  -0.000000
  163        1.729949  -0.000000
  164        1.749871  -0.000000
  165        1.788605  -0.000000
  166        1.848125  -0.000000
  167        1.855797  -0.000000
  168        1.885040  -0.000000
  169        1.938400  -0.000000
  170        2.055575  -0.000000
  171        2.209388  -0.000000
  172        2.238377  -0.000000
  173        2.410800  -0.000000
  174        2.423284  -0.000000
  175        2.687405  -0.000000
  176        2.770236  -0.000000

  0.4000000E+00  0.3742002E-15  0.1262379E-14  0.4444444E-01
    1      -13.662573   1.000000
    2      -13.021948   1.000000
    3      -12.502238   1.000000
    4      -12.197720   1.000000
    5      -11.732210   1.000000
    6      -11.447582   1.000000
    7      -11.279367   1.000000
    8      -11.184812   1.000000
    9      -10.964014   1.000000
   10      -10.931901   1.000000
   11      -10.809127   1.000000
   12      -10.794525   1.000000
   13      -10.588865   1.000000
   14      -10.504241   1.000000
   15      -10.419372   1.000000
   16      -10.357415   1.000000
   17      -10.112334   1.000000
   18       -9.968498   1.000000
   19       -9.952506   1.000000
   20       -9.816811   1.000000
   21       -9.349997   1.000000
   22       -9.271370   1.000000
   23       -9.190038   1.000000
   24       -8.974933   1.000000
   25       -8.918038   1.000000
   26       -8.559633   1.000000
   27       -8.106486   1.000000
   28       -8.004062   1.000000
   29       -7.863575   1.000000
   30       -7.809862   1.000000
   31       -7.673847   1.000000
   32       -7.614505   1.000000
   33       -7.538677   1.000000
   34       -7.455129   1.000000
   35       -7.265448   1.000000
   36       -7.256027   1.000000
   37       -7.151446   1.000000
   38       -7.146291   1.000000
   39       -6.935406   1.000000
   40       -6.887078   1.000000
   41       -6.655816   1.000000
   42       -6.614986   1.000000
   43       -6.439943   1.000000
   44       -6.371904   1.000000
   45       -6.300328   1.000000
   46       -6.055381   1.000000
   47       -5.898116   1.000000
   48       -5.864626   1.000000
   49       -5.761678   1.000000
   50       -5.729849   1.000000
   51       -5.639399   1.000000
   52       -5.604540   1.000000
   53       -5.506471   1.000000
   54       -5.407802   1.000000
   55       -5.301338   1.000000
   56       -5.239723   1.000000
   57       -5.201994   1.000000
   58       -5.148095   1.000000
   59       -5.113525   1.000000
   60       -4.963483   1.000000
   61       -4.781169   1.000000
   62       -4.738738   1.000000
   63       -4.719870   1.000000
   64       -4.656219   1.000000
   65       -4.539024   1.000000
   66       -4.463306   1.000000
   67       -4.426006   1.000000
   68       -4.358345   1.000000
   69       -4.300963   1.000000
   70       -4.264629   1.000000
   71       -4.244898   1.000000
   72       -4.145091   1.000000
   73       -4.113656   1.000000
   74       -3.980274   1.000000
   75       -3.954994   1.000000
   76       -3.906870   1.000000
   77       -3.884688   1.000000
   78       -3.873904   1.000000
   79       -3.815635   1.000000
   80       -3.751861   1.000000
   81       -3.729608   1.000000
   82       -3.710010   1.000000
   83       -3.609714   1.000000
   84       -3.596865   1.000000
   85       -3.447899   1.000000
   86       -3.428482   1.000000
   87       -3.323689   1.000000
   88       -3.279013   1.000000
   89       -3.148942   1.000000
   90       -3.136659   1.000000
   91       -3.089553   1.000000
   92       -2.935025   1.000000
   93       -2.901256   1.000000
   94       -2.855981   1.000000
   95       -2.848766   1.000000
   96       -2.714216   1.000000
   97       -2.605134   1.000000
   98       -2.591578   1.000000
   99       -2.530737   1.000000
  100       -2.369677   1.000000
  101       -2.353052   1.000000
  102       -2.264266   1.000000
  103       -2.238720   1.000000
  104       -2.181285   1.000000
  105       -2.049214   1.000000
  106       -2.021485   1.000000
  107       -1.980265   1.000000
  108       -1.950385   1.000000
  109       -1.773814   1.000000
  110       -1.721916   1.000000
  111       -1.676704   1.000000
  112       -1.666215   1.000000
  113       -1.496426   1.000000
  114       -1.480515   1.000000
  115       -1.393232   1.000000
  116       -1.304640   1.000000
  117       -1.268712   1.000000
  118       -1.128149   1.000000
  119       -1.060524   1.000000
  120       -1.052710   1.000000
  121       -0.984425   1.000000
  122       -0.917864   1.000000
  123       -0.786891   1.000000
  124       -0.670882   1.000000
  125       -0.566524   1.000000
  126       -0.534160   1.000000
  127       -0.482540   1.000000
  128       -0.351802   1.000023
  129       -0.242771   1.000460
  130       -0.152665   1.003336
  131        0.086871   1.029449
  132        0.105956   1.019534
  133        0.196433   0.870426
  134        0.261683   0.645085
  135        0.303800   0.469351
  136        0.391036   0.145424
  137        0.453809   0.013545
  138        0.520409  -0.033488
  139        0.578186  -0.031470
  140        0.673341  -0.011420
  141        0.757808  -0.002633
  142        0.813957  -0.000778
  143        0.902833  -0.000078
  144        0.912200  -0.000060
  145        1.076528  -0.000000
  146        1.095704  -0.000000
  147        1.134479  -0.000000
  148        1.242427  -0.000000
  149        1.307681  -0.000000
  150        1.346993  -0.000000
  151        1.372755  -0.000000
  152        1.395831  -0.000000
  153        1.463479  -0.000000
  154        1.500823  -0.000000
  155        1.574002  -0.000000
  156        1.585685  -0.000000
  157        1.596640  -0.000000
  158        1.626985  -0.000000
  159        1.655383  -0.000000
  160        1.691723  -0.000000
  161        1.740095  -0.000000
  162        1.765012  -0.000000
  163        1.770233  -0.000000
  164        1.789318  -0.000000
  165        1.821686  -0.000000
  166        1.871115  -0.000000
  167        1.911382  -0.000000
  168        1.969604  -0.000000
  169        1.999359  -0.000000
  170        2.083626  -0.000000
  171        2.119092  -0.000000
  172        2.184587  -0.000000
  173        2.289983  -0.000000
  174        2.358336  -0.000000
  175        2.721616  -0.000000
  176        3.216885  -0.000000

  0.3742002E-15  0.1111111E+00  0.1262379E-14  0.4444444E-01
    1      -13.699873   1.000000
    2      -12.652635   1.000000
    3      -12.457438   1.000000
    4      -12.285039   1.000000
    5      -11.817897   1.000000
    6      -11.558043   1.000000
    7      -11.451454   1.000000
    8      -11.250545   1.000000
    9      -11.208304   1.000000
   10      -11.096364   1.000000
   11      -10.936910   1.000000
   12      -10.798510   1.000000
   13      -10.607573   1.000000
   14      -10.291052   1.000000
   15      -10.184188   1.000000
   16      -10.079167   1.000000
   17      -10.015534   1.000000
   18       -9.890977   1.000000
   19       -9.668683   1.000000
   20       -9.549697   1.000000
   21       -9.393136   1.000000
   22       -9.312460   1.000000
   23       -9.274549   1.000000
   24       -9.082778   1.000000
   25       -8.796068   1.000000
   26       -8.737331   1.000000
   27       -8.506996   1.000000
   28       -8.249103   1.000000
   29       -8.191305   1.000000
   30       -8.016214   1.000000
   31       -7.847692   1.000000
   32       -7.649024   1.000000
   33       -7.526796   1.000000
   34       -7.366124   1.000000
   35       -7.255778   1.000000
   36       -7.135579   1.000000
   37       -7.095917   1.000000
   38       -6.829816   1.000000
   39       -6.703498   1.000000
   40       -6.652584   1.000000
   41       -6.561951   1.000000
   42       -6.466622   1.000000
   43       -6.417310   1.000000
   44       -6.222996   1.000000
   45       -6.095362   1.000000
   46       -6.013232   1.000000
   47       -5.968285   1.000000
   48       -5.923410   1.000000
   49       -5.875407   1.000000
   50       -5.724530   1.000000
   51       -5.649013   1.000000
   52       -5.634009   1.000000
   53       -5.560646   1.000000
   54       -5.432822   1.000000
   55       -5.325840   1.000000
   56       -5.247878   1.000000
   57       -5.212510   1.000000
   58       -5.141061   1.000000
   59       -5.111651   1.000000
   60       -5.007757   1.000000
   61       -4.917999   1.000000
   62       -4.879132   1.000000
   63       -4.759919   1.000000
   64       -4.637683   1.000000
   65       -4.577486   1.000000
   66       -4.529730   1.000000
   67       -4.458894   1.000000
   68       -4.405005   1.000000
   69       -4.340045   1.000000
   70       -4.285215   1.000000
   71       -4.253255   1.000000
   72       -4.209022   1.000000
   73       -4.155882   1.000000
   74       -4.078493   1.000000
   75       -4.039295   1.000000
   76       -3.872281   1.000000
   77       -3.821421   1.000000
   78       -3.803435   1.000000
   79       -3.755552   1.000000
   80       -3.709744   1.000000
   81       -3.685425   1.000000
   82       -3.604073   1.000000
   83       -3.518646   1.000000
   84       -3.486060   1.000000
   85       -3.421839   1.000000
   86       -3.386465   1.000000
   87       -3.301694   1.000000
   88       -3.227121   1.000000
   89       -3.158891   1.000000
   90       -3.147516   1.000000
   91       -3.064633   1.000000
   92       -2.970980   1.000000
   93       -2.924939   1.000000
   94       -2.873836   1.000000
   95       -2.843412   1.000000
   96       -2.728460   1.000000
   97       -2.645637   1.000000
   98       -2.570258   1.000000
   99       -2.489186   1.000000
  100       -2.387029   1.000000
  101       -2.327893   1.000000
  102       -2.308717   1.000000
  103       -2.205860   1.000000
  104       -2.176530   1.000000
  105       -2.156850   1.000000
  106       -2.100069   1.000000
  107       -2.068800   1.000000
  108       -1.988712   1.000000
  109       -1.966256   1.000000
  110       -1.878851   1.000000
  111       -1.791393   1.000000
  112       -1.687010   1.000000
  113       -1.664838   1.000000
  114       -1.526195   1.000000
  115       -1.400284   1.000000
  116       -1.329827   1.000000
  117       -1.279353   1.000000
  118       -1.127000   1.000000
  119       -1.057982   1.000000
  120       -1.014649   1.000000
  121       -0.915925   1.000000
  122       -0.729313   1.000000
  123       -0.637197   1.000000
  124       -0.532801   1.000000
  125       -0.427337   1.000002
  126       -0.390472   1.000007
  127       -0.272200   1.000218
  128       -0.206883   1.001072
  129       -0.173296   1.002211
  130       -0.081407   1.011226
  131        0.065450   1.034647
  132        0.127250   1.001008
  133        0.221456   0.794288
  134        0.272406   0.601352
  135        0.344473   0.303539
  136        0.398398   0.124876
  137        0.486135  -0.018843
  138        0.525983  -0.034429
  139        0.574556  -0.032131
  140        0.623554  -0.021455
  141        0.746207  -0.003308
  142        0.806038  -0.000934
  143        0.842824  -0.000387
  144        0.912978  -0.000059
  145        0.965146  -0.000012
  146        1.045621  -0.000001
  147        1.110988  -0.000000
  148        1.157945  -0.000000
  149        1.191489  -0.000000
  150        1.233919  -0.000000
  151        1.289345  -0.000000
  152        1.354312  -0.000000
  153        1.377578  -0.000000
  154        1.432865  -0.000000
  155        1.462760  -0.000000
  156        1.500819  -0.000000
  157        1.538529  -0.000000
  158        1.554360  -0.000000
  159        1.571295  -0.000000
  160        1.598593  -0.000000
  161        1.619017  -0.000000
  162        1.658651  -0.000000
  163        1.704290  -0.000000
  164        1.720142  -0.000000
  165        1.753661  -0.000000
  166        1.780112  -0.000000
  167        1.818266  -0.000000
  168        1.872324  -0.000000
  169        1.911143  -0.000000
  170        1.932147  -0.000000
  171        2.047762  -0.000000
  172        2.090248  -0.000000
  173        2.195828  -0.000000
  174        2.270815  -0.000000
  175        2.416642  -0.000000
  176        2.632265  -0.000000

  0.2000000E+00  0.1111111E+00  0.1262379E-14  0.4444444E-01
    1      -13.672641   1.000000
    2      -12.776420   1.000000
    3      -12.559075   1.000000
    4      -11.974382   1.000000
    5      -11.841392   1.000000
    6      -11.805335   1.000000
    7      -11.293965   1.000000
    8      -11.218589   1.000000
    9      -11.075046   1.000000
   10      -11.028112   1.000000
   11      -10.900078   1.000000
   12      -10.810153   1.000000
   13      -10.576277   1.000000
   14      -10.416839   1.000000
   15      -10.313759   1.000000
   16      -10.110208   1.000000
   17      -10.055096   1.000000
   18      -10.003955   1.000000
   19       -9.727422   1.000000
   20       -9.617189   1.000000
   21       -9.416106   1.000000
   22       -9.342950   1.000000
   23       -9.203454   1.000000
   24       -9.029012   1.000000
   25       -8.807890   1.000000
   26       -8.706468   1.000000
   27       -8.252758   1.000000
   28       -8.198152   1.000000
   29       -8.097418   1.000000
   30       -7.947932   1.000000
   31       -7.890185   1.000000
   32       -7.614499   1.000000
   33       -7.471889   1.000000
   34       -7.413642   1.000000
   35       -7.269518   1.000000
   36       -7.183917   1.000000
   37       -7.116216   1.000000
   38       -6.892695   1.000000
   39       -6.773034   1.000000
   40       -6.689671   1.000000
   41       -6.608443   1.000000
   42       -6.530574   1.000000
   43       -6.403151   1.000000
   44       -6.331834   1.000000
   45       -6.241669   1.000000
   46       -6.140702   1.000000
   47       -5.974806   1.000000
   48       -5.838433   1.000000
   49       -5.766935   1.000000
   50       -5.675518   1.000000
   51       -5.629047   1.000000
   52       -5.594335   1.000000
   53       -5.537457   1.000000
   54       -5.464722   1.000000
   55       -5.340442   1.000000
   56       -5.291349   1.000000
   57       -5.199146   1.000000
   58       -5.067583   1.000000
   59       -5.018122   1.000000
   60       -4.939328   1.000000
   61       -4.875029   1.000000
   62       -4.837210   1.000000
   63       -4.742132   1.000000
   64       -4.675295   1.000000
   65       -4.610892   1.000000
   66       -4.527247   1.000000
   67       -4.416455   1.000000
   68       -4.386061   1.000000
   69       -4.309280   1.000000
   70       -4.286651   1.000000
   71       -4.222225   1.000000
   72       -4.190747   1.000000
   73       -4.108109   1.000000
   74       -4.062609   1.000000
   75       -4.022709   1.000000
   76       -3.917441   1.000000
   77       -3.878081   1.000000
   78       -3.806006   1.000000
   79       -3.782312   1.000000
   80       -3.746856   1.000000
   81       -3.666822   1.000000
   82       -3.609000   1.000000
   83       -3.583831   1.000000
   84       -3.541201   1.000000
   85       -3.434385   1.000000
   86       -3.391121   1.000000
   87       -3.296888   1.000000
   88       -3.252636   1.000000
   89       -3.182287   1.000000
   90       -3.134511   1.000000
   91       -3.068416   1.000000
   92       -3.003830   1.000000
   93       -2.921810   1.000000
   94       -2.880124   1.000000
   95       -2.769487   1.000000
   96       -2.729807   1.000000
   97       -2.663302   1.000000
   98       -2.572882   1.000000
   99       -2.489819   1.000000
  100       -2.447163   1.000000
  101       -2.372958   1.000000
  102       -2.312611   1.000000
  103       -2.250819   1.000000
  104       -2.181032   1.000000
  105       -2.126314   1.000000
  106       -2.047781   1.000000
  107       -1.998768   1.000000
  108       -1.961417   1.000000
  109       -1.915785   1.000000
  110       -1.860206   1.000000
  111       -1.764903   1.000000
  112       -1.664710   1.000000
  113       -1.596396   1.000000
  114       -1.490664   1.000000
  115       -1.398085   1.000000
  116       -1.329479   1.000000
  117       -1.269621   1.000000
  118       -1.125867   1.000000
  119       -1.111068   1.000000
  120       -1.012337   1.000000
  121       -0.953506   1.000000
  122       -0.853369   1.000000
  123       -0.629642   1.000000
  124       -0.581921   1.000000
  125       -0.469851   1.000000
  126       -0.440680   1.000001
  127       -0.332869   1.000040
  128       -0.231001   1.000612
  129       -0.128285   1.005244
  130       -0.104323   1.007882
  131        0.043910   1.035242
  132        0.104709   1.020360
  133        0.188423   0.891600
  134        0.284440   0.551149
  135        0.311500   0.436943
  136        0.395544   0.132684
  137        0.468542  -0.003834
  138        0.506763  -0.029646
  139        0.626149  -0.020865
  140        0.681533  -0.010112
  141        0.731399  -0.004375
  142        0.820918  -0.000660
  143        0.848969  -0.000332
  144        0.941435  -0.000025
  145        1.031466  -0.000001
  146        1.066347  -0.000000
  147        1.124465  -0.000000
  148        1.178490  -0.000000
  149        1.203033  -0.000000
  150        1.269725  -0.000000
  151        1.339688  -0.000000
  152        1.365792  -0.000000
  153        1.406347  -0.000000
  154        1.447649  -0.000000
  155        1.479716  -0.000000
  156        1.509791  -0.000000
  157        1.564543  -0.000000
  158        1.578862  -0.000000
  159        1.594773  -0.000000
  160        1.613295  -0.000000
  161        1.631751  -0.000000
  162        1.669994  -0.000000
  163        1.689604  -0.000000
  164        1.719187  -0.000000
  165        1.767359  -0.000000
  166        1.806848  -0.000000
  167        1.865169  -0.000000
  168        1.883880  -0.000000
  169        1.953896  -0.000000
  170        1.988678  -0.000000
  171        2.071369  -0.000000
  172        2.129579  -0.000000
  173        2.237891  -0.000000
  174        2.385305  -0.000000
  175        2.401491  -0.000000
  176        3.973608  -0.000000

  0.4000000E+00  0.1111111E+00  0.1262379E-14  0.4444444E-01
    1      -13.617713   1.000000
    2      -12.981103   1.000000
    3      -12.464580   1.000000
    4      -12.160028   1.000000
    5      -11.807729   1.000000
    6      -11.439022   1.000000
    7      -11.330000   1.000000
    8      -11.217848   1.000000
    9      -10.951308   1.000000
   10      -10.931937   1.000000
   11      -10.832824   1.000000