 running on   72 total cores
 distrk:  each k-point on   72 cores,    1 groups
 distr:  one band on    9 cores,    8 groups
 using from now: INCAR     
 vasp.5.4.4.18Apr17-6-g9f103f2a35 (build Dec  7 2020 12:43:57) complex           
 POSCAR found type information on POSCAR  Mo V  B  H 
 POSCAR found :  4 types and      73 ions
 scaLAPACK will be used

 ----------------------------------------------------------------------------- 
|                                                                             |
|  ADVICE TO THIS USER RUNNING 'VASP/VAMP'   (HEAR YOUR MASTER'S VOICE ...):  |
|                                                                             |
|      You enforced a specific xc-type in the INCAR file,                     |
|      a different type was found on the POTCAR file                          |
|          I HOPE YOU KNOW, WHAT YOU ARE  DOING                               |
|                                                                             |
 ----------------------------------------------------------------------------- 

 LDA part: xc-table for Pade appr. of Perdew
 POSCAR, INCAR and KPOINTS ok, starting setup
 resort distribution
 resort distribution
 resort distribution
 resort distribution
 resort distribution
 resort distribution
 resort distribution
 resort distribution
 resort distribution
 resort distribution
 resort distribution
 resort distribution
 resort distribution
 resort distribution
 resort distribution
 resort distribution
 resort distribution
 resort distribution
 resort distribution
 resort distribution
 resort distribution
 resort distribution
 resort distribution
 resort distribution
 resort distribution
 resort distribution
 resort distribution
 resort distribution
 resort distribution
 resort distribution
 resort distribution
 resort distribution
 resort distribution
 resort distribution
 resort distribution
 resort distribution
 resort distribution
 resort distribution
 resort distribution
 resort distribution
 resort distribution
 resort distribution
 resort distribution
 resort distribution
 resort distribution
 resort distribution
 resort distribution
 resort distribution
 resort distribution
 resort distribution
 resort distribution
 resort distribution
 resort distribution
 resort distribution
 resort distribution
 resort distribution
 resort distribution
 resort distribution
 resort distribution
 resort distribution
 resort distribution
 resort distribution
 resort distribution
 resort distribution
 resort distribution
 resort distribution
 resort distribution
 resort distribution
 resort distribution
 resort distribution
 resort distribution
 resort distribution
 FFT: planning ...
 WAVECAR not read
 augmentation electrons   268.01694217649793     
 soft         electrons   0.0000000000000000     
 augmentation electrons   268.01694217649793     
 soft         electrons   0.0000000000000000     
 augmentation electrons   268.01694217649793     
 soft         electrons   0.0000000000000000     
 augmentation electrons   268.01694217649793     
 soft         electrons   0.0000000000000000     
 augmentation electrons   268.01694217649793     
 soft         electrons   0.0000000000000000     
 augmentation electrons   268.01694217649793     
 soft         electrons   0.0000000000000000     
 augmentation electrons   268.01694217649793     
 soft         electrons   0.0000000000000000     
 augmentation electrons   268.01694217649793     
 soft         electrons   0.0000000000000000     
 augmentation electrons   268.01694217649793     
 soft         electrons   0.0000000000000000     
 augmentation electrons   268.01694217649793     
 soft         electrons   0.0000000000000000     
 augmentation electrons   268.01694217649793     
 soft         electrons   0.0000000000000000     
 augmentation electrons   268.01694217649793     
 soft         electrons   0.0000000000000000     
 augmentation electrons   268.01694217649793     
 soft         electrons   0.0000000000000000     
 augmentation electrons   268.01694217649793     
 soft         electrons   0.0000000000000000     
 augmentation electrons   268.01694217649793     
 soft         electrons   0.0000000000000000     
 augmentation electrons   268.01694217649793     
 soft         electrons   0.0000000000000000     
 augmentation electrons   268.01694217649793     
 soft         electrons   0.0000000000000000     
 augmentation electrons   268.01694217649793     
 soft         electrons   0.0000000000000000     
 augmentation electrons   268.01694217649793     
 soft         electrons   0.0000000000000000     
 augmentation electrons   268.01694217649793     
 soft         electrons   0.0000000000000000     
 augmentation electrons   268.01694217649793     
 soft         electrons   0.0000000000000000     
 augmentation electrons   268.01694217649793     
 soft         electrons   0.0000000000000000     
 augmentation electrons   268.01694217649793     
 soft         electrons   0.0000000000000000     
 augmentation electrons   268.01694217649793     
 soft         electrons   0.0000000000000000     
 augmentation electrons   268.01694217649793     
 soft         electrons   0.0000000000000000     
 augmentation electrons   268.01694217649793     
 soft         electrons   0.0000000000000000     
 augmentation electrons   268.01694217649793     
 soft         electrons   0.0000000000000000     
 augmentation electrons   268.01694217649793     
 soft         electrons   0.0000000000000000     
 augmentation electrons   268.01694217649793     
 soft         electrons   0.0000000000000000     
 augmentation electrons   268.01694217649793     
 soft         electrons   0.0000000000000000     
 augmentation electrons   268.01694217649793     
 soft         electrons   0.0000000000000000     
 augmentation electrons   268.01694217649793     
 soft         electrons   0.0000000000000000     
 augmentation electrons   268.01694217649793     
 soft         electrons   0.0000000000000000     
 augmentation electrons   268.01694217649793     
 soft         electrons   0.0000000000000000     
 augmentation electrons   268.01694217649793     
 soft         electrons   0.0000000000000000     
 augmentation electrons   268.01694217649793     
 soft         electrons   0.0000000000000000     
 augmentation electrons   268.01694217649793     
 soft         electrons   0.0000000000000000     
 augmentation electrons   268.01694217649793     
 soft         electrons   0.0000000000000000     
 augmentation electrons   268.01694217649793     
 soft         electrons   0.0000000000000000     
 augmentation electrons   268.01694217649793     
 soft         electrons   0.0000000000000000     
 augmentation electrons   268.01694217649793     
 soft         electrons   0.0000000000000000     
 augmentation electrons   268.01694217649793     
 soft         electrons   0.0000000000000000     
 augmentation electrons   268.01694217649793     
 soft         electrons   0.0000000000000000     
 augmentation electrons   268.01694217649793     
 soft         electrons   0.0000000000000000     
 augmentation electrons   268.01694217649793     
 soft         electrons   0.0000000000000000     
 augmentation electrons   268.01694217649793     
 soft         electrons   0.0000000000000000     
 augmentation electrons   268.01694217649793     
 soft         electrons   0.0000000000000000     
 augmentation electrons   268.01694217649793     
 soft         electrons   0.0000000000000000     
 augmentation electrons   268.01694217649793     
 soft         electrons   0.0000000000000000     
 augmentation electrons   268.01694217649793     
 soft         electrons   0.0000000000000000     
 augmentation electrons   268.01694217649793     
 soft         electrons   0.0000000000000000     
 augmentation electrons   268.01694217649793     
 soft         electrons   0.0000000000000000     
 augmentation electrons   268.01694217649793     
 soft         electrons   0.0000000000000000     
 augmentation electrons   268.01694217649793     
 soft         electrons   0.0000000000000000     
 augmentation electrons   268.01694217649793     
 soft         electrons   0.0000000000000000     
 augmentation electrons   268.01694217649793     
 soft         electrons   0.0000000000000000     
 augmentation electrons   268.01694217649793     
 soft         electrons   0.0000000000000000     
 augmentation electrons   268.01694217649793     
 soft         electrons   0.0000000000000000     
 augmentation electrons   268.01694217649793     
 soft         electrons   0.0000000000000000     
 augmentation electrons   268.01694217649793     
 soft         electrons   0.0000000000000000     
 augmentation electrons   268.01694217649793     
 soft         electrons   0.0000000000000000     
 augmentation electrons   268.01694217649793     
 soft         electrons   0.0000000000000000     
 augmentation electrons   268.01694217649793     
 soft         electrons   0.0000000000000000     
 augmentation electrons   268.01694217649793     
 soft         electrons   0.0000000000000000     
 augmentation electrons   268.01694217649793     
 soft         electrons   0.0000000000000000     
 augmentation electrons   268.01694217649793     
 soft         electrons   0.0000000000000000     
 augmentation electrons   268.01694217649793     
 soft         electrons   0.0000000000000000     
 augmentation electrons   268.01694217649793     
 soft         electrons   0.0000000000000000     
 augmentation electrons   268.01694217649793     
 soft         electrons   0.0000000000000000     
 augmentation electrons   268.01694217649793     
 soft         electrons   0.0000000000000000     
 augmentation electrons   268.01694217649793     
 soft         electrons   0.0000000000000000     
 augmentation electrons   268.01694217649793     
 soft         electrons   0.0000000000000000     
 total        electrons   268.01694217649793     
 total        electrons   268.01694217649793     
 total        electrons   268.01694217649793     
 total        electrons   268.01694217649793     
 total        electrons   268.01694217649793     
 total        electrons   268.01694217649793     
 total        electrons   268.01694217649793     
 total        electrons   268.01694217649793     
 total        electrons   268.01694217649793     
 total        electrons   268.01694217649793     
 total        electrons   268.01694217649793     
 total        electrons   268.01694217649793     
 total        electrons   268.01694217649793     
 total        electrons   268.01694217649793     
 total        electrons   268.01694217649793     
 total        electrons   268.01694217649793     
 total        electrons   268.01694217649793     
 total        electrons   268.01694217649793     
 total        electrons   268.01694217649793     
 total        electrons   268.01694217649793     
 total        electrons   268.01694217649793     
 total        electrons   268.01694217649793     
 total        electrons   268.01694217649793     
 total        electrons   268.01694217649793     
 total        electrons   268.01694217649793     
 total        electrons   268.01694217649793     
 total        electrons   268.01694217649793     
 total        electrons   268.01694217649793     
 total        electrons   268.01694217649793     
 total        electrons   268.01694217649793     
 total        electrons   268.01694217649793     
 total        electrons   268.01694217649793     
 total        electrons   268.01694217649793     
 total        electrons   268.01694217649793     
 total        electrons   268.01694217649793     
 total        electrons   268.01694217649793     
 total        electrons   268.01694217649793     
 total        electrons   268.01694217649793     
 total        electrons   268.01694217649793     
 total        electrons   268.01694217649793     
 total        electrons   268.01694217649793     
 total        electrons   268.01694217649793     
 total        electrons   268.01694217649793     
 total        electrons   268.01694217649793     
 total        electrons   268.01694217649793     
 total        electrons   268.01694217649793     
 total        electrons   268.01694217649793     
 total        electrons   268.01694217649793     
 total        electrons   268.01694217649793     
 total        electrons   268.01694217649793     
 total        electrons   268.01694217649793     
 total        electrons   268.01694217649793     
 total        electrons   268.01694217649793     
 total        electrons   268.01694217649793     
 total        electrons   268.01694217649793     
 total        electrons   268.01694217649793     
 total        electrons   268.01694217649793     
 total        electrons   268.01694217649793     
 total        electrons   268.01694217649793     
 total        electrons   268.01694217649793     
 total        electrons   268.01694217649793     
 total        electrons   268.01694217649793     
 total        electrons   268.01694217649793     
 total        electrons   268.01694217649793     
 total        electrons   268.01694217649793     
 total        electrons   268.01694217649793     
 total        electrons   268.01694217649793     
 total        electrons   268.01694217649793     
 total        electrons   268.01694217649793     
 total        electrons   268.01694217649793     
 total        electrons   268.01694217649793     
 total        electrons   268.01694217649793     
 augmentation electrons   853.25631657386850     
 soft         electrons   0.0000000000000000     
 augmentation electrons   853.25631657386850     
 soft         electrons   0.0000000000000000     
 augmentation electrons   853.25631657386850     
 soft         electrons   0.0000000000000000     
 augmentation electrons   853.25631657386850     
 soft         electrons   0.0000000000000000     
 augmentation electrons   853.25631657386850     
 soft         electrons   0.0000000000000000     
 augmentation electrons   853.25631657386850     
 soft         electrons   0.0000000000000000     
 augmentation electrons   853.25631657386850     
 soft         electrons   0.0000000000000000     
 augmentation electrons   853.25631657386850     
 soft         electrons   0.0000000000000000     
 augmentation electrons   853.25631657386850     
 soft         electrons   0.0000000000000000     
 augmentation electrons   853.25631657386850     
 soft         electrons   0.0000000000000000     
 augmentation electrons   853.25631657386850     
 soft         electrons   0.0000000000000000     
 augmentation electrons   853.25631657386850     
 soft         electrons   0.0000000000000000     
 augmentation electrons   853.25631657386850     
 soft         electrons   0.0000000000000000     
 augmentation electrons   853.25631657386850     
 soft         electrons   0.0000000000000000     
 augmentation electrons   853.25631657386850     
 soft         electrons   0.0000000000000000     
 augmentation electrons   853.25631657386850     
 soft         electrons   0.0000000000000000     
 augmentation electrons   853.25631657386850     
 soft         electrons   0.0000000000000000     
 augmentation electrons   853.25631657386850     
 soft         electrons   0.0000000000000000     
 augmentation electrons   853.25631657386850     
 soft         electrons   0.0000000000000000     
 augmentation electrons   853.25631657386850     
 soft         electrons   0.0000000000000000     
 augmentation electrons   853.25631657386850     
 soft         electrons   0.0000000000000000     
 augmentation electrons   853.25631657386850     
 soft         electrons   0.0000000000000000     
 augmentation electrons   853.25631657386850     
 soft         electrons   0.0000000000000000     
 augmentation electrons   853.25631657386850     
 soft         electrons   0.0000000000000000     
 augmentation electrons   853.25631657386850     
 soft         electrons   0.0000000000000000     
 augmentation electrons   853.25631657386850     
 soft         electrons   0.0000000000000000     
 augmentation electrons   853.25631657386850     
 soft         electrons   0.0000000000000000     
 augmentation electrons   853.25631657386850     
 soft         electrons   0.0000000000000000     
 augmentation electrons   853.25631657386850     
 soft         electrons   0.0000000000000000     
 augmentation electrons   853.25631657386850     
 soft         electrons   0.0000000000000000     
 augmentation electrons   853.25631657386850     
 soft         electrons   0.0000000000000000     
 augmentation electrons   853.25631657386850     
 soft         electrons   0.0000000000000000     
 augmentation electrons   853.25631657386850     
 soft         electrons   0.0000000000000000     
 augmentation electrons   853.25631657386850     
 soft         electrons   0.0000000000000000     
 augmentation electrons   853.25631657386850     
 soft         electrons   0.0000000000000000     
 augmentation electrons   853.25631657386850     
 soft         electrons   0.0000000000000000     
 augmentation electrons   853.25631657386850     
 soft         electrons   0.0000000000000000     
 augmentation electrons   853.25631657386850     
 soft         electrons   0.0000000000000000     
 augmentation electrons   853.25631657386850     
 soft         electrons   0.0000000000000000     
 augmentation electrons   853.25631657386850     
 soft         electrons   0.0000000000000000     
 augmentation electrons   853.25631657386850     
 soft         electrons   0.0000000000000000     
 augmentation electrons   853.25631657386850     
 soft         electrons   0.0000000000000000     
 augmentation electrons   853.25631657386850     
 soft         electrons   0.0000000000000000     
 augmentation electrons   853.25631657386850     
 soft         electrons   0.0000000000000000     
 augmentation electrons   853.25631657386850     
 soft         electrons   0.0000000000000000     
 augmentation electrons   853.25631657386850     
 soft         electrons   0.0000000000000000     
 augmentation electrons   853.25631657386850     
 soft         electrons   0.0000000000000000     
 augmentation electrons   853.25631657386850     
 soft         electrons   0.0000000000000000     
 augmentation electrons   853.25631657386850     
 soft         electrons   0.0000000000000000     
 augmentation electrons   853.25631657386850     
 soft         electrons   0.0000000000000000     
 augmentation electrons   853.25631657386850     
 soft         electrons   0.0000000000000000     
 augmentation electrons   853.25631657386850     
 soft         electrons   0.0000000000000000     
 augmentation electrons   853.25631657386850     
 soft         electrons   0.0000000000000000     
 augmentation electrons   853.25631657386850     
 soft         electrons   0.0000000000000000     
 augmentation electrons   853.25631657386850     
 soft         electrons   0.0000000000000000     
 augmentation electrons   853.25631657386850     
 soft         electrons   0.0000000000000000     
 augmentation electrons   853.25631657386850     
 soft         electrons   0.0000000000000000     
 augmentation electrons   853.25631657386850     
 soft         electrons   0.0000000000000000     
 augmentation electrons   853.25631657386850     
 soft         electrons   0.0000000000000000     
 augmentation electrons   853.25631657386850     
 soft         electrons   0.0000000000000000     
 augmentation electrons   853.25631657386850     
 soft         electrons   0.0000000000000000     
 augmentation electrons   853.25631657386850     
 soft         electrons   0.0000000000000000     
 augmentation electrons   853.25631657386850     
 soft         electrons   0.0000000000000000     
 augmentation electrons   853.25631657386850     
 soft         electrons   0.0000000000000000     
 augmentation electrons   853.25631657386850     
 soft         electrons   0.0000000000000000     
 augmentation electrons   853.25631657386850     
 soft         electrons   0.0000000000000000     
 augmentation electrons   853.25631657386850     
 soft         electrons   0.0000000000000000     
 augmentation electrons   853.25631657386850     
 soft         electrons   0.0000000000000000     
 augmentation electrons   853.25631657386850     
 soft         electrons   0.0000000000000000     
 augmentation electrons   853.25631657386850     
 soft         electrons   0.0000000000000000     
 augmentation electrons   853.25631657386850     
 soft         electrons   0.0000000000000000     
 augmentation electrons   853.25631657386850     
 soft         electrons   0.0000000000000000     
 total        electrons   853.25631657386850     
 total        electrons   853.25631657386850     
 total        electrons   853.25631657386850     
 total        electrons   853.25631657386850     
 total        electrons   853.25631657386850     
 total        electrons   853.25631657386850     
 total        electrons   853.25631657386850     
 total        electrons   853.25631657386850     
 total        electrons   853.25631657386850     
 total        electrons   853.25631657386850     
 total        electrons   853.25631657386850     
 total        electrons   853.25631657386850     
 total        electrons   853.25631657386850     
 total        electrons   853.25631657386850     
 total        electrons   853.25631657386850     
 total        electrons   853.25631657386850     
 total        electrons   853.25631657386850     
 total        electrons   853.25631657386850     
 total        electrons   853.25631657386850     
 total        electrons   853.25631657386850     
 total        electrons   853.25631657386850     
 total        electrons   853.25631657386850     
 total        electrons   853.25631657386850     
 total        electrons   853.25631657386850     
 total        electrons   853.25631657386850     
 total        electrons   853.25631657386850     
 total        electrons   853.25631657386850     
 total        electrons   853.25631657386850     
 total        electrons   853.25631657386850     
 total        electrons   853.25631657386850     
 total        electrons   853.25631657386850     
 total        electrons   853.25631657386850     
 total        electrons   853.25631657386850     
 total        electrons   853.25631657386850     
 total        electrons   853.25631657386850     
 total        electrons   853.25631657386850     
 total        electrons   853.25631657386850     
 total        electrons   853.25631657386850     
 total        electrons   853.25631657386850     
 total        electrons   853.25631657386850     
 total        electrons   853.25631657386850     
 total        electrons   853.25631657386850     
 total        electrons   853.25631657386850     
 total        electrons   853.25631657386850     
 total        electrons   853.25631657386850     
 total        electrons   853.25631657386850     
 total        electrons   853.25631657386850     
 total        electrons   853.25631657386850     
 total        electrons   853.25631657386850     
 total        electrons   853.25631657386850     
 total        electrons   853.25631657386850     
 total        electrons   853.25631657386850     
 total        electrons   853.25631657386850     
 total        electrons   853.25631657386850     
 total        electrons   853.25631657386850     
 total        electrons   853.25631657386850     
 total        electrons   853.25631657386850     
 total        electrons   853.25631657386850     
 total        electrons   853.25631657386850     
 total        electrons   853.25631657386850     
 total        electrons   853.25631657386850     
 total        electrons   853.25631657386850     
 total        electrons   853.25631657386850     
 total        electrons   853.25631657386850     
 total        electrons   853.25631657386850     
 total        electrons   853.25631657386850     
 total        electrons   853.25631657386850     
 total        electrons   853.25631657386850     
 total        electrons   853.25631657386850     
 total        electrons   853.25631657386850     
 total        electrons   853.25631657386850     
 total        electrons   853.25631657386850     
 entering main loop
       N       E                     dE             d eps       ncg     rms          rms(c)
DAV:   1     0.232388852114E+04    0.23239E+04   -0.95952E+04  8096   0.124E+03
DAV:   2    -0.190856130181E+03   -0.25147E+04   -0.23343E+04  9328   0.303E+02
DAV:   3    -0.605110958769E+03   -0.41425E+03   -0.39486E+03 11536   0.143E+02
DAV:   4    -0.637753771345E+03   -0.32643E+02   -0.31363E+02 13104   0.450E+01
DAV:   5    -0.639496981136E+03   -0.17432E+01   -0.16898E+01 13736   0.101E+01    0.135E+02
RMM:   6    -0.602071613345E+03    0.37425E+02   -0.12039E+03 12982   0.913E+01    0.747E+01
RMM:   7    -0.713370843885E+03   -0.11130E+03   -0.42691E+02 10580   0.639E+01    0.567E+01
RMM:   8    -0.614005024196E+03    0.99366E+02   -0.25827E+02 12480   0.292E+01    0.471E+01
RMM:   9    -0.547851847875E+03    0.66153E+02   -0.49394E+01  9847   0.221E+01    0.263E+01
RMM:  10    -0.538259645825E+03    0.95922E+01   -0.51106E+01 11651   0.167E+01    0.194E+01
RMM:  11    -0.537493731604E+03    0.76591E+00   -0.75126E+00 10219   0.791E+00    0.169E+01
RMM:  12    -0.536877586649E+03    0.61614E+00   -0.27013E+00 11394   0.296E+00    0.150E+01
RMM:  13    -0.536452803748E+03    0.42478E+00   -0.62898E-01 12793   0.146E+00    0.134E+01
RMM:  14    -0.536267707885E+03    0.18510E+00   -0.27878E+00  9035   0.557E+00    0.947E+00
RMM:  15    -0.535529739009E+03    0.73797E+00   -0.20106E+00  8896   0.506E+00    0.515E+00
RMM:  16    -0.535344700885E+03    0.18504E+00   -0.12585E+00 11006   0.258E+00    0.356E+00
RMM:  17    -0.535278768947E+03    0.65932E-01   -0.49326E-01 11568   0.157E+00    0.251E+00
RMM:  18    -0.535291422777E+03   -0.12654E-01   -0.31782E-01 11599   0.130E+00    0.236E+00
RMM:  19    -0.535236520686E+03    0.54902E-01   -0.11354E-01  9971   0.992E-01    0.121E+00
RMM:  20    -0.535226497080E+03    0.10024E-01   -0.79499E-02 10331   0.766E-01    0.881E-01
RMM:  21    -0.535217540360E+03    0.89567E-02   -0.49139E-02 11670   0.468E-01    0.532E-01
RMM:  22    -0.535215055796E+03    0.24846E-02   -0.13533E-02 10925   0.264E-01    0.384E-01
RMM:  23    -0.535213339824E+03    0.17160E-02   -0.51975E-03 10373   0.191E-01    0.218E-01
RMM:  24    -0.535212448127E+03    0.89170E-03   -0.52182E-03 12206   0.111E-01    0.138E-01
RMM:  25    -0.535211736136E+03    0.71199E-03   -0.18738E-03 11615   0.807E-02    0.875E-02
RMM:  26    -0.535211827258E+03   -0.91122E-04   -0.12246E-03 11039   0.780E-02    0.118E-01
RMM:  27    -0.535212071414E+03   -0.24416E-03   -0.44921E-04 11568   0.449E-02    0.750E-02
RMM:  28    -0.535212607415E+03   -0.53600E-03   -0.51683E-04 10878   0.529E-02    0.471E-02
RMM:  29    -0.535213162176E+03   -0.55476E-03   -0.68020E-04  9730   0.390E-02    0.303E-02
RMM:  30    -0.535213347565E+03   -0.18539E-03   -0.14847E-04 10516   0.256E-02    0.226E-02
RMM:  31    -0.535213408957E+03   -0.61393E-04   -0.62436E-05 10355   0.959E-03    0.163E-02
RMM:  32    -0.535213506877E+03   -0.97920E-04   -0.48331E-05 10239   0.115E-02    0.866E-03
RMM:  33    -0.535213662220E+03   -0.15534E-03   -0.33672E-05  8990   0.144E-02    0.231E-02
RMM:  34    -0.535213824054E+03   -0.16183E-03   -0.19530E-05  8268   0.144E-02    0.122E-02
RMM:  35    -0.535214015135E+03   -0.19108E-03   -0.23656E-05  8480   0.622E-03    0.415E-03
RMM:  36    -0.535214140031E+03   -0.12490E-03   -0.16470E-05  8053   0.540E-03    0.855E-03
RMM:  37    -0.535214182109E+03   -0.42079E-04   -0.54773E-06  7410   0.533E-03    0.220E-03
RMM:  38    -0.535214209041E+03   -0.26931E-04   -0.30668E-06  7209   0.331E-03    0.413E-03
RMM:  39    -0.535214219707E+03   -0.10666E-04   -0.19269E-06  6839   0.439E-03    0.382E-03
RMM:  40    -0.535214227438E+03   -0.77315E-05   -0.12615E-06  6456   0.329E-03    0.185E-03
RMM:  41    -0.535214228993E+03   -0.15545E-05   -0.40857E-07  5026   0.154E-03    0.533E-04
RMM:  42    -0.535214230032E+03   -0.10390E-05   -0.22124E-07  4511   0.112E-03    0.439E-04
RMM:  43    -0.535214230913E+03   -0.88089E-06   -0.14576E-07  4152   0.101E-03
   1 F= -.53521423E+03 E0= -.53520395E+03  d E =-.308287E-01
 augmentation electrons   27.764383578405671     
 soft         electrons   240.31173045726490     
 augmentation electrons   27.764383578405671     
 soft         electrons   240.31173045726490     
 augmentation electrons   27.764383578405671     
 soft         electrons   240.31173045726490     
 augmentation electrons   27.764383578405671     
 soft         electrons   240.31173045726490     
 augmentation electrons   27.764383578405671     
 soft         electrons   240.31173045726490     
 augmentation electrons   27.764383578405671     
 soft         electrons   240.31173045726490     
 augmentation electrons   27.764383578405671     
 soft         electrons   240.31173045726490     
 augmentation electrons   27.764383578405671     
 soft         electrons   240.31173045726490     
 augmentation electrons   27.764383578405671     
 soft         electrons   240.31173045726490     
 augmentation electrons   27.764383578405671     
 soft         electrons   240.31173045726490     
 augmentation electrons   27.764383578405671     
 soft         electrons   240.31173045726490     
 augmentation electrons   27.764383578405671     
 soft         electrons   240.31173045726490     
 augmentation electrons   27.764383578405671     
 soft         electrons   240.31173045726490     
 augmentation electrons   27.764383578405671     
 soft         electrons   240.31173045726490     
 augmentation electrons   27.764383578405671     
 soft         electrons   240.31173045726490     
 augmentation electrons   27.764383578405671     
 soft         electrons   240.31173045726490     
 augmentation electrons   27.764383578405671     
 soft         electrons   240.31173045726490     
 augmentation electrons   27.764383578405671     
 soft         electrons   240.31173045726490     
 augmentation electrons   27.764383578405671     
 soft         electrons   240.31173045726490     
 augmentation electrons   27.764383578405671     
 soft         electrons   240.31173045726490     
 augmentation electrons   27.764383578405671     
 soft         electrons   240.31173045726490     
 augmentation electrons   27.764383578405671     
 soft         electrons   240.31173045726490     
 augmentation electrons   27.764383578405671     
 soft         electrons   240.31173045726490     
 augmentation electrons   27.764383578405671     
 soft         electrons   240.31173045726490     
 augmentation electrons   27.764383578405671     
 soft         electrons   240.31173045726490     
 augmentation electrons   27.764383578405671     
 soft         electrons   240.31173045726490     
 augmentation electrons   27.764383578405671     
 soft         electrons   240.31173045726490     
 augmentation electrons   27.764383578405671     
 soft         electrons   240.31173045726490     
 augmentation electrons   27.764383578405671     
 soft         electrons   240.31173045726490     
 augmentation electrons   27.764383578405671     
 soft         electrons   240.31173045726490     
 augmentation electrons   27.764383578405671     
 soft         electrons   240.31173045726490     
 augmentation electrons   27.764383578405671     
 soft         electrons   240.31173045726490     
 augmentation electrons   27.764383578405671     
 soft         electrons   240.31173045726490     
 augmentation electrons   27.764383578405671     
 soft         electrons   240.31173045726490     
 augmentation electrons   27.764383578405671     
 soft         electrons   240.31173045726490     
 augmentation electrons   27.764383578405671     
 soft         electrons   240.31173045726490     
 augmentation electrons   27.764383578405671     
 soft         electrons   240.31173045726490     
 augmentation electrons   27.764383578405671     
 soft         electrons   240.31173045726490     
 augmentation electrons   27.764383578405671     
 soft         electrons   240.31173045726490     
 augmentation electrons   27.764383578405671     
 soft         electrons   240.31173045726490     
 augmentation electrons   27.764383578405671     
 soft         electrons   240.31173045726490     
 augmentation electrons   27.764383578405671     
 soft         electrons   240.31173045726490     
 augmentation electrons   27.764383578405671     
 augmentation electrons   27.764383578405671     
 soft         electrons   240.31173045726490     
 augmentation electrons   27.764383578405671     
 soft         electrons   240.31173045726490     
 augmentation electrons   27.764383578405671     
 soft         electrons   240.31173045726490     
 augmentation electrons   27.764383578405671     
 soft         electrons   240.31173045726490     
 augmentation electrons   27.764383578405671     
 soft         electrons   240.31173045726490     
 augmentation electrons   27.764383578405671     
 soft         electrons   240.31173045726490     
 augmentation electrons   27.764383578405671     
 soft         electrons   240.31173045726490     
 augmentation electrons   27.764383578405671     
 soft         electrons   240.31173045726490     
 augmentation electrons   27.764383578405671     
 soft         electrons   240.31173045726490     
 augmentation electrons   27.764383578405671     
 soft         electrons   240.31173045726490     
 augmentation electrons   27.764383578405671     
 soft         electrons   240.31173045726490     
 augmentation electrons   27.764383578405671     
 soft         electrons   240.31173045726490     
 augmentation electrons   27.764383578405671     
 soft         electrons   240.31173045726490     
 augmentation electrons   27.764383578405671     
 soft         electrons   240.31173045726490     
 augmentation electrons   27.764383578405671     
 soft         electrons   240.31173045726490     
 augmentation electrons   27.764383578405671     
 soft         electrons   240.31173045726490     
 augmentation electrons   27.764383578405671     
 soft         electrons   240.31173045726490     
 augmentation electrons   27.764383578405671     
 soft         electrons   240.31173045726490     
 augmentation electrons   27.764383578405671     
 soft         electrons   240.31173045726490     
 augmentation electrons   27.764383578405671     
 soft         electrons   240.31173045726490     
 augmentation electrons   27.764383578405671     
 soft         electrons   240.31173045726490     
 augmentation electrons   27.764383578405671     
 soft         electrons   240.31173045726490     
 augmentation electrons   27.764383578405671     
 soft         electrons   240.31173045726490     
 augmentation electrons   27.764383578405671     
 soft         electrons   240.31173045726490     
 augmentation electrons   27.764383578405671     
 soft         electrons   240.31173045726490     
 augmentation electrons   27.764383578405671     
 soft         electrons   240.31173045726490     
 augmentation electrons   27.764383578405671     
 soft         electrons   240.31173045726490     
 augmentation electrons   27.764383578405671     
 soft         electrons   240.31173045726490     
 augmentation electrons   27.764383578405671     
 soft         electrons   240.31173045726490     
 soft         electrons   240.31173045726490     
 total        electrons   268.07611403567057     
 total        electrons   268.07611403567057     
 total        electrons   268.07611403567057     
 total        electrons   268.07611403567057     
 total        electrons   268.07611403567057     
 total        electrons   268.07611403567057     
 total        electrons   268.07611403567057     
 total        electrons   268.07611403567057     
 total        electrons   268.07611403567057     
 total        electrons   268.07611403567057     
 total        electrons   268.07611403567057     
 total        electrons   268.07611403567057     
 total        electrons   268.07611403567057     
 total        electrons   268.07611403567057     
 total        electrons   268.07611403567057     
 total        electrons   268.07611403567057     
 total        electrons   268.07611403567057     
 total        electrons   268.07611403567057     
 total        electrons   268.07611403567057     
 total        electrons   268.07611403567057     
 total        electrons   268.07611403567057     
 total        electrons   268.07611403567057     
 total        electrons   268.07611403567057     
 total        electrons   268.07611403567057     
 total        electrons   268.07611403567057     
 total        electrons   268.07611403567057     
 total        electrons   268.07611403567057     
 total        electrons   268.07611403567057     
 total        electrons   268.07611403567057     
 total        electrons   268.07611403567057     
 total        electrons   268.07611403567057     
 total        electrons   268.07611403567057     
 total        electrons   268.07611403567057     
 total        electrons   268.07611403567057     
 total        electrons   268.07611403567057     
 total        electrons   268.07611403567057     
 total        electrons   268.07611403567057     
 total        electrons   268.07611403567057     
 total        electrons   268.07611403567057     
 total        electrons   268.07611403567057     
 total        electrons   268.07611403567057     
 total        electrons   268.07611403567057     
 total        electrons   268.07611403567057     
 total        electrons   268.07611403567057     
 total        electrons   268.07611403567057     
 total        electrons   268.07611403567057     
 total        electrons   268.07611403567057     
 total        electrons   268.07611403567057     
 total        electrons   268.07611403567057     
 total        electrons   268.07611403567057     
 total        electrons   268.07611403567057     
 total        electrons   268.07611403567057     
 total        electrons   268.07611403567057     
 total        electrons   268.07611403567057     
 total        electrons   268.07611403567057     
 total        electrons   268.07611403567057     
 total        electrons   268.07611403567057     
 total        electrons   268.07611403567057     
 total        electrons   268.07611403567057     
 total        electrons   268.07611403567057     
 total        electrons   268.07611403567057     
 total        electrons   268.07611403567057     
 total        electrons   268.07611403567057     
 total        electrons   268.07611403567057     
 total        electrons   268.07611403567057     
 total        electrons   268.07611403567057     
 total        electrons   268.07611403567057     
 total        electrons   268.07611403567057     
 total        electrons   268.07611403567057     
 total        electrons   268.07611403567057     
 total        electrons   268.07611403567057     
 total        electrons   268.07611403567057     
Note: The following floating-point exceptions are signalling: IEEE_OVERFLOW_FLAG
Note: The following floating-point exceptions are signalling: IEEE_OVERFLOW_FLAG
Note: The following floating-point exceptions are signalling: IEEE_OVERFLOW_FLAG
Note: The following floating-point exceptions are signalling: IEEE_OVERFLOW_FLAG
Note: The following floating-point exceptions are signalling: IEEE_OVERFLOW_FLAG
Note: The following floating-point exceptions are signalling: IEEE_OVERFLOW_FLAG
Note: The following floating-point exceptions are signalling: IEEE_OVERFLOW_FLAG
Note: The following floating-point exceptions are signalling: IEEE_OVERFLOW_FLAG
Note: The following floating-point exceptions are signalling: IEEE_OVERFLOW_FLAG
Note: The following floating-point exceptions are signalling: IEEE_OVERFLOW_FLAG
Note: The following floating-point exceptions are signalling: IEEE_OVERFLOW_FLAG
Note: The following floating-point exceptions are signalling: IEEE_OVERFLOW_FLAG
Note: The following floating-point exceptions are signalling: IEEE_OVERFLOW_FLAG
Note: The following floating-point exceptions are signalling: IEEE_OVERFLOW_FLAG
Note: The following floating-point exceptions are signalling: IEEE_OVERFLOW_FLAG
Note: The following floating-point exceptions are signalling: IEEE_OVERFLOW_FLAG
Note: The following floating-point exceptions are signalling: IEEE_OVERFLOW_FLAG
Note: The following floating-point exceptions are signalling: IEEE_OVERFLOW_FLAG
Note: The following floating-point exceptions are signalling: IEEE_OVERFLOW_FLAG
Note: The following floating-point exceptions are signalling: IEEE_OVERFLOW_FLAG
Note: The following floating-point exceptions are signalling: IEEE_OVERFLOW_FLAG
Note: The following floating-point exceptions are signalling: IEEE_OVERFLOW_FLAG
Note: The following floating-point exceptions are signalling: IEEE_OVERFLOW_FLAG
Note: The following floating-point exceptions are signalling: IEEE_OVERFLOW_FLAG
Note: The following floating-point exceptions are signalling: IEEE_OVERFLOW_FLAG
Note: The following floating-point exceptions are signalling: IEEE_OVERFLOW_FLAG
Note: The following floating-point exceptions are signalling: IEEE_OVERFLOW_FLAG
Note: The following floating-point exceptions are signalling: IEEE_OVERFLOW_FLAG
Note: The following floating-point exceptions are signalling: IEEE_OVERFLOW_FLAG
Note: The following floating-point exceptions are signalling: IEEE_OVERFLOW_FLAG
Note: The following floating-point exceptions are signalling: IEEE_OVERFLOW_FLAG
Note: The following floating-point exceptions are signalling: IEEE_OVERFLOW_FLAG
Note: The following floating-point exceptions are signalling: IEEE_OVERFLOW_FLAG
Note: The following floating-point exceptions are signalling: IEEE_OVERFLOW_FLAG
Note: The following floating-point exceptions are signalling: IEEE_OVERFLOW_FLAG
Note: The following floating-point exceptions are signalling: IEEE_OVERFLOW_FLAG
Note: The following floating-point exceptions are signalling: IEEE_OVERFLOW_FLAG
Note: The following floating-point exceptions are signalling: IEEE_OVERFLOW_FLAG
Note: The following floating-point exceptions are signalling: IEEE_OVERFLOW_FLAG
Note: The following floating-point exceptions are signalling: IEEE_OVERFLOW_FLAG
Note: The following floating-point exceptions are signalling: IEEE_OVERFLOW_FLAG
Note: The following floating-point exceptions are signalling: IEEE_OVERFLOW_FLAG
Note: The following floating-point exceptions are signalling: IEEE_OVERFLOW_FLAG
Note: The following floating-point exceptions are signalling: IEEE_OVERFLOW_FLAG
Note: The following floating-point exceptions are signalling: IEEE_OVERFLOW_FLAG
Note: The following floating-point exceptions are signalling: IEEE_OVERFLOW_FLAG
Note: The following floating-point exceptions are signalling: IEEE_OVERFLOW_FLAG
Note: The following floating-point exceptions are signalling: IEEE_OVERFLOW_FLAG
Note: The following floating-point exceptions are signalling: IEEE_OVERFLOW_FLAG
Note: The following floating-point exceptions are signalling: IEEE_OVERFLOW_FLAG
Note: The following floating-point exceptions are signalling: IEEE_OVERFLOW_FLAG
Note: The following floating-point exceptions are signalling: IEEE_OVERFLOW_FLAG
Note: The following floating-point exceptions are signalling: IEEE_OVERFLOW_FLAG
Note: The following floating-point exceptions are signalling: IEEE_OVERFLOW_FLAG
Note: The following floating-point exceptions are signalling: IEEE_OVERFLOW_FLAG
Note: The following floating-point exceptions are signalling: IEEE_OVERFLOW_FLAG
Note: The following floating-point exceptions are signalling: IEEE_OVERFLOW_FLAG
Note: The following floating-point exceptions are signalling: IEEE_OVERFLOW_FLAG
Note: The following floating-point exceptions are signalling: IEEE_OVERFLOW_FLAG
Note: The following floating-point exceptions are signalling: IEEE_OVERFLOW_FLAG
Note: The following floating-point exceptions are signalling: IEEE_OVERFLOW_FLAG
Note: The following floating-point exceptions are signalling: IEEE_OVERFLOW_FLAG
Note: The following floating-point exceptions are signalling: IEEE_OVERFLOW_FLAG
Note: The following floating-point exceptions are signalling: IEEE_OVERFLOW_FLAG
Note: The following floating-point exceptions are signalling: IEEE_OVERFLOW_FLAG
Note: The following floating-point exceptions are signalling: IEEE_OVERFLOW_FLAG
Note: The following floating-point exceptions are signalling: IEEE_OVERFLOW_FLAG
Note: The following floating-point exceptions are signalling: IEEE_OVERFLOW_FLAG
Note: The following floating-point exceptions are signalling: IEEE_OVERFLOW_FLAG
Note: The following floating-point exceptions are signalling: IEEE_OVERFLOW_FLAG
Note: The following floating-point exceptions are signalling: IEEE_OVERFLOW_FLAG
Note: The following floating-point exceptions are signalling: IEEE_OVERFLOW_FLAG
