   73   73    1    1
  0.2116017E+02  0.1036401E-08  0.2425004E-08  0.6146140E-09  0.5000000E-15
  1.000000000000000E-004
  CAR 
 Name                                    
    277     68    180
 
  0.0000000E+00  0.0000000E+00  0.0000000E+00  0.7407407E-02
    1      -14.121651   1.000000
    2      -13.033547   1.000000
    3      -12.849836   1.000000
    4      -12.840070   1.000000
    5      -12.011137   1.000000
    6      -11.823100   1.000000
    7      -11.695499   1.000000
    8      -11.641315   1.000000
    9      -11.497194   1.000000
   10      -11.313846   1.000000
   11      -11.257241   1.000000
   12      -11.019986   1.000000
   13      -10.981293   1.000000
   14      -10.630935   1.000000
   15      -10.476127   1.000000
   16      -10.347712   1.000000
   17      -10.157093   1.000000
   18      -10.123799   1.000000
   19       -9.738161   1.000000
   20       -9.662396   1.000000
   21       -9.637014   1.000000
   22       -9.552021   1.000000
   23       -9.436218   1.000000
   24       -9.321972   1.000000
   25       -8.902811   1.000000
   26       -8.828188   1.000000
   27       -8.578521   1.000000
   28       -8.455229   1.000000
   29       -8.250980   1.000000
   30       -8.248248   1.000000
   31       -8.160592   1.000000
   32       -7.883313   1.000000
   33       -7.758269   1.000000
   34       -7.403840   1.000000
   35       -7.286685   1.000000
   36       -7.175761   1.000000
   37       -7.090984   1.000000
   38       -6.911018   1.000000
   39       -6.816604   1.000000
   40       -6.747624   1.000000
   41       -6.744517   1.000000
   42       -6.720440   1.000000
   43       -6.601148   1.000000
   44       -6.500711   1.000000
   45       -6.420677   1.000000
   46       -6.304828   1.000000
   47       -6.285232   1.000000
   48       -6.195768   1.000000
   49       -6.119640   1.000000
   50       -5.988936   1.000000
   51       -5.778098   1.000000
   52       -5.746757   1.000000
   53       -5.715209   1.000000
   54       -5.649625   1.000000
   55       -5.625835   1.000000
   56       -5.521020   1.000000
   57       -5.503970   1.000000
   58       -5.388244   1.000000
   59       -5.257743   1.000000
   60       -5.192993   1.000000
   61       -5.055727   1.000000
   62       -4.858234   1.000000
   63       -4.825069   1.000000
   64       -4.735336   1.000000
   65       -4.699808   1.000000
   66       -4.615928   1.000000
   67       -4.554234   1.000000
   68       -4.408480   1.000000
   69       -4.269245   1.000000
   70       -4.248098   1.000000
   71       -4.163870   1.000000
   72       -4.086891   1.000000
   73       -4.057010   1.000000
   74       -4.016527   1.000000
   75       -3.999817   1.000000
   76       -3.941169   1.000000
   77       -3.930977   1.000000
   78       -3.849538   1.000000
   79       -3.823630   1.000000
   80       -3.719916   1.000000
   81       -3.676008   1.000000
   82       -3.646711   1.000000
   83       -3.636321   1.000000
   84       -3.619729   1.000000
   85       -3.534830   1.000000
   86       -3.518935   1.000000
   87       -3.510981   1.000000
   88       -3.500385   1.000000
   89       -3.455885   1.000000
   90       -3.447558   1.000000
   91       -3.361172   1.000000
   92       -3.323721   1.000000
   93       -3.015409   1.000000
   94       -2.982903   1.000000
   95       -2.926723   1.000000
   96       -2.780550   1.000000
   97       -2.744519   1.000000
   98       -2.693971   1.000000
   99       -2.602207   1.000000
  100       -2.526090   1.000000
  101       -2.335555   1.000000
  102       -2.313529   1.000000
  103       -2.304922   1.000000
  104       -2.283343   1.000000
  105       -2.181849   1.000000
  106       -2.118716   1.000000
  107       -2.086216   1.000000
  108       -2.082801   1.000000
  109       -2.064472   1.000000
  110       -2.029339   1.000000
  111       -1.823028   1.000000
  112       -1.799114   1.000000
  113       -1.768059   1.000000
  114       -1.699592   1.000000
  115       -1.629300   1.000000
  116       -1.603122   1.000000
  117       -1.566135   1.000000
  118       -1.515923   1.000000
  119       -1.335117   1.000000
  120       -1.243516   1.000000
  121       -1.182052   1.000000
  122       -0.975101   1.000000
  123       -0.860903   1.000000
  124       -0.743483   1.000000
  125       -0.697079   1.000000
  126       -0.580651   1.000000
  127       -0.472117   1.000000
  128       -0.370227   1.000000
  129       -0.358557   1.000000
  130       -0.280715   1.000000
  131       -0.084384   1.000000
  132       -0.072189   1.000000
  133        0.060478   1.000168
  134        0.179265   1.018313
  135        0.252623   1.021950
  136        0.296021   0.890166
  137        0.343925   0.549667
  138        0.370887   0.325908
  139        0.411145   0.074061
  140        0.432190   0.004099
  141        0.472121  -0.035458
  142        0.478569  -0.034899
  143        0.527226  -0.015442
  144        0.554611  -0.006824
  145        0.556305  -0.006444
  146        0.612150  -0.000655
  147        0.665601  -0.000038
  148        0.723169  -0.000001
  149        0.739424  -0.000000
  150        0.783789  -0.000000
  151        0.896890  -0.000000
  152        0.995833  -0.000000
  153        1.026981  -0.000000
  154        1.035800  -0.000000
  155        1.044105  -0.000000
  156        1.126855  -0.000000
  157        1.166747  -0.000000
  158        1.214668  -0.000000
  159        1.233330  -0.000000
  160        1.272256  -0.000000
  161        1.298326  -0.000000
  162        1.308405  -0.000000
  163        1.336065  -0.000000
  164        1.354688  -0.000000
  165        1.421427  -0.000000
  166        1.504749  -0.000000
  167        1.545940  -0.000000
  168        1.563060  -0.000000
  169        1.597548  -0.000000
  170        1.619297  -0.000000
  171        1.648398  -0.000000
  172        1.697940  -0.000000
  173        1.746001  -0.000000
  174        2.008572  -0.000000
  175        2.313700  -0.000000
  176        2.333096  -0.000000
  177        2.381577  -0.000000
  178        2.678412  -0.000000
  179        2.839775  -0.000000
  180        3.763998   0.000000
 
  0.2000000E+00  0.2082117E-18  0.3388132E-20  0.1481481E-01
    1      -14.072744   1.000000
    2      -13.362087   1.000000
    3      -12.800365   1.000000
    4      -12.441053   1.000000
    5      -12.130798   1.000000
    6      -11.996000   1.000000
    7      -11.773069   1.000000
    8      -11.390183   1.000000
    9      -11.306727   1.000000
   10      -11.263560   1.000000
   11      -11.213965   1.000000
   12      -11.098802   1.000000
   13      -10.872983   1.000000
   14      -10.722569   1.000000
   15      -10.638054   1.000000
   16      -10.610551   1.000000
   17      -10.500556   1.000000
   18       -9.837523   1.000000
   19       -9.687950   1.000000
   20       -9.619746   1.000000
   21       -9.545445   1.000000
   22       -9.504184   1.000000
   23       -9.419213   1.000000
   24       -9.380687   1.000000
   25       -9.090205   1.000000
   26       -8.820713   1.000000
   27       -8.301444   1.000000
   28       -8.281710   1.000000
   29       -8.215613   1.000000
   30       -8.166181   1.000000
   31       -8.128732   1.000000
   32       -8.056622   1.000000
   33       -7.630569   1.000000
   34       -7.586169   1.000000
   35       -7.305587   1.000000
   36       -7.277097   1.000000
   37       -7.168522   1.000000
   38       -6.999724   1.000000
   39       -6.957091   1.000000
   40       -6.809100   1.000000
   41       -6.726622   1.000000
   42       -6.662409   1.000000
   43       -6.587528   1.000000
   44       -6.508141   1.000000
   45       -6.384834   1.000000
   46       -6.339234   1.000000
   47       -6.276808   1.000000
   48       -6.165463   1.000000
   49       -6.069139   1.000000
   50       -6.047875   1.000000
   51       -5.823738   1.000000
   52       -5.750757   1.000000
   53       -5.641649   1.000000
   54       -5.513038   1.000000
   55       -5.454644   1.000000
   56       -5.407293   1.000000
   57       -5.354212   1.000000
   58       -5.346681   1.000000
   59       -5.304769   1.000000
   60       -5.241015   1.000000
   61       -5.151562   1.000000
   62       -4.954594   1.000000
   63       -4.877415   1.000000
   64       -4.850094   1.000000
   65       -4.676016   1.000000
   66       -4.652189   1.000000
   67       -4.566819   1.000000
   68       -4.443561   1.000000
   69       -4.232106   1.000000
   70       -4.201307   1.000000
   71       -4.155979   1.000000
   72       -4.112304   1.000000
   73       -4.098884   1.000000
   74       -4.019007   1.000000
   75       -3.973126   1.000000
   76       -3.897100   1.000000
   77       -3.873430   1.000000
   78       -3.830959   1.000000
   79       -3.818687   1.000000
   80       -3.780614   1.000000
   81       -3.725757   1.000000
   82       -3.664677   1.000000
   83       -3.633190   1.000000
   84       -3.616517   1.000000
   85       -3.571154   1.000000
   86       -3.526164   1.000000
   87       -3.477911   1.000000
   88       -3.471527   1.000000
   89       -3.465176   1.000000
   90       -3.400812   1.000000
   91       -3.386401   1.000000
   92       -3.306529   1.000000
   93       -3.028946   1.000000
   94       -2.994181   1.000000
   95       -2.963522   1.000000
   96       -2.873929   1.000000
   97       -2.749658   1.000000
   98       -2.702556   1.000000
   99       -2.593654   1.000000
  100       -2.564380   1.000000
  101       -2.400675   1.000000
  102       -2.353016   1.000000
  103       -2.333330   1.000000
  104       -2.241145   1.000000
  105       -2.153319   1.000000
  106       -2.106889   1.000000
  107       -2.033058   1.000000
  108       -2.005598   1.000000
  109       -1.935042   1.000000
  110       -1.893630   1.000000
  111       -1.891557   1.000000
  112       -1.883169   1.000000
  113       -1.712006   1.000000
  114       -1.684686   1.000000
  115       -1.578769   1.000000
  116       -1.514424   1.000000
  117       -1.484446   1.000000
  118       -1.444885   1.000000
  119       -1.387591   1.000000
  120       -1.223689   1.000000
  121       -1.087409   1.000000
  122       -0.986311   1.000000
  123       -0.912858   1.000000
  124       -0.772211   1.000000
  125       -0.713961   1.000000
  126       -0.646199   1.000000
  127       -0.505186   1.000000
  128       -0.449366   1.000000
  129       -0.425042   1.000000
  130       -0.298207   1.000000
  131       -0.253938   1.000000
  132       -0.240502   1.000000
  133       -0.192786   1.000000
  134        0.103888   1.001387
  135        0.176983   1.017335
  136        0.251873   1.022845
  137        0.340809   0.575789
  138        0.379381   0.261428
  139        0.478307  -0.034943
  140        0.507507  -0.024129
  141        0.524065  -0.016731
  142        0.531188  -0.013905
  143        0.556105  -0.006488
  144        0.600035  -0.001146
  145        0.608087  -0.000794
  146        0.643744  -0.000131
  147        0.672306  -0.000025
  148        0.701733  -0.000004
  149        0.748796  -0.000000
  150        0.845347  -0.000000
  151        0.977599  -0.000000
  152        0.992620  -0.000000
  153        1.021167  -0.000000
  154        1.061522  -0.000000
  155        1.129063  -0.000000
  156        1.146931  -0.000000
  157        1.219810  -0.000000
  158        1.239755  -0.000000
  159        1.260148  -0.000000
  160        1.306187  -0.000000
  161        1.355546  -0.000000
  162        1.362354  -0.000000
  163        1.367877  -0.000000
  164        1.406376  -0.000000
  165        1.488223  -0.000000
  166        1.509822  -0.000000
  167        1.534616  -0.000000
  168        1.571857  -0.000000
  169        1.618698  -0.000000
  170        1.645221  -0.000000
  171        1.685854  -0.000000
  172        1.743455  -0.000000
  173        1.835887  -0.000000
  174        2.030659  -0.000000
  175        2.138318  -0.000000
  176        2.232450  -0.000000
  177        2.406407  -0.000000
  178        2.524946  -0.000000
  179        3.171374   0.000000
  180        3.447896   0.000000
 
  0.4000000E+00  0.4164234E-18  0.6776264E-20  0.1481481E-01
    1      -13.927295   1.000000
    2      -13.687232   1.000000
    3      -12.665861   1.000000
    4      -12.437828   1.000000
    5      -11.950943   1.000000
    6      -11.887938   1.000000
    7      -11.874599   1.000000
    8      -11.286010   1.000000
    9      -11.277170   1.000000
   10      -11.249790   1.000000
   11      -11.117006   1.000000
   12      -11.098126   1.000000
   13      -10.924286   1.000000
   14      -10.912328   1.000000
   15      -10.733702   1.000000
   16      -10.694645   1.000000
   17      -10.595556   1.000000
   18      -10.132020   1.000000
   19       -9.722470   1.000000
   20       -9.642768   1.000000
   21       -9.502130   1.000000
   22       -9.382647   1.000000
   23       -9.339358   1.000000
   24       -9.251680   1.000000
   25       -9.051471   1.000000
   26       -8.830376   1.000000
   27       -8.366706   1.000000
   28       -8.154259   1.000000
   29       -7.982790   1.000000
   30       -7.917941   1.000000
   31       -7.854627   1.000000
   32       -7.800852   1.000000
   33       -7.777973   1.000000
   34       -7.761443   1.000000
   35       -7.583828   1.000000
   36       -7.507606   1.000000
   37       -7.372115   1.000000
   38       -7.247896   1.000000
   39       -7.150381   1.000000
   40       -6.864119   1.000000
   41       -6.757748   1.000000
   42       -6.615379   1.000000
   43       -6.512166   1.000000
   44       -6.455034   1.000000
   45       -6.406953   1.000000
   46       -6.159362   1.000000
   47       -6.101741   1.000000
   48       -6.072498   1.000000
   49       -5.975025   1.000000
   50       -5.952361   1.000000
   51       -5.860439   1.000000
   52       -5.828407   1.000000
   53       -5.780061   1.000000
   54       -5.644354   1.000000
   55       -5.544456   1.000000
   56       -5.377362   1.000000
   57       -5.282258   1.000000
   58       -5.202794   1.000000
   59       -5.171395   1.000000
   60       -5.164713   1.000000
   61       -5.052615   1.000000
   62       -5.013560   1.000000
   63       -4.981212   1.000000
   64       -4.761141   1.000000
   65       -4.706866   1.000000
   66       -4.617888   1.000000
   67       -4.466578   1.000000
   68       -4.418929   1.000000
   69       -4.353427   1.000000
   70       -4.301896   1.000000
   71       -4.203128   1.000000
   72       -4.148186   1.000000
   73       -4.129212   1.000000
   74       -4.057910   1.000000
   75       -4.045849   1.000000
   76       -3.990243   1.000000
   77       -3.975622   1.000000
   78       -3.913838   1.000000
   79       -3.750888   1.000000
   80       -3.739323   1.000000
   81       -3.686333   1.000000
   82       -3.674305   1.000000
   83       -3.656028   1.000000
   84       -3.633745   1.000000
   85       -3.559505   1.000000
   86       -3.534211   1.000000
   87       -3.516963   1.000000
   88       -3.343029   1.000000
   89       -3.306014   1.000000
   90       -3.281243   1.000000
   91       -3.237373   1.000000
   92       -3.201524   1.000000
   93       -3.127842   1.000000
   94       -3.111040   1.000000
   95       -3.037688   1.000000
   96       -2.948628   1.000000
   97       -2.886408   1.000000
   98       -2.852334   1.000000
   99       -2.754233   1.000000
  100       -2.506321   1.000000
  101       -2.340875   1.000000
  102       -2.279839   1.000000
  103       -2.242399   1.000000
  104       -2.228239   1.000000
  105       -2.159530   1.000000
  106       -2.151882   1.000000
  107       -2.022527   1.000000
  108       -1.998108   1.000000
  109       -1.977772   1.000000
  110       -1.969249   1.000000
  111       -1.752991   1.000000
  112       -1.679726   1.000000
  113       -1.648590   1.000000
  114       -1.584764   1.000000
  115       -1.475658   1.000000
  116       -1.425609   1.000000
  117       -1.359405   1.000000
  118       -1.240810   1.000000
  119       -1.167464   1.000000
  120       -1.147122   1.000000
  121       -1.056349   1.000000
  122       -1.023538   1.000000
  123       -0.970592   1.000000
  124       -0.888496   1.000000
  125       -0.787096   1.000000
  126       -0.776456   1.000000
  127       -0.749547   1.000000
  128       -0.722454   1.000000
  129       -0.643174   1.000000
  130       -0.608242   1.000000
  131       -0.344260   1.000000
  132       -0.261592   1.000000
  133       -0.085546   1.000000
  134       -0.023685   1.000001
  135        0.023485   1.000020
  136        0.268744   0.992712
  137        0.312286   0.794094
  138        0.357202   0.437585
  139        0.440717  -0.012945
  140        0.459590  -0.032528
  141        0.469139  -0.035299
  142        0.492616  -0.030700
  143        0.577073  -0.003008
  144        0.619793  -0.000453
  145        0.624688  -0.000355
  146        0.669439  -0.000030
  147        0.754108  -0.000000
  148        0.817437  -0.000000
  149        0.827915  -0.000000
  150        0.913958  -0.000000
  151        1.081263  -0.000000
  152        1.084987  -0.000000
  153        1.094798  -0.000000
  154        1.170393  -0.000000
  155        1.177587  -0.000000
  156        1.267020  -0.000000
  157        1.287280  -0.000000
  158        1.303065  -0.000000
  159        1.319945  -0.000000
  160        1.369331  -0.000000
  161        1.384803  -0.000000
  162        1.389308  -0.000000
  163        1.429057  -0.000000
  164        1.473812  -0.000000
  165        1.522877  -0.000000
  166        1.549695  -0.000000
  167        1.595616  -0.000000
  168        1.613668  -0.000000
  169        1.641454  -0.000000
  170        1.660174  -0.000000
  171        1.707724  -0.000000
  172        1.732806  -0.000000
  173        1.788162  -0.000000
  174        1.828827  -0.000000
  175        1.879515  -0.000000
  176        2.004278  -0.000000
  177        2.060075  -0.000000
  178        2.471876  -0.000000
  179        2.569641  -0.000000
  180        2.835381  -0.000000
 
  0.2065562E-19  0.3333333E+00 -0.5293956E-22  0.1481481E-01
    1      -14.121652   1.000000
    2      -13.033547   1.000000
    3      -12.849835   1.000000
    4      -12.840070   1.000000
    5      -12.011137   1.000000
    6      -11.823100   1.000000
    7      -11.695501   1.000000
    8      -11.641315   1.000000
    9      -11.497195   1.000000
   10      -11.313846   1.000000
   11      -11.257240   1.000000
   12      -11.019989   1.000000
   13      -10.981296   1.000000
   14      -10.630934   1.000000
   15      -10.476125   1.000000
   16      -10.347712   1.000000
   17      -10.157092   1.000000
   18      -10.123799   1.000000
   19       -9.738158   1.000000
   20       -9.662398   1.000000
   21       -9.637018   1.000000
   22       -9.552024   1.000000
   23       -9.436217   1.000000
   24       -9.321972   1.000000
   25       -8.902808   1.000000
   26       -8.828187   1.000000
   27       -8.578519   1.000000
   28       -8.455228   1.000000
   29       -8.250985   1.000000
   30       -8.248250   1.000000
   31       -8.160595   1.000000
   32       -7.883306   1.000000
   33       -7.758265   1.000000
   34       -7.403846   1.000000
   35       -7.286694   1.000000
   36       -7.175760   1.000000
   37       -7.090978   1.000000
   38       -6.911017   1.000000
   39       -6.816603   1.000000
   40       -6.747625   1.000000
   41       -6.744516   1.000000
   42       -6.720442   1.000000
   43       -6.601141   1.000000
   44       -6.500707   1.000000
   45       -6.420679   1.000000
   46       -6.304830   1.000000
   47       -6.285236   1.000000
   48       -6.195768   1.000000
   49       -6.119643   1.000000
   50       -5.988934   1.000000
   51       -5.778096   1.000000
   52       -5.746756   1.000000
   53       -5.715212   1.000000
   54       -5.649627   1.000000
   55       -5.625833   1.000000
   56       -5.521019   1.000000
   57       -5.503969   1.000000
   58       -5.388240   1.000000
   59       -5.257741   1.000000
   60       -5.192987   1.000000
   61       -5.055723   1.000000
   62       -4.858235   1.000000
   63       -4.825069   1.000000
   64       -4.735339   1.000000
   65       -4.699801   1.000000
   66       -4.615931   1.000000
   67       -4.554242   1.000000
   68       -4.408473   1.000000
   69       -4.269249   1.000000
   70       -4.248099   1.000000
   71       -4.163870   1.000000
   72       -4.086890   1.000000
   73       -4.057008   1.000000
   74       -4.016526   1.000000
   75       -3.999814   1.000000
   76       -3.941169   1.000000
   77       -3.930976   1.000000
   78       -3.849534   1.000000
   79       -3.823630   1.000000
   80       -3.719910   1.000000
   81       -3.676004   1.000000
   82       -3.646713   1.000000
   83       -3.636320   1.000000
   84       -3.619726   1.000000
   85       -3.534830   1.000000
   86       -3.518931   1.000000
   87       -3.510982   1.000000
   88       -3.500383   1.000000
   89       -3.455886   1.000000
   90       -3.447558   1.000000
   91       -3.361171   1.000000
   92       -3.323717   1.000000
   93       -3.015412   1.000000
   94       -2.982906   1.000000
   95       -2.926721   1.000000
   96       -2.780550   1.000000
   97       -2.744519   1.000000
   98       -2.693972   1.000000
   99       -2.602207   1.000000
  100       -2.526087   1.000000
  101       -2.335556   1.000000
  102       -2.313533   1.000000
  103       -2.304924   1.000000
  104       -2.283344   1.000000
  105       -2.181842   1.000000
  106       -2.118712   1.000000
  107       -2.086214   1.000000
  108       -2.082800   1.000000
  109       -2.064469   1.000000
  110       -2.029334   1.000000
  111       -1.823028   1.000000
  112       -1.799115   1.000000
  113       -1.768060   1.000000
  114       -1.699587   1.000000
  115       -1.629298   1.000000
  116       -1.603124   1.000000
  117       -1.566134   1.000000
  118       -1.515920   1.000000
  119       -1.335116   1.000000
  120       -1.243510   1.000000
  121       -1.182049   1.000000
  122       -0.975103   1.000000
  123       -0.860903   1.000000
  124       -0.743483   1.000000
  125       -0.697084   1.000000
  126       -0.580648   1.000000
  127       -0.472119   1.000000
  128       -0.370225   1.000000
  129       -0.358555   1.000000
  130       -0.280707   1.000000
  131       -0.084387   1.000000
  132       -0.072192   1.000000
  133        0.060481   1.000168
  134        0.179262   1.018312
  135        0.252620   1.021954
  136        0.296024   0.890152
  137        0.343923   0.549677
  138        0.370889   0.325895
  139        0.411147   0.074053
  140        0.432193   0.004092
  141        0.472122  -0.035458
  142        0.478584  -0.034896
  143        0.527230  -0.015441
  144        0.554613  -0.006823
  145        0.556305  -0.006444
  146        0.612150  -0.000655
  147        0.665600  -0.000038
  148        0.723171  -0.000001
  149        0.739426  -0.000000
  150        0.783786  -0.000000
  151        0.896891  -0.000000
  152        0.995830  -0.000000
  153        1.026986  -0.000000
  154        1.035797  -0.000000
  155        1.044105  -0.000000
  156        1.126853  -0.000000
  157        1.166745  -0.000000
  158        1.214671  -0.000000
  159        1.233276  -0.000000
  160        1.272320  -0.000000
  161        1.298769  -0.000000
  162        1.308475  -0.000000
  163        1.336177  -0.000000
  164        1.354280  -0.000000
  165        1.424456  -0.000000
  166        1.498495  -0.000000
  167        1.536827  -0.000000
  168        1.570961  -0.000000
  169        1.605138  -0.000000
  170        1.620200  -0.000000
  171        1.660622  -0.000000
  172        1.674278  -0.000000
  173        1.763027  -0.000000
  174        2.003041  -0.000000
  175        2.278624  -0.000000
  176        2.321857  -0.000000
  177        2.344032  -0.000000
  178        2.459108  -0.000000
  179        2.760158  -0.000000
  180        2.917762  -0.000000
 
  0.2000000E+00  0.3333333E+00  0.6776264E-20  0.1481481E-01
    1      -14.072745   1.000000
    2      -13.362087   1.000000
    3      -12.800365   1.000000
    4      -12.441053   1.000000
    5      -12.130797   1.000000
    6      -11.995999   1.000000
    7      -11.773069   1.000000
    8      -11.390184   1.000000
    9      -11.306726   1.000000
   10      -11.263558   1.000000
   11      -11.213964   1.000000
   12      -11.098803   1.000000
   13      -10.872983   1.000000
   14      -10.722569   1.000000
   15      -10.638054   1.000000
   16      -10.610549   1.000000
   17      -10.500555   1.000000
   18       -9.837521   1.000000
   19       -9.687951   1.000000
   20       -9.619747   1.000000
   21       -9.545447   1.000000
   22       -9.504183   1.000000
   23       -9.419211   1.000000
   24       -9.380685   1.000000
   25       -9.090205   1.000000
   26       -8.820709   1.000000
   27       -8.301439   1.000000
   28       -8.281709   1.000000
   29       -8.215612   1.000000
   30       -8.166180   1.000000
   31       -8.128728   1.000000
   32       -8.056620   1.000000
   33       -7.630571   1.000000
   34       -7.586173   1.000000
   35       -7.305583   1.000000
   36       -7.277100   1.000000
   37       -7.168520   1.000000
   38       -6.999722   1.000000
   39       -6.957091   1.000000
   40       -6.809098   1.000000
   41       -6.726620   1.000000
   42       -6.662407   1.000000
   43       -6.587527   1.000000
   44       -6.508140   1.000000
   45       -6.384834   1.000000
   46       -6.339233   1.000000
   47       -6.276806   1.000000
   48       -6.165458   1.000000
   49       -6.069137   1.000000
   50       -6.047874   1.000000
   51       -5.823740   1.000000
   52       -5.750753   1.000000
   53       -5.641642   1.000000
   54       -5.513035   1.000000
   55       -5.454645   1.000000
   56       -5.407297   1.000000
   57       -5.354213   1.000000
   58       -5.346680   1.000000
   59       -5.304768   1.000000
   60       -5.241015   1.000000
   61       -5.151562   1.000000
   62       -4.954595   1.000000
   63       -4.877415   1.000000
   64       -4.850093   1.000000
   65       -4.676014   1.000000
   66       -4.652187   1.000000
   67       -4.566821   1.000000
   68       -4.443558   1.000000
   69       -4.232098   1.000000
   70       -4.201306   1.000000
   71       -4.155977   1.000000
   72       -4.112307   1.000000
   73       -4.098881   1.000000
   74       -4.019007   1.000000
   75       -3.973129   1.000000
   76       -3.897103   1.000000
   77       -3.873429   1.000000
   78       -3.830959   1.000000
   79       -3.818687   1.000000
   80       -3.780611   1.000000
   81       -3.725757   1.000000
   82       -3.664679   1.000000
   83       -3.633191   1.000000
   84       -3.616517   1.000000
   85       -3.571154   1.000000
   86       -3.526163   1.000000
   87       -3.477910   1.000000
   88       -3.471527   1.000000
   89       -3.465176   1.000000
   90       -3.400812   1.000000
   91       -3.386402   1.000000
   92       -3.306528   1.000000
   93       -3.028947   1.000000
   94       -2.994180   1.000000
   95       -2.963525   1.000000
   96       -2.873927   1.000000
   97       -2.749656   1.000000
   98       -2.702556   1.000000
   99       -2.593656   1.000000
  100       -2.564380   1.000000
  101       -2.400673   1.000000
  102       -2.353015   1.000000
  103       -2.333331   1.000000
  104       -2.241146   1.000000
  105       -2.153319   1.000000
  106       -2.106884   1.000000
  107       -2.033060   1.000000
  108       -2.005600   1.000000
  109       -1.935042   1.000000
  110       -1.893631   1.000000
  111       -1.891558   1.000000
  112       -1.883169   1.000000
  113       -1.712006   1.000000
  114       -1.684683   1.000000
  115       -1.578768   1.000000
  116       -1.514423   1.000000
  117       -1.484445   1.000000
  118       -1.444884   1.000000
  119       -1.387591   1.000000
  120       -1.223688   1.000000
  121       -1.087409   1.000000
  122       -0.986309   1.000000
  123       -0.912856   1.000000
  124       -0.772209   1.000000
  125       -0.713960   1.000000
  126       -0.646199   1.000000
  127       -0.505184   1.000000
  128       -0.449367   1.000000
  129       -0.425043   1.000000
  130       -0.298204   1.000000
  131       -0.253933   1.000000
  132       -0.240502   1.000000
  133       -0.192788   1.000000
  134        0.103888   1.001387
  135        0.176982   1.017335
  136        0.251873   1.022846
  137        0.340811   0.575776
  138        0.379381   0.261427
  139        0.478308  -0.034943
  140        0.507510  -0.024128
  141        0.524066  -0.016731
  142        0.531189  -0.013905
  143        0.556106  -0.006487
  144        0.600035  -0.001146
  145        0.608088  -0.000793
  146        0.643747  -0.000131
  147        0.672309  -0.000025
  148        0.701734  -0.000004
  149        0.748796  -0.000000
  150        0.845349  -0.000000
  151        0.977597  -0.000000
  152        0.992621  -0.000000
  153        1.021168  -0.000000
  154        1.061523  -0.000000
  155        1.129064  -0.000000
  156        1.146952  -0.000000
  157        1.219846  -0.000000
  158        1.239876  -0.000000
  159        1.260155  -0.000000
  160        1.306822  -0.000000
  161        1.356387  -0.000000
  162        1.362026  -0.000000
  163        1.368977  -0.000000
  164        1.409679  -0.000000
  165        1.492640  -0.000000
  166        1.508825  -0.000000
  167        1.536316  -0.000000
  168        1.611578  -0.000000
  169        1.633238  -0.000000
  170        1.664357  -0.000000
  171        1.724648  -0.000000
  172        1.865286  -0.000000
  173        1.972132  -0.000000