   50   50   85    1
  0.2363123E+02  0.8645320E-09  0.6085000E-09  0.2593596E-08  0.5000000E-15
   1.0000000000000000E-004
  CAR 
 Name                                    
    190    149    128

  0.3742002E-15  0.3742002E-15  0.3742002E-15  0.3367003E-02
    1      -14.028535   1.000000
    2      -12.653203   1.000000
    3      -12.533607   1.000000
    4      -11.993192   1.000000
    5      -11.646660   1.000000
    6      -11.287323   1.000000
    7      -11.223580   1.000000
    8      -11.185651   1.000000
    9      -11.044151   1.000000
   10      -10.749733   1.000000
   11      -10.748198   1.000000
   12      -10.403369   1.000000
   13      -10.209299   1.000000
   14      -10.190346   1.000000
   15       -9.879535   1.000000
   16       -9.824732   1.000000
   17       -9.235335   1.000000
   18       -9.182517   1.000000
   19       -8.893524   1.000000
   20       -8.851086   1.000000
   21       -8.604799   1.000000
   22       -8.350059   1.000000
   23       -8.290467   1.000000
   24       -8.164149   1.000000
   25       -8.108707   1.000000
   26       -8.041215   1.000000
   27       -7.580213   1.000000
   28       -7.374048   1.000000
   29       -6.865007   1.000000
   30       -6.676829   1.000000
   31       -6.600260   1.000000
   32       -6.369022   1.000000
   33       -6.207723   1.000000
   34       -6.072006   1.000000
   35       -5.744075   1.000000
   36       -5.719385   1.000000
   37       -5.652992   1.000000
   38       -5.586166   1.000000
   39       -5.550633   1.000000
   40       -5.397499   1.000000
   41       -5.292491   1.000000
   42       -5.239955   1.000000
   43       -5.144183   1.000000
   44       -5.014982   1.000000
   45       -4.936286   1.000000
   46       -4.878368   1.000000
   47       -4.847635   1.000000
   48       -4.709140   1.000000
   49       -4.696061   1.000000
   50       -4.641871   1.000000
   51       -4.621844   1.000000
   52       -4.516943   1.000000
   53       -4.478878   1.000000
   54       -4.405058   1.000000
   55       -4.308129   1.000000
   56       -4.191789   1.000000
   57       -4.155204   1.000000
   58       -4.143511   1.000000
   59       -4.078075   1.000000
   60       -3.993737   1.000000
   61       -3.922597   1.000000
   62       -3.661394   1.000000
   63       -3.534700   1.000000
   64       -3.508155   1.000000
   65       -3.481052   1.000000
   66       -3.443209   1.000000
   67       -3.410966   1.000000
   68       -3.373994   1.000000
   69       -3.328825   1.000000
   70       -3.310728   1.000000
   71       -3.185996   1.000000
   72       -3.155387   1.000000
   73       -2.817196   1.000000
   74       -2.692910   1.000000
   75       -2.550372   1.000000
   76       -2.412538   1.000000
   77       -2.355919   1.000000
   78       -2.325032   1.000000
   79       -2.276482   1.000000
   80       -2.211119   1.000000
   81       -1.850246   1.000000
   82       -1.701000   1.000000
   83       -1.497528   1.000000
   84       -1.276570   1.000000
   85       -1.207301   1.000000
   86       -1.173189   1.000000
   87       -1.121635   1.000000
   88       -1.041531   1.000000
   89       -0.967690   1.000000
   90       -0.453443   1.000000
   91       -0.419455   1.000000
   92       -0.111580   1.026750
   93       -0.043567   0.767548
   94       -0.022407   0.604638
   95        0.109907  -0.035347
   96        0.123244  -0.033938
   97        0.159837  -0.018647
   98        0.427656  -0.000000
   99        0.441429  -0.000000
  100        0.533780  -0.000000
  101        0.540056  -0.000000
  102        0.694514  -0.000000
  103        0.718679  -0.000000
  104        0.753543  -0.000000
  105        0.812593  -0.000000
  106        0.887047  -0.000000
  107        1.167466  -0.000000
  108        1.206135  -0.000000
  109        1.231822  -0.000000
  110        1.333064  -0.000000
  111        1.367111  -0.000000
  112        1.397333  -0.000000
  113        1.436638  -0.000000
  114        1.506172  -0.000000
  115        1.568782  -0.000000
  116        1.643085  -0.000000
  117        1.666038  -0.000000
  118        1.718028  -0.000000
  119        1.786785  -0.000000
  120        1.844020  -0.000000
  121        1.896059  -0.000000
  122        2.028104  -0.000000
  123        2.048390  -0.000000
  124        2.110585  -0.000000
  125        2.168891  -0.000000
  126        2.206559  -0.000000
  127        2.223867  -0.000000
  128        2.340638  -0.000000

  0.1111111E+00  0.3729374E-15  0.3860503E-15  0.6734007E-02
    1      -14.001544   1.000000
    2      -12.660211   1.000000
    3      -12.617852   1.000000
    4      -11.934929   1.000000
    5      -11.633763   1.000000
    6      -11.276999   1.000000
    7      -11.220607   1.000000
    8      -11.179371   1.000000
    9      -11.079715   1.000000
   10      -10.746006   1.000000
   11      -10.744426   1.000000
   12      -10.418571   1.000000
   13      -10.204465   1.000000
   14      -10.188081   1.000000
   15       -9.866342   1.000000
   16       -9.808655   1.000000
   17       -9.204731   1.000000
   18       -9.199677   1.000000
   19       -8.893827   1.000000
   20       -8.838591   1.000000
   21       -8.618894   1.000000
   22       -8.403274   1.000000
   23       -8.340573   1.000000
   24       -8.147212   1.000000
   25       -8.103270   1.000000
   26       -8.073392   1.000000
   27       -7.645979   1.000000
   28       -7.406483   1.000000
   29       -6.787133   1.000000
   30       -6.652696   1.000000
   31       -6.574080   1.000000
   32       -6.312569   1.000000
   33       -6.186066   1.000000
   34       -6.054040   1.000000
   35       -5.866254   1.000000
   36       -5.721772   1.000000
   37       -5.658389   1.000000
   38       -5.532499   1.000000
   39       -5.500943   1.000000
   40       -5.408120   1.000000
   41       -5.277526   1.000000
   42       -5.217068   1.000000
   43       -5.115906   1.000000
   44       -5.017874   1.000000
   45       -4.889924   1.000000
   46       -4.880249   1.000000
   47       -4.830211   1.000000
   48       -4.735850   1.000000
   49       -4.691250   1.000000
   50       -4.626845   1.000000
   51       -4.608831   1.000000
   52       -4.516576   1.000000
   53       -4.458477   1.000000
   54       -4.398816   1.000000
   55       -4.294794   1.000000
   56       -4.194449   1.000000
   57       -4.168020   1.000000
   58       -4.144405   1.000000
   59       -4.088678   1.000000
   60       -4.001814   1.000000
   61       -3.908802   1.000000
   62       -3.682314   1.000000
   63       -3.553572   1.000000
   64       -3.489656   1.000000
   65       -3.479537   1.000000
   66       -3.451485   1.000000
   67       -3.410640   1.000000
   68       -3.360935   1.000000
   69       -3.336043   1.000000
   70       -3.264237   1.000000
   71       -3.212751   1.000000
   72       -3.160563   1.000000
   73       -2.894167   1.000000
   74       -2.672766   1.000000
   75       -2.541485   1.000000
   76       -2.422714   1.000000
   77       -2.406179   1.000000
   78       -2.354891   1.000000
   79       -2.317176   1.000000
   80       -2.236646   1.000000
   81       -1.767671   1.000000
   82       -1.729975   1.000000
   83       -1.518693   1.000000
   84       -1.308549   1.000000
   85       -1.191892   1.000000
   86       -1.157253   1.000000
   87       -1.102441   1.000000
   88       -1.009436   1.000000
   89       -0.868732   1.000000
   90       -0.518159   1.000000
   91       -0.486994   1.000000
   92       -0.105836   1.020333
   93       -0.007796   0.481895
   94        0.030399   0.187497
   95        0.052894   0.067690
   96        0.107513  -0.035041
   97        0.147867  -0.024083
   98        0.448000  -0.000000
   99        0.468005  -0.000000
  100        0.486882  -0.000000
  101        0.561083  -0.000000
  102        0.713432  -0.000000
  103        0.736465  -0.000000
  104        0.767900  -0.000000
  105        0.832764  -0.000000
  106        0.894280  -0.000000
  107        1.176924  -0.000000
  108        1.211423  -0.000000
  109        1.245609  -0.000000
  110        1.352380  -0.000000
  111        1.374031  -0.000000
  112        1.408646  -0.000000
  113        1.458091  -0.000000
  114        1.523873  -0.000000
  115        1.583011  -0.000000
  116        1.626395  -0.000000
  117        1.648341  -0.000000
  118        1.726314  -0.000000
  119        1.777534  -0.000000
  120        1.845154  -0.000000
  121        1.897709  -0.000000
  122        1.984270  -0.000000
  123        2.028295  -0.000000
  124        2.127583  -0.000000
  125        2.160095  -0.000000
  126        2.175070  -0.000000
  127        2.207333  -0.000000
  128        2.335018  -0.000000

  0.2222222E+00  0.3922785E-15  0.3630220E-15  0.6734007E-02
    1      -13.921343   1.000000
    2      -12.888631   1.000000
    3      -12.554426   1.000000
    4      -11.889571   1.000000
    5      -11.594999   1.000000
    6      -11.270172   1.000000
    7      -11.206169   1.000000
    8      -11.166806   1.000000
    9      -11.111695   1.000000
   10      -10.735439   1.000000
   11      -10.732114   1.000000
   12      -10.487374   1.000000
   13      -10.196557   1.000000
   14      -10.187798   1.000000
   15       -9.827139   1.000000
   16       -9.757999   1.000000
   17       -9.238338   1.000000
   18       -9.099464   1.000000
   19       -8.888150   1.000000
   20       -8.814402   1.000000
   21       -8.675330   1.000000
   22       -8.534715   1.000000
   23       -8.448095   1.000000
   24       -8.234302   1.000000
   25       -8.174853   1.000000
   26       -7.941485   1.000000
   27       -7.809906   1.000000
   28       -7.422950   1.000000
   29       -6.640916   1.000000
   30       -6.590378   1.000000
   31       -6.520213   1.000000
   32       -6.289610   1.000000
   33       -6.132786   1.000000
   34       -6.083291   1.000000
   35       -5.982000   1.000000
   36       -5.663485   1.000000
   37       -5.618922   1.000000
   38       -5.543400   1.000000
   39       -5.367324   1.000000
   40       -5.342771   1.000000
   41       -5.259569   1.000000
   42       -5.150267   1.000000
   43       -5.046817   1.000000
   44       -5.025223   1.000000
   45       -5.019065   1.000000
   46       -4.866277   1.000000
   47       -4.763174   1.000000
   48       -4.714256   1.000000
   49       -4.648402   1.000000
   50       -4.601357   1.000000
   51       -4.562427   1.000000
   52       -4.487416   1.000000
   53       -4.448912   1.000000
   54       -4.366477   1.000000
   55       -4.277527   1.000000
   56       -4.209365   1.000000
   57       -4.189496   1.000000
   58       -4.130536   1.000000
   59       -4.064587   1.000000
   60       -4.008502   1.000000
   61       -3.891502   1.000000
   62       -3.739975   1.000000
   63       -3.610054   1.000000
   64       -3.521351   1.000000
   65       -3.487254   1.000000
   66       -3.437693   1.000000
   67       -3.409232   1.000000
   68       -3.356397   1.000000
   69       -3.318203   1.000000
   70       -3.291712   1.000000
   71       -3.167336   1.000000
   72       -3.105781   1.000000
   73       -3.022289   1.000000
   74       -2.631182   1.000000
   75       -2.579074   1.000000
   76       -2.565477   1.000000
   77       -2.521996   1.000000
   78       -2.431736   1.000000
   79       -2.371339   1.000000
   80       -2.177424   1.000000
   81       -1.888075   1.000000
   82       -1.592862   1.000000
   83       -1.504801   1.000000
   84       -1.390976   1.000000
   85       -1.162212   1.000000
   86       -1.105257   1.000000
   87       -1.048367   1.000000
   88       -0.931700   1.000000
   89       -0.663049   1.000000
   90       -0.637520   1.000000
   91       -0.613831   1.000000
   92       -0.172259   1.021995
   93       -0.026490   0.637986
   94        0.002596   0.394864
   95        0.051509   0.073607
   96        0.157645  -0.019613
   97        0.318414  -0.000018
   98        0.357358  -0.000001
   99        0.440808  -0.000000
  100        0.455046  -0.000000
  101        0.586339  -0.000000
  102        0.700697  -0.000000
  103        0.795420  -0.000000
  104        0.826253  -0.000000
  105        0.871001  -0.000000
  106        1.042700  -0.000000
  107        1.125486  -0.000000
  108        1.237656  -0.000000
  109        1.317809  -0.000000
  110        1.357112  -0.000000
  111        1.389607  -0.000000
  112        1.453100  -0.000000
  113        1.494563  -0.000000
  114        1.537991  -0.000000
  115        1.569199  -0.000000
  116        1.617760  -0.000000
  117        1.684719  -0.000000
  118        1.717830  -0.000000
  119        1.758368  -0.000000
  120        1.846912  -0.000000
  121        1.911148  -0.000000
  122        1.918786  -0.000000
  123        1.980179  -0.000000
  124        2.021227  -0.000000
  125        2.134221  -0.000000
  126        2.146044  -0.000000
  127        2.234898  -0.000000
  128        2.324171  -0.000000

  0.3333333E+00  0.3713828E-15  0.3468587E-15  0.6734007E-02
    1      -13.790333   1.000000
    2      -13.147676   1.000000
    3      -12.441372   1.000000
    4      -11.961956   1.000000
    5      -11.538224   1.000000
    6      -11.281394   1.000000
    7      -11.181325   1.000000
    8      -11.160439   1.000000
    9      -11.058118   1.000000
   10      -10.720514   1.000000
   11      -10.714236   1.000000
   12      -10.610169   1.000000
   13      -10.198608   1.000000
   14      -10.194884   1.000000
   15       -9.769923   1.000000
   16       -9.677034   1.000000
   17       -9.263303   1.000000
   18       -8.945577   1.000000
   19       -8.886484   1.000000
   20       -8.809847   1.000000
   21       -8.756423   1.000000
   22       -8.666086   1.000000
   23       -8.542018   1.000000
   24       -8.335556   1.000000
   25       -8.281336   1.000000
   26       -8.071839   1.000000
   27       -7.683548   1.000000
   28       -7.350596   1.000000
   29       -6.635346   1.000000
   30       -6.598488   1.000000
   31       -6.472103   1.000000
   32       -6.440715   1.000000
   33       -6.104676   1.000000
   34       -6.012195   1.000000
   35       -5.863042   1.000000
   36       -5.581456   1.000000
   37       -5.542331   1.000000
   38       -5.495255   1.000000
   39       -5.321509   1.000000
   40       -5.274879   1.000000
   41       -5.224086   1.000000
   42       -5.212415   1.000000
   43       -5.095163   1.000000
   44       -5.015262   1.000000
   45       -4.937061   1.000000
   46       -4.867592   1.000000
   47       -4.745197   1.000000
   48       -4.684309   1.000000
   49       -4.594197   1.000000
   50       -4.547360   1.000000
   51       -4.532962   1.000000
   52       -4.469392   1.000000
   53       -4.412938   1.000000
   54       -4.303471   1.000000
   55       -4.278501   1.000000
   56       -4.244621   1.000000
   57       -4.138159   1.000000
   58       -4.109785   1.000000
   59       -4.049169   1.000000
   60       -3.960689   1.000000
   61       -3.903600   1.000000
   62       -3.765368   1.000000
   63       -3.711499   1.000000
   64       -3.546152   1.000000
   65       -3.539042   1.000000
   66       -3.484081   1.000000
   67       -3.422440   1.000000
   68       -3.389803   1.000000
   69       -3.315545   1.000000
   70       -3.283356   1.000000
   71       -3.099422   1.000000
   72       -3.018503   1.000000
   73       -2.994814   1.000000
   74       -2.786087   1.000000
   75       -2.755372   1.000000
   76       -2.648929   1.000000
   77       -2.539794   1.000000
   78       -2.503511   1.000000
   79       -2.431984   1.000000
   80       -2.105737   1.000000
   81       -1.932645   1.000000
   82       -1.692801   1.000000
   83       -1.545123   1.000000
   84       -1.244858   1.000000
   85       -1.198855   1.000000
   86       -1.007811   1.000000
   87       -0.930875   1.000000
   88       -0.861972   1.000000
   89       -0.785594   1.000000
   90       -0.736988   1.000000
   91       -0.377060   1.000001
   92       -0.321577   1.000048
   93       -0.050774   0.815719
   94       -0.006414   0.470215
   95        0.082429  -0.015282
   96        0.194333  -0.006948
   97        0.257468  -0.000514
   98        0.322801  -0.000013
   99        0.368005  -0.000001
  100        0.591086  -0.000000
  101        0.603179  -0.000000
  102        0.812763  -0.000000
  103        0.844854  -0.000000
  104        0.885888  -0.000000
  105        0.954916  -0.000000
  106        0.973275  -0.000000
  107        1.245917  -0.000000
  108        1.318073  -0.000000
  109        1.346471  -0.000000
  110        1.367774  -0.000000
  111        1.424608  -0.000000
  112        1.487265  -0.000000
  113        1.499161  -0.000000
  114        1.515636  -0.000000
  115        1.544157  -0.000000
  116        1.632649  -0.000000
  117        1.675454  -0.000000
  118        1.736416  -0.000000
  119        1.796932  -0.000000
  120        1.820628  -0.000000
  121        1.853348  -0.000000
  122        1.864071  -0.000000
  123        1.956340  -0.000000
  124        1.999196  -0.000000
  125        2.055944  -0.000000
  126        2.115526  -0.000000
  127        2.130713  -0.000000
  128        2.266330  -0.000000

  0.4444444E+00  0.3870091E-15  0.3932070E-15  0.6734007E-02
    1      -13.612987   1.000000
    2      -13.394435   1.000000
    3      -12.298805   1.000000
    4      -12.107766   1.000000
    5      -11.493133   1.000000
    6      -11.287474   1.000000
    7      -11.167687   1.000000
    8      -11.155411   1.000000
    9      -10.965122   1.000000
   10      -10.744721   1.000000
   11      -10.705003   1.000000
   12      -10.698716   1.000000
   13      -10.209610   1.000000
   14      -10.201134   1.000000
   15       -9.723087   1.000000
   16       -9.601620   1.000000
   17       -9.266696   1.000000
   18       -8.965393   1.000000
   19       -8.873180   1.000000
   20       -8.787328   1.000000
   21       -8.733696   1.000000
   22       -8.683562   1.000000
   23       -8.612389   1.000000
   24       -8.408354   1.000000
   25       -8.355288   1.000000
   26       -8.277334   1.000000
   27       -7.444175   1.000000
   28       -7.227253   1.000000
   29       -6.956278   1.000000
   30       -6.595698   1.000000
   31       -6.472416   1.000000
   32       -6.445204   1.000000
   33       -6.079059   1.000000
   34       -5.859506   1.000000
   35       -5.699089   1.000000
   36       -5.563078   1.000000
   37       -5.512196   1.000000
   38       -5.438415   1.000000
   39       -5.400747   1.000000
   40       -5.328089   1.000000
   41       -5.250691   1.000000
   42       -5.234219   1.000000
   43       -5.039811   1.000000
   44       -4.927911   1.000000
   45       -4.881589   1.000000
   46       -4.809267   1.000000
   47       -4.761878   1.000000
   48       -4.716477   1.000000
   49       -4.608166   1.000000
   50       -4.515760   1.000000
   51       -4.473189   1.000000
   52       -4.421932   1.000000
   53       -4.387965   1.000000
   54       -4.357669   1.000000
   55       -4.260089   1.000000
   56       -4.192974   1.000000
   57       -4.157754   1.000000
   58       -4.065648   1.000000
   59       -3.973220   1.000000
   60       -3.946800   1.000000
   61       -3.876162   1.000000
   62       -3.827007   1.000000
   63       -3.755316   1.000000
   64       -3.678227   1.000000
   65       -3.537742   1.000000
   66       -3.519144   1.000000
   67       -3.393908   1.000000
   68       -3.372501   1.000000
   69       -3.313114   1.000000
   70       -3.272536   1.000000
   71       -3.061152   1.000000
   72       -3.027501   1.000000
   73       -2.949119   1.000000
   74       -2.867136   1.000000
   75       -2.831704   1.000000
   76       -2.755434   1.000000
   77       -2.671793   1.000000
   78       -2.450584   1.000000
   79       -2.392103   1.000000
   80       -2.229662   1.000000
   81       -1.808336   1.000000
   82       -1.733426   1.000000
   83       -1.626674   1.000000
   84       -1.327149   1.000000
   85       -1.103130   1.000000
   86       -0.974436   1.000000
   87       -0.912370   1.000000
   88       -0.865589   1.000000
   89       -0.735209   1.000000
   90       -0.591164   1.000000
   91       -0.521174   1.000000
   92       -0.248631   1.001890
   93       -0.051230   0.818612
   94       -0.008225   0.485522
   95        0.037287   0.145532
   96        0.132922  -0.030682
   97        0.230198  -0.001779
   98        0.286822  -0.000112
   99        0.526165  -0.000000
  100        0.564292  -0.000000
  101        0.600324  -0.000000
  102        0.743499  -0.000000
  103        0.867371  -0.000000
  104        0.912037  -0.000000
  105        1.113147  -0.000000
  106        1.175364  -0.000000
  107        1.253601  -0.000000
  108        1.349325  -0.000000
  109        1.381706  -0.000000
  110        1.434823  -0.000000
  111        1.466472  -0.000000
  112        1.477986  -0.000000
  113        1.502303  -0.000000
  114        1.524857  -0.000000
  115        1.540703  -0.000000
  116        1.566043  -0.000000
  117        1.635354  -0.000000
  118        1.670433  -0.000000
  119        1.763196  -0.000000
  120        1.791045  -0.000000
  121        1.822285  -0.000000
  122        1.826450  -0.000000
  123        1.960316  -0.000000
  124        2.004795  -0.000000
  125        2.100451  -0.000000
  126        2.111154  -0.000000
  127        2.133402  -0.000000
  128        2.204815  -0.000000

  0.3742002E-15  0.9090909E-01  0.3596334E-15  0.6734007E-02
    1      -13.995395   1.000000
    2      -12.624677   1.000000
    3      -12.537869   1.000000
    4      -11.961152   1.000000
    5      -11.624737   1.000000
    6      -11.403534   1.000000
    7      -11.364085   1.000000
    8      -11.231089   1.000000
    9      -11.048608   1.000000
   10      -10.748877   1.000000
   11      -10.722660   1.000000
   12      -10.387446   1.000000
   13      -10.157901   1.000000
   14      -10.137742   1.000000
   15       -9.919933   1.000000
   16       -9.796929   1.000000
   17       -9.245393   1.000000
   18       -9.195198   1.000000
   19       -8.995386   1.000000
   20       -8.855229   1.000000
   21       -8.618810   1.000000
   22       -8.283657   1.000000
   23       -8.122062   1.000000
   24       -8.058568   1.000000
   25       -7.971987   1.000000
   26       -7.927196   1.000000
   27       -7.586353   1.000000
   28       -7.403889   1.000000
   29       -6.822796   1.000000
   30       -6.706985   1.000000
   31       -6.602078   1.000000
   32       -6.347005   1.000000
   33       -6.196617   1.000000
   34       -6.105822   1.000000
   35       -5.818957   1.000000
   36       -5.696901   1.000000
   37       -5.632896   1.000000
   38       -5.540584   1.000000
   39       -5.500682   1.000000
   40       -5.418370   1.000000
   41       -5.331307   1.000000
   42       -5.266832   1.000000
   43       -5.162081   1.000000
   44       -5.079371   1.000000
   45       -5.011327   1.000000
   46       -4.916122   1.000000
   47       -4.863220   1.000000
   48       -4.798688   1.000000
   49       -4.698244   1.000000
   50       -4.652836   1.000000
   51       -4.613605   1.000000
   52       -4.534040   1.000000
   53       -4.509342   1.000000
   54       -4.469502   1.000000
   55       -4.339932   1.000000
   56       -4.245760   1.000000
   57       -4.143778   1.000000
   58       -4.093688   1.000000
   59       -4.011501   1.000000
   60       -3.989657   1.000000
   61       -3.905330   1.000000
   62       -3.664153   1.000000
   63       -3.561479   1.000000
   64       -3.533364   1.000000
   65       -3.523363   1.000000
   66       -3.446950   1.000000
   67       -3.416868   1.000000
   68       -3.362410   1.000000
   69       -3.301012   1.000000
   70       -3.278661   1.000000
   71       -3.216769   1.000000
   72       -3.132838   1.000000
   73       -2.924962   1.000000
   74       -2.680890   1.000000
   75       -2.468542   1.000000
   76       -2.406021   1.000000
   77       -2.370630   1.000000
   78       -2.344880   1.000000
   79       -2.264974   1.000000
   80       -2.183808   1.000000
   81       -1.905574   1.000000
   82       -1.615391   1.000000
   83       -1.518614   1.000000
   84       -1.365527   1.000000
   85       -1.258839   1.000000
   86       -1.181025   1.000000
   87       -1.101166   1.000000
   88       -1.041224   1.000000
   89       -0.962812   1.000000
   90       -0.576968   1.000000
   91       -0.386867   1.000001
   92       -0.246426   1.002073
   93       -0.145063   1.033393
   94       -0.107465   1.022370
   95        0.060555   0.038425
   96        0.114012  -0.035425
   97        0.177440  -0.011762
   98        0.308979  -0.000031
   99        0.369237  -0.000001
  100        0.470410  -0.000000
  101        0.680642  -0.000000
  102        0.741200  -0.000000
  103        0.778465  -0.000000
  104        0.852114  -0.000000
  105        0.886939  -0.000000
  106        0.986961  -0.000000
  107        1.106949  -0.000000
  108        1.210231  -0.000000
  109        1.256194  -0.000000
  110        1.336262  -0.000000
  111        1.367743  -0.000000
  112        1.402071  -0.000000
  113        1.465742  -0.000000
  114        1.533320  -0.000000
  115        1.580015  -0.000000
  116        1.639947  -0.000000
  117        1.655813  -0.000000
  118        1.684702  -0.000000
  119        1.763527  -0.000000
  120        1.873444  -0.000000
  121        1.920158  -0.000000
  122        1.961040  -0.000000
  123        2.027888  -0.000000
  124        2.114036  -0.000000
  125        2.173437  -0.000000
  126        2.189798  -0.000000
  127        2.225302  -0.000000
  128        2.347212  -0.000000

  0.1111111E+00  0.9090909E-01  0.4822234E-15  0.6734007E-02
    1      -13.946610   1.000000
    2      -12.723535   1.000000
    3      -12.575799   1.000000
    4      -11.888058   1.000000
    5      -11.601092   1.000000
    6      -11.448639   1.000000
    7      -11.312740   1.000000
    8      -11.210644   1.000000
    9      -11.099926   1.000000
   10      -10.754133   1.000000
   11      -10.658157   1.000000
   12      -10.420643   1.000000
   13      -10.211265   1.000000
   14      -10.162088   1.000000
   15       -9.868684   1.000000
   16       -9.742548   1.000000
   17       -9.268221   1.000000
   18       -9.140046   1.000000
   19       -8.968633   1.000000
   20       -8.903452   1.000000
   21       -8.658265   1.000000
   22       -8.370400   1.000000
   23       -8.166789   1.000000
   24       -8.023475   1.000000
   25       -7.986272   1.000000
   26       -7.950800   1.000000
   27       -7.708714   1.000000
   28       -7.422461   1.000000
   29       -6.755901   1.000000
   30       -6.674869   1.000000
   31       -6.509515   1.000000
   32       -6.257910   1.000000
   33       -6.194020   1.000000
   34       -6.095718   1.000000
   35       -5.935926   1.000000
   36       -5.740290   1.000000
   37       -5.561186   1.000000
   38       -5.519698   1.000000
   39       -5.461109   1.000000
   40       -5.413782   1.000000
   41       -5.308061   1.000000
   42       -5.204170   1.000000
   43       -5.156637   1.000000
   44       -5.077765   1.000000
   45       -4.996040   1.000000
   46       -4.872748   1.000000
   47       -4.829503   1.000000
   48       -4.762927   1.000000
   49       -4.669404   1.000000
   50       -4.626370   1.000000
   51       -4.591907   1.000000
   52       -4.543261   1.000000
   53       -4.516471   1.000000
   54       -4.451095   1.000000
   55       -4.344623   1.000000
   56       -4.248609   1.000000
   57       -4.146708   1.000000
   58       -4.102530   1.000000
   59       -4.005857   1.000000
   60       -3.995316   1.000000
   61       -3.883655   1.000000
   62       -3.703792   1.000000
   63       -3.596658   1.000000
   64       -3.573284   1.000000
   65       -3.505042   1.000000
   66       -3.446454   1.000000
   67       -3.429709   1.000000
   68       -3.340611   1.000000
   69       -3.306988   1.000000
   70       -3.248328   1.000000
   71       -3.196668   1.000000
   72       -3.139982   1.000000
   73       -2.998638   1.000000
   74       -2.655349   1.000000
   75       -2.528016   1.000000
   76       -2.490914   1.000000
   77       -2.444022   1.000000
   78       -2.377450   1.000000
   79       -2.269395   1.000000
   80       -2.192766   1.000000
   81       -1.918153   1.000000
   82       -1.606502   1.000000
   83       -1.544821   1.000000
   84       -1.402471   1.000000
   85       -1.281381   1.000000
   86       -1.152741   1.000000
   87       -1.020116   1.000000
   88       -0.923333   1.000000
   89       -0.855456   1.000000
   90       -0.653994   1.000000
   91       -0.469002   1.000000
   92       -0.173616   1.021374
   93       -0.148687   1.032219
   94       -0.003537   0.445969
   95        0.032445   0.174568
   96        0.107756  -0.035082
   97        0.131504  -0.031234
   98        0.239762  -0.001174
   99        0.331657  -0.000008
  100        0.612079  -0.000000
  101        0.665873  -0.000000
  102        0.728291  -0.000000
  103        0.775995  -0.000000
  104        0.875344  -0.000000
  105        0.925373  -0.000000
  106        0.971482  -0.000000
  107        1.177610  -0.000000
  108        1.204691  -0.000000
  109        1.258986  -0.000000
  110        1.302937  -0.000000
  111        1.383588  -0.000000
  112        1.455387  -0.000000
  113        1.490789  -0.000000
  114        1.532522  -0.000000
  115        1.575748  -0.000000
  116        1.637361  -0.000000
  117        1.668997  -0.000000
  118        1.696761  -0.000000
  119        1.755212  -0.000000
  120        1.874556  -0.000000
  121        1.897142  -0.000000
  122        1.939259  -0.000000