   55   55   85    1
  0.1292508E+02  0.6078000E-09  0.6078000E-09  0.2222000E-08  0.5000000E-15
   1.0000000000000000E-004
  CAR 
 Name                                    
    199     41    132

  0.3742002E-15  0.3742002E-15  0.1262379E-14  0.1234568E-01
    1      -11.298816   1.000000
    2      -10.710853   1.000000
    3       -9.899590   1.000000
    4       -8.710069   1.000000
    5       -8.393580   1.000000
    6       -8.312092   1.000000
    7       -7.934661   1.000000
    8       -7.806923   1.000000
    9       -7.530123   1.000000
   10       -7.523938   1.000000
   11       -7.505534   1.000000
   12       -7.422889   1.000000
   13       -7.407877   1.000000
   14       -7.360456   1.000000
   15       -7.165422   1.000000
   16       -7.161169   1.000000
   17       -7.067042   1.000000
   18       -6.858975   1.000000
   19       -6.731416   1.000000
   20       -6.559385   1.000000
   21       -6.517014   1.000000
   22       -5.997840   1.000000
   23       -5.821254   1.000000
   24       -5.709791   1.000000
   25       -5.649364   1.000000
   26       -5.558922   1.000000
   27       -5.483928   1.000000
   28       -5.350186   1.000000
   29       -5.083965   1.000000
   30       -5.040579   1.000000
   31       -4.596733   1.000000
   32       -4.422239   1.000000
   33       -4.277441   1.000000
   34       -4.231786   1.000000
   35       -4.096250   1.000000
   36       -4.041361   1.000000
   37       -3.812726   1.000000
   38       -3.247538   1.000000
   39       -2.961595   1.000000
   40       -2.756303   1.000000
   41       -2.698781   1.000000
   42       -2.491480   1.000000
   43       -2.491096   1.000000
   44       -2.309001   1.000000
   45       -2.194961   1.000000
   46       -2.173194   1.000000
   47       -2.116515   1.000000
   48       -1.934691   1.000000
   49       -1.776372   1.000000
   50       -1.717908   1.000000
   51       -1.663824   1.000000
   52       -1.655201   1.000000
   53       -1.545407   1.000000
   54       -1.434818   1.000000
   55       -1.399276   1.000000
   56       -1.316707   1.000000
   57       -1.274351   1.000000
   58       -1.198056   1.000000
   59       -1.178257   1.000000
   60       -1.127693   1.000000
   61       -1.123075   1.000000
   62       -0.975042   1.000000
   63       -0.897346   1.000000
   64       -0.826865   1.000000
   65       -0.807769   1.000000
   66       -0.803783   1.000000
   67       -0.595825   1.000000
   68       -0.579150   1.000000
   69       -0.513327   1.000000
   70       -0.507317   1.000000
   71       -0.418712   1.000000
   72       -0.344088   1.000000
   73       -0.089253   1.000000
   74       -0.036094   1.000000
   75        0.067599   1.000000
   76        0.157534   1.000000
   77        0.161265   1.000000
   78        0.249991   1.000000
   79        0.266297   1.000000
   80        0.519788   1.000000
   81        0.520874   1.000000
   82        0.936405   1.000000
   83        0.977393   1.000000
   84        1.303840   1.000000
   85        1.453748   1.000000
   86        1.471696   1.000000
   87        1.479973   1.000000
   88        1.629239   1.000000
   89        1.781202   1.000000
   90        1.789466   1.000000
   91        1.841597   1.000000
   92        1.867769   1.000000
   93        1.925553   1.000000
   94        1.999316   1.000000
   95        2.039876   1.000001
   96        2.154347   1.000033
   97        2.365710   1.005266
   98        2.398358   1.009084
   99        2.889264   0.132808
  100        2.951836   0.008035
  101        2.997176  -0.028330
  102        3.262595  -0.002103
  103        3.268816  -0.001847
  104        3.465627  -0.000010
  105        3.474706  -0.000007
  106        3.532812  -0.000001
  107        3.536942  -0.000001
  108        3.754145  -0.000000
  109        3.784797  -0.000000
  110        3.795451  -0.000000
  111        3.811540  -0.000000
  112        3.869988  -0.000000
  113        3.916084  -0.000000
  114        3.971824  -0.000000
  115        4.009945  -0.000000
  116        4.013541  -0.000000
  117        4.086741  -0.000000
  118        4.089652  -0.000000
  119        4.177652  -0.000000
  120        4.235593  -0.000000
  121        4.286859  -0.000000
  122        4.292632  -0.000000
  123        4.301494  -0.000000
  124        4.413684  -0.000000
  125        4.428001  -0.000000
  126        4.516467  -0.000000
  127        4.576832  -0.000000
  128        4.583029  -0.000000
  129        4.736905  -0.000000
  130        4.844706  -0.000000
  131        5.062678  -0.000000
  132        5.125912  -0.000000

  0.1111111E+00  0.3756941E-15  0.1262379E-14  0.2469136E-01
    1      -11.241531   1.000000
    2      -10.658609   1.000000
    3       -9.858714   1.000000
    4       -8.678472   1.000000
    5       -8.367123   1.000000
    6       -8.330059   1.000000
    7       -8.078789   1.000000
    8       -8.076295   1.000000
    9       -7.815342   1.000000
   10       -7.663204   1.000000
   11       -7.633695   1.000000
   12       -7.630597   1.000000
   13       -7.576482   1.000000
   14       -7.554836   1.000000
   15       -6.973522   1.000000
   16       -6.874144   1.000000
   17       -6.769274   1.000000
   18       -6.649554   1.000000
   19       -6.560504   1.000000
   20       -6.422478   1.000000
   21       -6.314260   1.000000
   22       -5.962784   1.000000
   23       -5.852860   1.000000
   24       -5.731133   1.000000
   25       -5.566484   1.000000
   26       -5.549237   1.000000
   27       -5.471601   1.000000
   28       -5.352568   1.000000
   29       -5.210106   1.000000
   30       -4.972213   1.000000
   31       -4.511292   1.000000
   32       -4.250544   1.000000
   33       -4.218440   1.000000
   34       -4.072022   1.000000
   35       -4.007012   1.000000
   36       -3.815648   1.000000
   37       -3.726066   1.000000
   38       -3.234457   1.000000
   39       -2.980484   1.000000
   40       -2.811248   1.000000
   41       -2.665211   1.000000
   42       -2.604810   1.000000
   43       -2.482556   1.000000
   44       -2.409810   1.000000
   45       -2.269495   1.000000
   46       -2.225865   1.000000
   47       -2.165682   1.000000
   48       -2.097903   1.000000
   49       -1.780193   1.000000
   50       -1.766772   1.000000
   51       -1.718326   1.000000
   52       -1.662268   1.000000
   53       -1.525952   1.000000
   54       -1.427330   1.000000
   55       -1.406895   1.000000
   56       -1.342789   1.000000
   57       -1.261908   1.000000
   58       -1.221318   1.000000
   59       -1.166394   1.000000
   60       -1.151215   1.000000
   61       -1.105961   1.000000
   62       -1.070958   1.000000
   63       -0.931757   1.000000
   64       -0.875701   1.000000
   65       -0.846792   1.000000
   66       -0.812373   1.000000
   67       -0.730619   1.000000
   68       -0.586222   1.000000
   69       -0.511847   1.000000
   70       -0.457112   1.000000
   71       -0.408149   1.000000
   72       -0.353898   1.000000
   73       -0.226478   1.000000
   74       -0.043958   1.000000
   75        0.013479   1.000000
   76        0.040617   1.000000
   77        0.165550   1.000000
   78        0.197365   1.000000
   79        0.379759   1.000000
   80        0.420592   1.000000
   81        0.559634   1.000000
   82        0.738187   1.000000
   83        0.860020   1.000000
   84        1.192725   1.000000
   85        1.303875   1.000000
   86        1.384865   1.000000
   87        1.399277   1.000000
   88        1.576434   1.000000
   89        1.640432   1.000000
   90        1.768538   1.000000
   91        1.821156   1.000000
   92        1.826995   1.000000
   93        1.874493   1.000000
   94        2.048171   1.000001
   95        2.099077   1.000006
   96        2.177067   1.000064
   97        2.591128   1.024702
   98        2.676163   0.906468
   99        2.878614   0.163714
  100        2.969566  -0.010741
  101        3.029006  -0.035300
  102        3.142038  -0.016072
  103        3.188512  -0.008230
  104        3.305390  -0.000822
  105        3.498982  -0.000003
  106        3.630372  -0.000000
  107        3.719591  -0.000000
  108        3.756186  -0.000000
  109        3.772563  -0.000000
  110        3.789134  -0.000000
  111        3.815102  -0.000000
  112        3.864335  -0.000000
  113        3.911298  -0.000000
  114        3.961967  -0.000000
  115        3.985207  -0.000000
  116        4.012574  -0.000000
  117        4.067588  -0.000000
  118        4.085600  -0.000000
  119        4.162592  -0.000000
  120        4.203566  -0.000000
  121        4.232617  -0.000000
  122        4.241666  -0.000000
  123        4.313695  -0.000000
  124        4.348900  -0.000000
  125        4.401686  -0.000000
  126        4.450075  -0.000000
  127        4.531022  -0.000000
  128        4.577309  -0.000000
  129        4.756969  -0.000000
  130        4.830565  -0.000000
  131        5.015648  -0.000000
  132        5.056234  -0.000000

  0.2222222E+00  0.3503827E-15  0.1262379E-14  0.2469136E-01
    1      -11.071641   1.000000
    2      -10.504229   1.000000
    3       -9.739240   1.000000
    4       -8.743935   1.000000
    5       -8.588321   1.000000
    6       -8.502804   1.000000
    7       -8.443955   1.000000
    8       -8.245076   1.000000
    9       -7.902372   1.000000
   10       -7.890908   1.000000
   11       -7.850044   1.000000
   12       -7.819984   1.000000
   13       -7.758070   1.000000
   14       -7.711613   1.000000
   15       -7.027267   1.000000
   16       -6.710033   1.000000
   17       -6.447199   1.000000
   18       -6.401661   1.000000
   19       -6.354549   1.000000
   20       -6.209295   1.000000
   21       -5.945355   1.000000
   22       -5.792570   1.000000
   23       -5.715256   1.000000
   24       -5.601692   1.000000
   25       -5.553961   1.000000
   26       -5.448815   1.000000
   27       -5.350690   1.000000
   28       -5.317867   1.000000
   29       -4.895713   1.000000
   30       -4.787001   1.000000
   31       -4.316089   1.000000
   32       -4.057467   1.000000
   33       -4.013128   1.000000
   34       -3.872599   1.000000
   35       -3.621392   1.000000
   36       -3.536272   1.000000
   37       -3.302773   1.000000
   38       -3.195536   1.000000
   39       -3.058057   1.000000
   40       -3.016998   1.000000
   41       -2.903116   1.000000
   42       -2.846500   1.000000
   43       -2.698308   1.000000
   44       -2.538730   1.000000
   45       -2.424262   1.000000
   46       -2.262529   1.000000
   47       -2.230552   1.000000
   48       -2.100719   1.000000
   49       -1.886320   1.000000
   50       -1.781243   1.000000
   51       -1.772791   1.000000
   52       -1.706483   1.000000
   53       -1.671486   1.000000
   54       -1.601855   1.000000
   55       -1.529471   1.000000
   56       -1.426372   1.000000
   57       -1.276662   1.000000
   58       -1.253147   1.000000
   59       -1.230753   1.000000
   60       -1.193326   1.000000
   61       -1.162517   1.000000
   62       -1.099449   1.000000
   63       -1.054429   1.000000
   64       -0.963117   1.000000
   65       -0.934270   1.000000
   66       -0.862185   1.000000
   67       -0.786715   1.000000
   68       -0.768157   1.000000
   69       -0.617463   1.000000
   70       -0.589865   1.000000
   71       -0.469513   1.000000
   72       -0.391375   1.000000
   73       -0.304440   1.000000
   74       -0.212572   1.000000
   75       -0.192586   1.000000
   76       -0.068231   1.000000
   77        0.123449   1.000000
   78        0.267913   1.000000
   79        0.292408   1.000000
   80        0.401394   1.000000
   81        0.553995   1.000000
   82        0.672529   1.000000
   83        0.843584   1.000000
   84        0.934678   1.000000
   85        0.993319   1.000000
   86        1.153596   1.000000
   87        1.289385   1.000000
   88        1.421721   1.000000
   89        1.585765   1.000000
   90        1.643735   1.000000
   91        1.745986   1.000000
   92        1.773356   1.000000
   93        1.833000   1.000000
   94        2.054945   1.000001
   95        2.106209   1.000007
   96        2.249448   1.000443
   97        2.572552   1.032059
   98        2.659292   0.943221
   99        2.873946   0.178111
  100        3.001330  -0.029938
  101        3.078850  -0.030114
  102        3.261476  -0.002152
  103        3.372073  -0.000154
  104        3.380559  -0.000122
  105        3.540933  -0.000001
  106        3.552177  -0.000001
  107        3.592191  -0.000000
  108        3.625623  -0.000000
  109        3.660915  -0.000000
  110        3.713048  -0.000000
  111        3.758148  -0.000000
  112        3.852952  -0.000000
  113        3.903834  -0.000000
  114        3.928763  -0.000000
  115        3.952267  -0.000000
  116        4.017789  -0.000000
  117        4.056030  -0.000000
  118        4.081255  -0.000000
  119        4.095096  -0.000000
  120        4.137321  -0.000000
  121        4.196270  -0.000000
  122        4.278888  -0.000000
  123        4.302612  -0.000000
  124        4.332473  -0.000000
  125        4.387244  -0.000000
  126        4.437983  -0.000000
  127        4.499368  -0.000000
  128        4.596820  -0.000000
  129        4.659771  -0.000000
  130        4.802827  -0.000000
  131        4.914749  -0.000000
  132        4.995562  -0.000000

  0.3333333E+00  0.3779629E-15  0.1262379E-14  0.2469136E-01
    1      -10.795723   1.000000
    2      -10.255371   1.000000
    3       -9.551534   1.000000
    4       -9.357810   1.000000
    5       -8.995854   1.000000
    6       -8.681127   1.000000
    7       -8.459979   1.000000
    8       -8.089098   1.000000
    9       -8.044734   1.000000
   10       -8.011119   1.000000
   11       -7.998227   1.000000
   12       -7.931815   1.000000
   13       -7.849902   1.000000
   14       -7.754660   1.000000
   15       -7.249329   1.000000
   16       -7.076073   1.000000
   17       -6.194524   1.000000
   18       -6.176066   1.000000
   19       -6.110828   1.000000
   20       -5.946626   1.000000
   21       -5.787492   1.000000
   22       -5.710046   1.000000
   23       -5.572911   1.000000
   24       -5.516503   1.000000
   25       -5.431691   1.000000
   26       -5.313106   1.000000
   27       -4.833641   1.000000
   28       -4.685934   1.000000
   29       -4.488933   1.000000
   30       -4.281468   1.000000
   31       -4.083142   1.000000
   32       -3.808508   1.000000
   33       -3.740290   1.000000
   34       -3.644964   1.000000
   35       -3.497818   1.000000
   36       -3.431262   1.000000
   37       -3.382694   1.000000
   38       -3.341558   1.000000
   39       -3.309513   1.000000
   40       -3.204291   1.000000
   41       -3.111316   1.000000
   42       -3.069731   1.000000
   43       -2.636613   1.000000
   44       -2.475183   1.000000
   45       -2.401250   1.000000
   46       -2.305627   1.000000
   47       -2.272914   1.000000
   48       -2.157716   1.000000
   49       -2.122479   1.000000
   50       -2.017990   1.000000
   51       -1.893816   1.000000
   52       -1.830583   1.000000
   53       -1.765822   1.000000
   54       -1.710797   1.000000
   55       -1.661175   1.000000
   56       -1.590222   1.000000
   57       -1.458227   1.000000
   58       -1.387647   1.000000
   59       -1.333678   1.000000
   60       -1.304775   1.000000
   61       -1.241093   1.000000
   62       -1.200670   1.000000
   63       -1.143828   1.000000
   64       -1.132150   1.000000
   65       -1.019883   1.000000
   66       -0.967896   1.000000
   67       -0.900231   1.000000
   68       -0.794031   1.000000
   69       -0.779629   1.000000
   70       -0.634541   1.000000
   71       -0.508832   1.000000
   72       -0.413917   1.000000
   73       -0.370045   1.000000
   74       -0.289474   1.000000
   75       -0.224341   1.000000
   76       -0.153519   1.000000
   77       -0.107927   1.000000
   78        0.077504   1.000000
   79        0.245247   1.000000
   80        0.357461   1.000000
   81        0.611029   1.000000
   82        0.675270   1.000000
   83        0.714801   1.000000
   84        0.908204   1.000000
   85        0.967240   1.000000
   86        1.141064   1.000000
   87        1.209299   1.000000
   88        1.344913   1.000000
   89        1.470042   1.000000
   90        1.494339   1.000000
   91        1.652165   1.000000
   92        1.759792   1.000000
   93        1.817509   1.000000
   94        1.976724   1.000000
   95        2.000006   1.000000
   96        2.397687   1.008989
   97        2.425517   1.013526
   98        2.505336   1.030827
   99        2.687721   0.877144
  100        3.009850  -0.032519
  101        3.042076  -0.035287
  102        3.138699  -0.016760
  103        3.205613  -0.006196
  104        3.290360  -0.001157
  105        3.315567  -0.000647
  106        3.458613  -0.000012
  107        3.517589  -0.000002
  108        3.552710  -0.000000
  109        3.616751  -0.000000
  110        3.670465  -0.000000
  111        3.733678  -0.000000
  112        3.780638  -0.000000
  113        3.788196  -0.000000
  114        3.922294  -0.000000
  115        3.937050  -0.000000
  116        3.997193  -0.000000
  117        4.052835  -0.000000
  118        4.111477  -0.000000
  119        4.165835  -0.000000
  120        4.186594  -0.000000
  121        4.198983  -0.000000
  122        4.230024  -0.000000
  123        4.320619  -0.000000
  124        4.393659  -0.000000
  125        4.432854  -0.000000
  126        4.506313  -0.000000
  127        4.535995  -0.000000
  128        4.569819  -0.000000
  129        4.635089  -0.000000
  130        4.780406  -0.000000
  131        4.846706  -0.000000
  132        4.909213  -0.000000

  0.4444444E+00  0.3698634E-15  0.1262379E-14  0.2469136E-01
    1      -10.436586   1.000000
    2       -9.938930   1.000000
    3       -9.885092   1.000000
    4       -9.462788   1.000000
    5       -9.304652   1.000000
    6       -8.963313   1.000000
    7       -8.347900   1.000000
    8       -8.145428   1.000000
    9       -8.100800   1.000000
   10       -8.046820   1.000000
   11       -7.984455   1.000000
   12       -7.916093   1.000000
   13       -7.808904   1.000000
   14       -7.746772   1.000000
   15       -7.460742   1.000000
   16       -7.420796   1.000000
   17       -6.136318   1.000000
   18       -6.122826   1.000000
   19       -6.109429   1.000000
   20       -5.854783   1.000000
   21       -5.521263   1.000000
   22       -5.430216   1.000000
   23       -5.372683   1.000000
   24       -5.366831   1.000000
   25       -5.343763   1.000000
   26       -5.276467   1.000000
   27       -4.252203   1.000000
   28       -4.091417   1.000000
   29       -4.007670   1.000000
   30       -3.947400   1.000000
   31       -3.894206   1.000000
   32       -3.835150   1.000000
   33       -3.699206   1.000000
   34       -3.667370   1.000000
   35       -3.603056   1.000000
   36       -3.516242   1.000000
   37       -3.412601   1.000000
   38       -3.376334   1.000000
   39       -3.363358   1.000000
   40       -3.268986   1.000000
   41       -3.209103   1.000000
   42       -3.104250   1.000000
   43       -3.012877   1.000000
   44       -2.921278   1.000000
   45       -2.451460   1.000000
   46       -2.426708   1.000000
   47       -2.289170   1.000000
   48       -2.175879   1.000000
   49       -2.064214   1.000000
   50       -2.039937   1.000000
   51       -1.930567   1.000000
   52       -1.857163   1.000000
   53       -1.784390   1.000000
   54       -1.723086   1.000000
   55       -1.653107   1.000000
   56       -1.620262   1.000000
   57       -1.589843   1.000000
   58       -1.531306   1.000000
   59       -1.509765   1.000000
   60       -1.380435   1.000000
   61       -1.324368   1.000000
   62       -1.255946   1.000000
   63       -1.234576   1.000000
   64       -1.193556   1.000000
   65       -1.038804   1.000000
   66       -1.017623   1.000000
   67       -0.933052   1.000000
   68       -0.891596   1.000000
   69       -0.827527   1.000000
   70       -0.725149   1.000000
   71       -0.614464   1.000000
   72       -0.515418   1.000000
   73       -0.406772   1.000000
   74       -0.323239   1.000000
   75       -0.290021   1.000000
   76       -0.231317   1.000000
   77       -0.107009   1.000000
   78       -0.037145   1.000000
   79        0.262149   1.000000
   80        0.430584   1.000000
   81        0.520568   1.000000
   82        0.545732   1.000000
   83        0.821720   1.000000
   84        0.910330   1.000000
   85        1.005769   1.000000
   86        1.029625   1.000000
   87        1.240059   1.000000
   88        1.274770   1.000000
   89        1.434407   1.000000
   90        1.535172   1.000000
   91        1.575000   1.000000
   92        1.715166   1.000000
   93        1.762817   1.000000
   94        2.076052   1.000003
   95        2.132865   1.000017
   96        2.319714   1.002177
   97        2.497385   1.029195
   98        2.509543   1.031630
   99        2.601188   1.018528
  100        2.635427   0.983219
  101        2.664563   0.932507
  102        2.972569  -0.013298
  103        3.063754  -0.032902
  104        3.194960  -0.007412
  105        3.276166  -0.001579
  106        3.337858  -0.000375
  107        3.436872  -0.000024
  108        3.491245  -0.000004
  109        3.552372  -0.000000
  110        3.602138  -0.000000
  111        3.639980  -0.000000
  112        3.710363  -0.000000
  113        3.733759  -0.000000
  114        3.861155  -0.000000
  115        3.887541  -0.000000
  116        3.964361  -0.000000
  117        4.046704  -0.000000
  118        4.077933  -0.000000
  119        4.136499  -0.000000
  120        4.193957  -0.000000
  121        4.238659  -0.000000
  122        4.277540  -0.000000
  123        4.367446  -0.000000
  124        4.440026  -0.000000
  125        4.513703  -0.000000
  126        4.555431  -0.000000
  127        4.611737  -0.000000
  128        4.636418  -0.000000
  129        4.686446  -0.000000
  130        4.755029  -0.000000
  131        4.981917  -0.000000
  132        5.065553  -0.000000

  0.3742002E-15  0.1111111E+00  0.1262379E-14  0.2469136E-01
    1      -11.241533   1.000000
    2      -10.658609   1.000000
    3       -9.858715   1.000000
    4       -8.678482   1.000000
    5       -8.367120   1.000000
    6       -8.330030   1.000000
    7       -8.078699   1.000000
    8       -8.076451   1.000000
    9       -7.815373   1.000000
   10       -7.663209   1.000000
   11       -7.633327   1.000000
   12       -7.630959   1.000000
   13       -7.576620   1.000000
   14       -7.554671   1.000000
   15       -6.973431   1.000000
   16       -6.874023   1.000000
   17       -6.769298   1.000000
   18       -6.649262   1.000000
   19       -6.560555   1.000000
   20       -6.422624   1.000000
   21       -6.314282   1.000000
   22       -5.962966   1.000000
   23       -5.852883   1.000000
   24       -5.731151   1.000000
   25       -5.566582   1.000000
   26       -5.549171   1.000000
   27       -5.471864   1.000000
   28       -5.352502   1.000000
   29       -5.210332   1.000000
   30       -4.972103   1.000000
   31       -4.511103   1.000000
   32       -4.250476   1.000000
   33       -4.218557   1.000000
   34       -4.071554   1.000000
   35       -4.006626   1.000000
   36       -3.815714   1.000000
   37       -3.726512   1.000000
   38       -3.234521   1.000000
   39       -2.980473   1.000000
   40       -2.811244   1.000000
   41       -2.665327   1.000000
   42       -2.604644   1.000000
   43       -2.482574   1.000000
   44       -2.409754   1.000000
   45       -2.269613   1.000000
   46       -2.226034   1.000000
   47       -2.165430   1.000000
   48       -2.098118   1.000000
   49       -1.780154   1.000000
   50       -1.766557   1.000000
   51       -1.717701   1.000000
   52       -1.662851   1.000000
   53       -1.526063   1.000000
   54       -1.427274   1.000000
   55       -1.407127   1.000000
   56       -1.342592   1.000000
   57       -1.261741   1.000000
   58       -1.221496   1.000000
   59       -1.166339   1.000000
   60       -1.151373   1.000000
   61       -1.105645   1.000000
   62       -1.070977   1.000000
   63       -0.931802   1.000000
   64       -0.876199   1.000000
   65       -0.846066   1.000000
   66       -0.812908   1.000000
   67       -0.730468   1.000000
   68       -0.586106   1.000000
   69       -0.512410   1.000000
   70       -0.456712   1.000000
   71       -0.408315   1.000000
   72       -0.353579   1.000000
   73       -0.226513   1.000000
   74       -0.043955   1.000000
   75        0.013243   1.000000
   76        0.040242   1.000000
   77        0.165441   1.000000
   78        0.197502   1.000000
   79        0.380186   1.000000
   80        0.420427   1.000000
   81        0.559607   1.000000
   82        0.738250   1.000000
   83        0.860115   1.000000
   84        1.192480   1.000000
   85        1.303813   1.000000
   86        1.384727   1.000000
   87        1.399640   1.000000
   88        1.576576   1.000000
   89        1.640192   1.000000
   90        1.768509   1.000000
   91        1.821151   1.000000
   92        1.826904   1.000000
   93        1.875257   1.000000
   94        2.047793   1.000001
   95        2.098975   1.000006
   96        2.177013   1.000064
   97        2.590347   1.025112
   98        2.676757   0.905041
   99        2.878565   0.163862
  100        2.969464  -0.010651
  101        3.028796  -0.035289
  102        3.142116  -0.016056
  103        3.188749  -0.008199
  104        3.305508  -0.000819
  105        3.499075  -0.000003
  106        3.630470  -0.000000
  107        3.719790  -0.000000
  108        3.756662  -0.000000
  109        3.771587  -0.000000
  110        3.789528  -0.000000
  111        3.814585  -0.000000
  112        3.864609  -0.000000
  113        3.911747  -0.000000
  114        3.961628  -0.000000
  115        3.985171  -0.000000
  116        4.012386  -0.000000
  117        4.067447  -0.000000
  118        4.085940  -0.000000
  119        4.163010  -0.000000
  120        4.203465  -0.000000
  121        4.232594  -0.000000
  122        4.241145  -0.000000
  123        4.313864  -0.000000
  124        4.348903  -0.000000
  125        4.401555  -0.000000
  126        4.450528  -0.000000
  127        4.530611  -0.000000
  128        4.577614  -0.000000
  129        4.757181  -0.000000
  130        4.830300  -0.000000
  131        5.015659  -0.000000
  132        5.056209  -0.000000

  0.1111111E+00  0.1111111E+00  0.1262379E-14  0.2469136E-01
    1      -11.127175   1.000000
    2      -10.555011   1.000000
    3       -9.777848   1.000000
    4       -8.614249   1.000000
    5       -8.463848   1.000000
    6       -8.378009   1.000000
    7       -8.305994   1.000000
    8       -8.298030   1.000000
    9       -8.207311   1.000000
   10       -8.033584   1.000000
   11       -7.910882   1.000000
   12       -7.707035   1.000000
   13       -7.477469   1.000000
   14       -7.201045   1.000000
   15       -7.083953   1.000000
   16       -6.963287   1.000000
   17       -6.596493   1.000000
   18       -6.579841   1.000000
   19       -6.367330   1.000000
   20       -6.085088   1.000000
   21       -6.014340   1.000000
   22       -5.912159   1.000000
   23       -5.751929   1.000000
   24       -5.704468   1.000000
   25       -5.501350   1.000000
   26       -5.457224   1.000000
   27       -5.342439   1.000000
   28       -5.247012   1.000000
   29       -5.070266   1.000000
   30       -4.859058   1.000000
   31       -4.579185   1.000000
   32       -4.352512   1.000000
   33       -3.818554   1.000000
   34       -3.778910   1.000000
   35       -3.726319   1.000000
   36       -3.643077   1.000000
   37       -3.383665   1.000000
   38       -3.273321   1.000000
   39       -3.077422   1.000000
   40       -3.037999   1.000000
   41       -2.924608   1.000000
   42       -2.734262   1.000000
   43       -2.564643   1.000000
   44       -2.385353   1.000000
   45       -2.241757   1.000000
   46       -2.222285   1.000000
   47       -2.134387   1.000000
   48       -2.102033   1.000000
   49       -1.995313   1.000000
   50       -1.927113   1.000000
   51       -1.737357   1.000000
   52       -1.687305   1.000000
   53       -1.585263   1.000000
   54       -1.542325   1.000000
   55       -1.451299   1.000000
   56       -1.425555   1.000000
   57       -1.382141   1.000000
   58       -1.270809   1.000000
   59       -1.148139   1.000000
   60       -1.118823   1.000000
   61       -1.066503   1.000000
   62       -1.038587   1.000000
   63       -1.020097   1.000000
   64       -0.930982   1.000000
   65       -0.896891   1.000000
   66       -0.873714   1.000000
   67       -0.843698   1.000000
   68       -0.670111   1.000000
   69       -0.598253   1.000000
   70       -0.472982   1.000000
   71       -0.437928   1.000000
   72       -0.432804   1.000000
   73       -0.342782   1.000000
   74       -0.183533   1.000000
   75       -0.135867   1.000000
   76       -0.073872   1.000000
   77        0.134750   1.000000
   78        0.260210   1.000000
   79        0.386473   1.000000
   80        0.423020   1.000000
   81        0.570041   1.000000
   82        0.637208   1.000000
   83        0.761304   1.000000
   84        0.908147   1.000000
   85        1.106144   1.000000
   86        1.195497   1.000000
   87        1.403519   1.000000
   88        1.577866   1.000000
   89        1.591205   1.000000
   90        1.674541   1.000000
   91        1.675228   1.000000
   92        1.778592   1.000000
   93        1.827748   1.000000
   94        1.987924   1.000000
   95        2.077890   1.000003
   96        2.314299   1.001946
   97        2.652388   0.956208
   98        2.754753   0.647878