   73   73    1    1
  0.2139262E+02  0.1053953E-08  0.6141200E-09  0.2412750E-08  0.5000000E-15
   1.0000000000000000E-004
  CAR 
 Name                                    
    268     23    176

  0.3742002E-15  0.3742002E-15  0.1262379E-14  0.2222222E-01
    1      -13.801177   1.000000
    2      -12.810471   1.000000
    3      -12.664284   1.000000
    4      -12.310958   1.000000
    5      -11.691410   1.000000
    6      -11.566666   1.000000
    7      -11.483855   1.000000
    8      -11.461087   1.000000
    9      -11.291682   1.000000
   10      -11.053450   1.000000
   11      -10.927579   1.000000
   12      -10.924069   1.000000
   13      -10.688864   1.000000
   14      -10.335498   1.000000
   15      -10.255421   1.000000
   16      -10.160647   1.000000
   17      -10.021752   1.000000
   18       -9.954441   1.000000
   19       -9.713776   1.000000
   20       -9.561069   1.000000
   21       -9.482603   1.000000
   22       -9.372053   1.000000
   23       -9.297379   1.000000
   24       -8.825941   1.000000
   25       -8.799201   1.000000
   26       -8.672717   1.000000
   27       -8.506345   1.000000
   28       -8.457624   1.000000
   29       -8.191923   1.000000
   30       -7.984128   1.000000
   31       -7.869843   1.000000
   32       -7.770616   1.000000
   33       -7.379809   1.000000
   34       -7.367166   1.000000
   35       -7.297797   1.000000
   36       -7.156943   1.000000
   37       -6.987963   1.000000
   38       -6.793017   1.000000
   39       -6.763234   1.000000
   40       -6.738950   1.000000
   41       -6.663865   1.000000
   42       -6.622158   1.000000
   43       -6.503636   1.000000
   44       -6.350870   1.000000
   45       -6.220837   1.000000
   46       -6.134286   1.000000
   47       -6.091856   1.000000
   48       -5.882766   1.000000
   49       -5.845243   1.000000
   50       -5.839534   1.000000
   51       -5.689020   1.000000
   52       -5.598212   1.000000
   53       -5.546116   1.000000
   54       -5.540977   1.000000
   55       -5.466808   1.000000
   56       -5.397563   1.000000
   57       -5.294438   1.000000
   58       -5.254718   1.000000
   59       -5.229362   1.000000
   60       -5.156552   1.000000
   61       -5.017896   1.000000
   62       -4.991705   1.000000
   63       -4.832586   1.000000
   64       -4.830701   1.000000
   65       -4.692160   1.000000
   66       -4.537325   1.000000
   67       -4.481357   1.000000
   68       -4.424906   1.000000
   69       -4.389873   1.000000
   70       -4.348014   1.000000
   71       -4.311543   1.000000
   72       -4.275804   1.000000
   73       -4.192531   1.000000
   74       -4.094248   1.000000
   75       -4.048145   1.000000
   76       -4.032387   1.000000
   77       -3.979380   1.000000
   78       -3.919309   1.000000
   79       -3.831672   1.000000
   80       -3.728959   1.000000
   81       -3.633815   1.000000
   82       -3.543254   1.000000
   83       -3.534975   1.000000
   84       -3.424119   1.000000
   85       -3.413070   1.000000
   86       -3.281184   1.000000
   87       -3.184742   1.000000
   88       -3.175513   1.000000
   89       -3.153086   1.000000
   90       -3.108819   1.000000
   91       -3.084392   1.000000
   92       -2.997735   1.000000
   93       -2.982467   1.000000
   94       -2.913427   1.000000
   95       -2.781027   1.000000
   96       -2.737369   1.000000
   97       -2.680098   1.000000
   98       -2.601695   1.000000
   99       -2.551869   1.000000
  100       -2.469511   1.000000
  101       -2.396668   1.000000
  102       -2.290633   1.000000
  103       -2.230088   1.000000
  104       -2.196113   1.000000
  105       -2.160561   1.000000
  106       -2.014850   1.000000
  107       -1.990506   1.000000
  108       -1.973083   1.000000
  109       -1.960066   1.000000
  110       -1.822323   1.000000
  111       -1.816282   1.000000
  112       -1.678365   1.000000
  113       -1.595509   1.000000
  114       -1.548402   1.000000
  115       -1.291966   1.000000
  116       -1.225172   1.000000
  117       -1.141922   1.000000
  118       -1.128015   1.000000
  119       -0.945727   1.000000
  120       -0.854634   1.000000
  121       -0.759829   1.000000
  122       -0.713458   1.000000
  123       -0.518219   1.000000
  124       -0.398016   1.000004
  125       -0.309835   1.000067
  126       -0.166967   1.002249
  127       -0.144577   1.003506
  128       -0.066833   1.012781
  129       -0.045333   1.016966
  130        0.007377   1.028818
  131        0.086322   1.031486
  132        0.176786   0.931508
  133        0.193025   0.893908
  134        0.269671   0.635097
  135        0.290583   0.548500
  136        0.336776   0.355551
  137        0.416877   0.091966
  138        0.485152  -0.013979
  139        0.542015  -0.035358
  140        0.594929  -0.029209
  141        0.674329  -0.012188
  142        0.755502  -0.003074
  143        0.826213  -0.000664
  144        0.860811  -0.000282
  145        0.920933  -0.000055
  146        1.007968  -0.000004
  147        1.071390  -0.000000
  148        1.161275  -0.000000
  149        1.237596  -0.000000
  150        1.280530  -0.000000
  151        1.338363  -0.000000
  152        1.364241  -0.000000
  153        1.377373  -0.000000
  154        1.419357  -0.000000
  155        1.459368  -0.000000
  156        1.463826  -0.000000
  157        1.516060  -0.000000
  158        1.535707  -0.000000
  159        1.566362  -0.000000
  160        1.602551  -0.000000
  161        1.623693  -0.000000
  162        1.665018  -0.000000
  163        1.714259  -0.000000
  164        1.766484  -0.000000
  165        1.775823  -0.000000
  166        1.834698  -0.000000
  167        1.884648  -0.000000
  168        1.972622  -0.000000
  169        2.052254  -0.000000
  170        2.076250  -0.000000
  171        2.205046  -0.000000
  172        2.240167  -0.000000
  173        2.364896  -0.000000
  174        2.712771  -0.000000
  175        2.757997  -0.000000
  176        3.011782  -0.000000

  0.2000000E+00  0.3742002E-15  0.1262379E-14  0.4444444E-01
    1      -13.760544   1.000000
    2      -13.048253   1.000000
    3      -12.571061   1.000000
    4      -12.052292   1.000000
    5      -11.871635   1.000000
    6      -11.682872   1.000000
    7      -11.501512   1.000000
    8      -11.258308   1.000000
    9      -11.170001   1.000000
   10      -11.062908   1.000000
   11      -10.897443   1.000000
   12      -10.822497   1.000000
   13      -10.677689   1.000000
   14      -10.528343   1.000000
   15      -10.386722   1.000000
   16      -10.192243   1.000000
   17      -10.133647   1.000000
   18      -10.027380   1.000000
   19       -9.694525   1.000000
   20       -9.675178   1.000000
   21       -9.378793   1.000000
   22       -9.287838   1.000000
   23       -9.200011   1.000000
   24       -8.918256   1.000000
   25       -8.784432   1.000000
   26       -8.754948   1.000000
   27       -8.374210   1.000000
   28       -8.200385   1.000000
   29       -8.053929   1.000000
   30       -7.944417   1.000000
   31       -7.914963   1.000000
   32       -7.808128   1.000000
   33       -7.456025   1.000000
   34       -7.391592   1.000000
   35       -7.278742   1.000000
   36       -7.205444   1.000000
   37       -7.110722   1.000000
   38       -6.921695   1.000000
   39       -6.867844   1.000000
   40       -6.718665   1.000000
   41       -6.685244   1.000000
   42       -6.581999   1.000000
   43       -6.464059   1.000000
   44       -6.431630   1.000000
   45       -6.306060   1.000000
   46       -6.071545   1.000000
   47       -6.005393   1.000000
   48       -5.830924   1.000000
   49       -5.794887   1.000000
   50       -5.764131   1.000000
   51       -5.718666   1.000000
   52       -5.702153   1.000000
   53       -5.571896   1.000000
   54       -5.564209   1.000000
   55       -5.432004   1.000000
   56       -5.371339   1.000000
   57       -5.251430   1.000000
   58       -5.231424   1.000000
   59       -5.147891   1.000000
   60       -5.135633   1.000000
   61       -5.021829   1.000000
   62       -4.928375   1.000000
   63       -4.880944   1.000000
   64       -4.815322   1.000000
   65       -4.678581   1.000000
   66       -4.595712   1.000000
   67       -4.519783   1.000000
   68       -4.467170   1.000000
   69       -4.357064   1.000000
   70       -4.297669   1.000000
   71       -4.281294   1.000000
   72       -4.222236   1.000000
   73       -4.194035   1.000000
   74       -4.170236   1.000000
   75       -4.050798   1.000000
   76       -4.022204   1.000000
   77       -3.952027   1.000000
   78       -3.896332   1.000000
   79       -3.806903   1.000000
   80       -3.705134   1.000000
   81       -3.684202   1.000000
   82       -3.621998   1.000000
   83       -3.548705   1.000000
   84       -3.441965   1.000000
   85       -3.347463   1.000000
   86       -3.306028   1.000000
   87       -3.250420   1.000000
   88       -3.223263   1.000000
   89       -3.158437   1.000000
   90       -3.137590   1.000000
   91       -3.088802   1.000000
   92       -2.971727   1.000000
   93       -2.947336   1.000000
   94       -2.874090   1.000000
   95       -2.818449   1.000000
   96       -2.805529   1.000000
   97       -2.676662   1.000000
   98       -2.594973   1.000000
   99       -2.565568   1.000000
  100       -2.436248   1.000000
  101       -2.361929   1.000000
  102       -2.350239   1.000000
  103       -2.259996   1.000000
  104       -2.155652   1.000000
  105       -2.081908   1.000000
  106       -2.025396   1.000000
  107       -1.986420   1.000000
  108       -1.892713   1.000000
  109       -1.876242   1.000000
  110       -1.809005   1.000000
  111       -1.784316   1.000000
  112       -1.658901   1.000000
  113       -1.635764   1.000000
  114       -1.492700   1.000000
  115       -1.315484   1.000000
  116       -1.212770   1.000000
  117       -1.167254   1.000000
  118       -1.155226   1.000000
  119       -1.005900   1.000000
  120       -0.892597   1.000000
  121       -0.817155   1.000000
  122       -0.729444   1.000000
  123       -0.567725   1.000000
  124       -0.490316   1.000000
  125       -0.282605   1.000142
  126       -0.189619   1.001392
  127       -0.167885   1.002207
  128       -0.110930   1.006444
  129       -0.073398   1.011642
  130       -0.047576   1.016499
  131        0.034222   1.033738
  132        0.168445   0.948240
  133        0.198164   0.880623
  134        0.263557   0.659641
  135        0.382617   0.187875
  136        0.394252   0.152108
  137        0.436132   0.050914
  138        0.444390   0.036135
  139        0.569534  -0.033789
  140        0.625149  -0.022354
  141        0.668008  -0.013316
  142        0.759225  -0.002856
  143        0.870189  -0.000221
  144        0.901421  -0.000095
  145        0.996077  -0.000005
  146        1.037679  -0.000001
  147        1.113450  -0.000000
  148        1.198503  -0.000000
  149        1.251758  -0.000000
  150        1.276092  -0.000000
  151        1.288921  -0.000000
  152        1.339224  -0.000000
  153        1.366544  -0.000000
  154        1.436638  -0.000000
  155        1.476657  -0.000000
  156        1.502189  -0.000000
  157        1.533015  -0.000000
  158        1.552998  -0.000000
  159        1.587582  -0.000000
  160        1.624153  -0.000000
  161        1.674443  -0.000000
  162        1.695343  -0.000000
  163        1.719232  -0.000000
  164        1.780641  -0.000000
  165        1.791571  -0.000000
  166        1.858838  -0.000000
  167        1.927335  -0.000000
  168        1.959250  -0.000000
  169        2.102692  -0.000000
  170        2.166264  -0.000000
  171        2.269517  -0.000000
  172        2.347500  -0.000000
  173        2.395793  -0.000000
  174        2.699203  -0.000000
  175        2.946730  -0.000000
  176        2.972242  -0.000000

  0.4000000E+00  0.3742002E-15  0.1262379E-14  0.4444444E-01
    1      -13.658638   1.000000
    2      -13.303882   1.000000
    3      -12.460851   1.000000
    4      -12.129988   1.000000
    5      -11.664758   1.000000
    6      -11.566313   1.000000
    7      -11.551900   1.000000
    8      -11.219422   1.000000
    9      -11.076301   1.000000
   10      -11.037126   1.000000
   11      -10.946131   1.000000
   12      -10.832229   1.000000
   13      -10.663733   1.000000
   14      -10.559522   1.000000
   15      -10.479363   1.000000
   16      -10.433990   1.000000
   17      -10.075894   1.000000
   18      -10.023306   1.000000
   19       -9.889483   1.000000
   20       -9.863506   1.000000
   21       -9.383508   1.000000
   22       -9.226917   1.000000
   23       -9.101840   1.000000
   24       -8.906726   1.000000
   25       -8.705503   1.000000
   26       -8.575523   1.000000
   27       -8.253386   1.000000
   28       -8.158443   1.000000
   29       -7.920071   1.000000
   30       -7.863980   1.000000
   31       -7.678244   1.000000
   32       -7.649445   1.000000
   33       -7.626128   1.000000
   34       -7.548925   1.000000
   35       -7.413289   1.000000
   36       -7.263313   1.000000
   37       -7.204467   1.000000
   38       -7.107454   1.000000
   39       -7.054579   1.000000
   40       -6.939404   1.000000
   41       -6.625351   1.000000
   42       -6.597154   1.000000
   43       -6.402061   1.000000
   44       -6.350899   1.000000
   45       -6.322108   1.000000
   46       -5.996662   1.000000
   47       -5.900321   1.000000
   48       -5.894446   1.000000
   49       -5.859084   1.000000
   50       -5.747368   1.000000
   51       -5.717112   1.000000
   52       -5.699096   1.000000
   53       -5.544301   1.000000
   54       -5.465397   1.000000
   55       -5.427455   1.000000
   56       -5.367672   1.000000
   57       -5.276507   1.000000
   58       -5.241756   1.000000
   59       -5.157715   1.000000
   60       -5.006247   1.000000
   61       -4.982429   1.000000
   62       -4.902285   1.000000
   63       -4.884983   1.000000
   64       -4.761139   1.000000
   65       -4.687792   1.000000
   66       -4.560612   1.000000
   67       -4.542910   1.000000
   68       -4.482592   1.000000
   69       -4.388411   1.000000
   70       -4.361353   1.000000
   71       -4.262937   1.000000
   72       -4.237513   1.000000
   73       -4.133321   1.000000
   74       -4.127769   1.000000
   75       -4.068191   1.000000
   76       -3.963660   1.000000
   77       -3.894018   1.000000
   78       -3.827094   1.000000
   79       -3.781696   1.000000
   80       -3.766085   1.000000
   81       -3.710188   1.000000
   82       -3.669498   1.000000
   83       -3.589776   1.000000
   84       -3.494852   1.000000
   85       -3.398674   1.000000
   86       -3.385825   1.000000
   87       -3.301487   1.000000
   88       -3.266764   1.000000
   89       -3.177354   1.000000
   90       -3.096263   1.000000
   91       -3.048093   1.000000
   92       -2.976065   1.000000
   93       -2.959326   1.000000
   94       -2.936411   1.000000
   95       -2.793280   1.000000
   96       -2.760064   1.000000
   97       -2.740124   1.000000
   98       -2.682320   1.000000
   99       -2.498085   1.000000
  100       -2.460046   1.000000
  101       -2.444982   1.000000
  102       -2.391936   1.000000
  103       -2.109643   1.000000
  104       -2.095915   1.000000
  105       -2.026768   1.000000
  106       -1.956404   1.000000
  107       -1.875982   1.000000
  108       -1.867573   1.000000
  109       -1.812331   1.000000
  110       -1.721071   1.000000
  111       -1.711353   1.000000
  112       -1.680899   1.000000
  113       -1.576250   1.000000
  114       -1.467359   1.000000
  115       -1.379933   1.000000
  116       -1.325208   1.000000
  117       -1.220145   1.000000
  118       -1.200008   1.000000
  119       -1.006247   1.000000
  120       -0.929796   1.000000
  121       -0.852843   1.000000
  122       -0.809770   1.000000
  123       -0.645640   1.000000
  124       -0.634443   1.000000
  125       -0.337198   1.000030
  126       -0.236668   1.000467
  127       -0.205150   1.000984
  128       -0.163244   1.002426
  129       -0.141564   1.003713
  130       -0.091905   1.008802
  131        0.007949   1.028941
  132        0.124091   1.009604
  133        0.274479   0.615507
  134        0.278649   0.598336
  135        0.370749   0.227502
  136        0.433071   0.056819
  137        0.483667  -0.012759
  138        0.521589  -0.032517
  139        0.622257  -0.023022
  140        0.640750  -0.018835
  141        0.736628  -0.004398
  142        0.764917  -0.002550
  143        0.914328  -0.000066
  144        0.939469  -0.000032
  145        0.979293  -0.000009
  146        1.025309  -0.000002
  147        1.147658  -0.000000
  148        1.256071  -0.000000
  149        1.290194  -0.000000
  150        1.322959  -0.000000
  151        1.355822  -0.000000
  152        1.381769  -0.000000
  153        1.390950  -0.000000
  154        1.456579  -0.000000
  155        1.477711  -0.000000
  156        1.515719  -0.000000
  157        1.522959  -0.000000
  158        1.572469  -0.000000
  159        1.616937  -0.000000
  160        1.674708  -0.000000
  161        1.724219  -0.000000
  162        1.751410  -0.000000
  163        1.780687  -0.000000
  164        1.816048  -0.000000
  165        1.824866  -0.000000
  166        1.853521  -0.000000
  167        1.924018  -0.000000
  168        2.008661  -0.000000
  169        2.037347  -0.000000
  170        2.059455  -0.000000
  171        2.147934  -0.000000
  172        2.281002  -0.000000
  173        2.349473  -0.000000
  174        2.518289  -0.000000
  175        2.623587  -0.000000
  176        2.847806  -0.000000

  0.3742002E-15  0.1111111E+00  0.1262379E-14  0.4444444E-01
    1      -13.755419   1.000000
    2      -12.771298   1.000000
    3      -12.629763   1.000000
    4      -12.278197   1.000000
    5      -11.788270   1.000000
    6      -11.537126   1.000000
    7      -11.498271   1.000000
    8      -11.453215   1.000000
    9      -11.337415   1.000000
   10      -11.079875   1.000000
   11      -10.941170   1.000000
   12      -10.893382   1.000000
   13      -10.717821   1.000000
   14      -10.338393   1.000000
   15      -10.219516   1.000000
   16      -10.170173   1.000000
   17      -10.029456   1.000000
   18       -9.945847   1.000000
   19       -9.680930   1.000000
   20       -9.553269   1.000000
   21       -9.501306   1.000000
   22       -9.382297   1.000000
   23       -9.289515   1.000000
   24       -8.859611   1.000000
   25       -8.809960   1.000000
   26       -8.669254   1.000000
   27       -8.482864   1.000000
   28       -8.471604   1.000000
   29       -8.188699   1.000000
   30       -8.011298   1.000000
   31       -7.794932   1.000000
   32       -7.713700   1.000000
   33       -7.463669   1.000000
   34       -7.398863   1.000000
   35       -7.346164   1.000000
   36       -7.156204   1.000000
   37       -7.079824   1.000000
   38       -6.823417   1.000000
   39       -6.791031   1.000000
   40       -6.707349   1.000000
   41       -6.626750   1.000000
   42       -6.565797   1.000000
   43       -6.475705   1.000000
   44       -6.318524   1.000000
   45       -6.207592   1.000000
   46       -6.121297   1.000000
   47       -6.077434   1.000000
   48       -5.889712   1.000000
   49       -5.847571   1.000000
   50       -5.815421   1.000000
   51       -5.680080   1.000000
   52       -5.605101   1.000000
   53       -5.567923   1.000000
   54       -5.525905   1.000000
   55       -5.492649   1.000000
   56       -5.375495   1.000000
   57       -5.273646   1.000000
   58       -5.216615   1.000000
   59       -5.170541   1.000000
   60       -5.078778   1.000000
   61       -5.044582   1.000000
   62       -4.971250   1.000000
   63       -4.820632   1.000000
   64       -4.789852   1.000000
   65       -4.678764   1.000000
   66       -4.573046   1.000000
   67       -4.484766   1.000000
   68       -4.452175   1.000000
   69       -4.383558   1.000000
   70       -4.358545   1.000000
   71       -4.318811   1.000000
   72       -4.304146   1.000000
   73       -4.174931   1.000000
   74       -4.082540   1.000000
   75       -4.038817   1.000000
   76       -4.023954   1.000000
   77       -3.966364   1.000000
   78       -3.917129   1.000000
   79       -3.805015   1.000000
   80       -3.756831   1.000000
   81       -3.655946   1.000000
   82       -3.624375   1.000000
   83       -3.530352   1.000000
   84       -3.476726   1.000000
   85       -3.422568   1.000000
   86       -3.322497   1.000000
   87       -3.293551   1.000000
   88       -3.217257   1.000000
   89       -3.132953   1.000000
   90       -3.093941   1.000000
   91       -3.079129   1.000000
   92       -3.010162   1.000000
   93       -2.981877   1.000000
   94       -2.897043   1.000000
   95       -2.875354   1.000000
   96       -2.769177   1.000000
   97       -2.706847   1.000000
   98       -2.556295   1.000000
   99       -2.508834   1.000000
  100       -2.466156   1.000000
  101       -2.391715   1.000000
  102       -2.337773   1.000000
  103       -2.227517   1.000000
  104       -2.183837   1.000000
  105       -2.153519   1.000000
  106       -2.118567   1.000000
  107       -1.974978   1.000000
  108       -1.965606   1.000000
  109       -1.908084   1.000000
  110       -1.833829   1.000000
  111       -1.750720   1.000000
  112       -1.674624   1.000000
  113       -1.552018   1.000000
  114       -1.499458   1.000000
  115       -1.302558   1.000000
  116       -1.229433   1.000000
  117       -1.210307   1.000000
  118       -1.112466   1.000000
  119       -1.008166   1.000000
  120       -0.851543   1.000000
  121       -0.744742   1.000000
  122       -0.670074   1.000000
  123       -0.507029   1.000000
  124       -0.457923   1.000001
  125       -0.324267   1.000044
  126       -0.265042   1.000227
  127       -0.145505   1.003444
  128       -0.124525   1.005083
  129       -0.094999   1.008381
  130       -0.025829   1.021252
  131        0.054289   1.035428
  132        0.160437   0.962684
  133        0.242153   0.741341
  134        0.300560   0.506372
  135        0.341797   0.335503
  136        0.415073   0.096292
  137        0.437268   0.048781
  138        0.516573  -0.031110
  139        0.584232  -0.031369
  140        0.627526  -0.021808
  141        0.713893  -0.006573
  142        0.777543  -0.001968
  143        0.881696  -0.000163
  144        0.915803  -0.000063
  145        0.950198  -0.000023
  146        0.998710  -0.000005
  147        1.071969  -0.000000
  148        1.127382  -0.000000
  149        1.190795  -0.000000
  150        1.280755  -0.000000
  151        1.293872  -0.000000
  152        1.338124  -0.000000
  153        1.356062  -0.000000
  154        1.399934  -0.000000
  155        1.442266  -0.000000
  156        1.481252  -0.000000
  157        1.493753  -0.000000
  158        1.514579  -0.000000
  159        1.556906  -0.000000
  160        1.582560  -0.000000
  161        1.612725  -0.000000
  162        1.661747  -0.000000
  163        1.691129  -0.000000
  164        1.705293  -0.000000
  165        1.760715  -0.000000
  166        1.825849  -0.000000
  167        1.867259  -0.000000
  168        1.892766  -0.000000
  169        1.979058  -0.000000
  170        1.999993  -0.000000
  171        2.048965  -0.000000
  172        2.168391  -0.000000
  173        2.293993  -0.000000
  174        2.351746  -0.000000
  175        2.408267  -0.000000
  176        2.807913  -0.000000

  0.2000000E+00  0.1111111E+00  0.1262379E-14  0.4444444E-01
    1      -13.715166   1.000000
    2      -13.008792   1.000000
    3      -12.533524   1.000000
    4      -12.026311   1.000000
    5      -11.844768   1.000000
    6      -11.768250   1.000000
    7      -11.548382   1.000000
    8      -11.296158   1.000000
    9      -11.149377   1.000000
   10      -11.079220   1.000000
   11      -10.915440   1.000000
   12      -10.797923   1.000000
   13      -10.702065   1.000000
   14      -10.502959   1.000000
   15      -10.387204   1.000000
   16      -10.176904   1.000000
   17      -10.137874   1.000000
   18      -10.033947   1.000000
   19       -9.701914   1.000000
   20       -9.646421   1.000000
   21       -9.380734   1.000000
   22       -9.295371   1.000000
   23       -9.193694   1.000000
   24       -8.918735   1.000000
   25       -8.819943   1.000000
   26       -8.744291   1.000000
   27       -8.387230   1.000000
   28       -8.200835   1.000000
   29       -8.060653   1.000000
   30       -7.972117   1.000000
   31       -7.911446   1.000000
   32       -7.670859   1.000000
   33       -7.534317   1.000000
   34       -7.403345   1.000000
   35       -7.322515   1.000000
   36       -7.198546   1.000000
   37       -7.168157   1.000000
   38       -6.944816   1.000000
   39       -6.821066   1.000000
   40       -6.754086   1.000000
   41       -6.669420   1.000000
   42       -6.561275   1.000000
   43       -6.438422   1.000000
   44       -6.393832   1.000000
   45       -6.267135   1.000000
   46       -6.181474   1.000000
   47       -6.038230   1.000000
   48       -5.848495   1.000000
   49       -5.785565   1.000000
   50       -5.739896   1.000000
   51       -5.668455   1.000000
   52       -5.626607   1.000000
   53       -5.585638   1.000000
   54       -5.524478   1.000000
   55       -5.458231   1.000000
   56       -5.349878   1.000000
   57       -5.277964   1.000000
   58       -5.197169   1.000000
   59       -5.116484   1.000000
   60       -5.052208   1.000000
   61       -5.006241   1.000000
   62       -4.916180   1.000000
   63       -4.857623   1.000000
   64       -4.799488   1.000000
   65       -4.661149   1.000000
   66       -4.581311   1.000000
   67       -4.542408   1.000000
   68       -4.450514   1.000000
   69       -4.399613   1.000000
   70       -4.330719   1.000000
   71       -4.278598   1.000000
   72       -4.221730   1.000000
   73       -4.179284   1.000000
   74       -4.146470   1.000000
   75       -4.088969   1.000000
   76       -4.001928   1.000000
   77       -3.929034   1.000000
   78       -3.895931   1.000000
   79       -3.782666   1.000000
   80       -3.755413   1.000000
   81       -3.695260   1.000000
   82       -3.656845   1.000000
   83       -3.543311   1.000000
   84       -3.479412   1.000000
   85       -3.418694   1.000000
   86       -3.346596   1.000000
   87       -3.297547   1.000000
   88       -3.253612   1.000000
   89       -3.183751   1.000000
   90       -3.104400   1.000000
   91       -3.068430   1.000000
   92       -3.013796   1.000000
   93       -2.959551   1.000000
   94       -2.932429   1.000000
   95       -2.869653   1.000000
   96       -2.819885   1.000000
   97       -2.623511   1.000000
   98       -2.611100   1.000000
   99       -2.529285   1.000000
  100       -2.436205   1.000000
  101       -2.403495   1.000000
  102       -2.291028   1.000000
  103       -2.260587   1.000000
  104       -2.161627   1.000000
  105       -2.120025   1.000000
  106       -2.073231   1.000000
  107       -2.000169   1.000000
  108       -1.907121   1.000000
  109       -1.864679   1.000000
  110       -1.785309   1.000000
  111       -1.741666   1.000000
  112       -1.658655   1.000000
  113       -1.582130   1.000000
  114       -1.514327   1.000000
  115       -1.312809   1.000000
  116       -1.245340   1.000000
  117       -1.200103   1.000000
  118       -1.169377   1.000000
  119       -1.039616   1.000000
  120       -0.926349   1.000000
  121       -0.726102   1.000000
  122       -0.717530   1.000000
  123       -0.567887   1.000000
  124       -0.475526   1.000000
  125       -0.339354   1.000028
  126       -0.265404   1.000225
  127       -0.177447   1.001808
  128       -0.125635   1.004983
  129       -0.073731   1.011585
  130       -0.042784   1.017503
  131        0.032080   1.033433
  132        0.150629   0.978268
  133        0.237600   0.757701
  134        0.283026   0.580162
  135        0.342271   0.333630
  136        0.407467   0.115430
  137        0.507234  -0.027605
  138        0.538479  -0.035161
  139        0.588096  -0.030619
  140        0.649493  -0.016960
  141        0.706388  -0.007451
  142        0.777933  -0.001952
  143        0.876368  -0.000188
  144        0.949994  -0.000023
  145        0.985916  -0.000007
  146        1.047454  -0.000001
  147        1.120477  -0.000000
  148        1.157394  -0.000000
  149        1.208105  -0.000000
  150        1.294729  -0.000000
  151        1.300417  -0.000000
  152        1.333997  -0.000000
  153        1.374777  -0.000000
  154        1.410806  -0.000000
  155        1.453407  -0.000000
  156        1.475865  -0.000000
  157        1.499823  -0.000000
  158        1.540332  -0.000000
  159        1.561883  -0.000000
  160        1.603188  -0.000000
  161        1.622238  -0.000000
  162        1.675846  -0.000000
  163        1.715699  -0.000000
  164        1.744248  -0.000000
  165        1.811211  -0.000000
  166        1.835007  -0.000000
  167        1.851450  -0.000000
  168        1.884921  -0.000000
  169        1.936772  -0.000000
  170        2.006143  -0.000000
  171        2.061955  -0.000000
  172        2.103991  -0.000000
  173        2.240365  -0.000000
  174        2.396201  -0.000000
  175        2.413502  -0.000000
  176        2.599141  -0.000000

  0.4000000E+00  0.1111111E+00  0.1262379E-14  0.4444444E-01
    1      -13.614052   1.000000
    2      -13.262484   1.000000
    3      -12.423601   1.000000
    4      -12.097425   1.000000
    5      -11.753672   1.000000
    6      -11.616850   1.000000
    7      -11.535637   1.000000
    8      -11.249859   1.000000
    9      -11.098604   1.000000
   10      -11.010338   1.000000
   11      -10.927199   1.000000