 running on   72 total cores
 distrk:  each k-point on   72 cores,    1 groups
 distr:  one band on    9 cores,    8 groups
 using from now: INCAR     
 vasp.5.4.4.18Apr17-6-g9f103f2a35 (build Dec  7 2020 12:43:57) complex           
 POSCAR found type information on POSCAR  Mo V  B  H 
 POSCAR found :  4 types and      73 ions
 scaLAPACK will be used

 ----------------------------------------------------------------------------- 
|                                                                             |
|  ADVICE TO THIS USER RUNNING 'VASP/VAMP'   (HEAR YOUR MASTER'S VOICE ...):  |
|                                                                             |
|      You enforced a specific xc-type in the INCAR file,                     |
|      a different type was found on the POTCAR file                          |
|          I HOPE YOU KNOW, WHAT YOU ARE  DOING                               |
|                                                                             |
 ----------------------------------------------------------------------------- 

 LDA part: xc-table for Pade appr. of Perdew
 POSCAR, INCAR and KPOINTS ok, starting setup
 resort distribution
 resort distribution
 resort distribution
 resort distribution
 resort distribution
 resort distribution
 resort distribution
 resort distribution
 resort distribution
 resort distribution
 resort distribution
 resort distribution
 resort distribution
 resort distribution
 resort distribution
 resort distribution
 resort distribution
 resort distribution
 resort distribution
 resort distribution
 resort distribution
 resort distribution
 resort distribution
 resort distribution
 resort distribution
 resort distribution
 resort distribution
 resort distribution
 resort distribution
 resort distribution
 resort distribution
 resort distribution
 resort distribution
 resort distribution
 resort distribution
 resort distribution
 resort distribution
 resort distribution
 resort distribution
 resort distribution
 resort distribution
 resort distribution
 resort distribution
 resort distribution
 resort distribution
 resort distribution
 resort distribution
 resort distribution
 resort distribution
 resort distribution
 resort distribution
 resort distribution
 resort distribution
 resort distribution
 resort distribution
 resort distribution
 resort distribution
 resort distribution
 resort distribution
 resort distribution
 resort distribution
 resort distribution
 resort distribution
 resort distribution
 resort distribution
 resort distribution
 resort distribution
 resort distribution
 resort distribution
 resort distribution
 resort distribution
 resort distribution
 FFT: planning ...
 WAVECAR not read
 augmentation electrons   268.05814825808176     
 soft         electrons   0.0000000000000000     
 augmentation electrons   268.05814825808176     
 soft         electrons   0.0000000000000000     
 augmentation electrons   268.05814825808176     
 soft         electrons   0.0000000000000000     
 augmentation electrons   268.05814825808176     
 soft         electrons   0.0000000000000000     
 augmentation electrons   268.05814825808176     
 soft         electrons   0.0000000000000000     
 augmentation electrons   268.05814825808176     
 soft         electrons   0.0000000000000000     
 augmentation electrons   268.05814825808176     
 soft         electrons   0.0000000000000000     
 augmentation electrons   268.05814825808176     
 soft         electrons   0.0000000000000000     
 augmentation electrons   268.05814825808176     
 soft         electrons   0.0000000000000000     
 augmentation electrons   268.05814825808176     
 soft         electrons   0.0000000000000000     
 augmentation electrons   268.05814825808176     
 soft         electrons   0.0000000000000000     
 augmentation electrons   268.05814825808176     
 soft         electrons   0.0000000000000000     
 augmentation electrons   268.05814825808176     
 soft         electrons   0.0000000000000000     
 augmentation electrons   268.05814825808176     
 soft         electrons   0.0000000000000000     
 augmentation electrons   268.05814825808176     
 soft         electrons   0.0000000000000000     
 augmentation electrons   268.05814825808176     
 soft         electrons   0.0000000000000000     
 augmentation electrons   268.05814825808176     
 soft         electrons   0.0000000000000000     
 augmentation electrons   268.05814825808176     
 soft         electrons   0.0000000000000000     
 augmentation electrons   268.05814825808176     
 soft         electrons   0.0000000000000000     
 augmentation electrons   268.05814825808176     
 soft         electrons   0.0000000000000000     
 augmentation electrons   268.05814825808176     
 soft         electrons   0.0000000000000000     
 augmentation electrons   268.05814825808176     
 soft         electrons   0.0000000000000000     
 augmentation electrons   268.05814825808176     
 soft         electrons   0.0000000000000000     
 augmentation electrons   268.05814825808176     
 soft         electrons   0.0000000000000000     
 augmentation electrons   268.05814825808176     
 soft         electrons   0.0000000000000000     
 augmentation electrons   268.05814825808176     
 soft         electrons   0.0000000000000000     
 augmentation electrons   268.05814825808176     
 soft         electrons   0.0000000000000000     
 augmentation electrons   268.05814825808176     
 soft         electrons   0.0000000000000000     
 augmentation electrons   268.05814825808176     
 soft         electrons   0.0000000000000000     
 augmentation electrons   268.05814825808176     
 soft         electrons   0.0000000000000000     
 augmentation electrons   268.05814825808176     
 soft         electrons   0.0000000000000000     
 augmentation electrons   268.05814825808176     
 soft         electrons   0.0000000000000000     
 augmentation electrons   268.05814825808176     
 soft         electrons   0.0000000000000000     
 augmentation electrons   268.05814825808176     
 soft         electrons   0.0000000000000000     
 augmentation electrons   268.05814825808176     
 soft         electrons   0.0000000000000000     
 augmentation electrons   268.05814825808176     
 soft         electrons   0.0000000000000000     
 augmentation electrons   268.05814825808176     
 soft         electrons   0.0000000000000000     
 augmentation electrons   268.05814825808176     
 soft         electrons   0.0000000000000000     
 augmentation electrons   268.05814825808176     
 soft         electrons   0.0000000000000000     
 augmentation electrons   268.05814825808176     
 soft         electrons   0.0000000000000000     
 augmentation electrons   268.05814825808176     
 soft         electrons   0.0000000000000000     
 augmentation electrons   268.05814825808176     
 soft         electrons   0.0000000000000000     
 augmentation electrons   268.05814825808176     
 soft         electrons   0.0000000000000000     
 augmentation electrons   268.05814825808176     
 soft         electrons   0.0000000000000000     
 augmentation electrons   268.05814825808176     
 soft         electrons   0.0000000000000000     
 augmentation electrons   268.05814825808176     
 soft         electrons   0.0000000000000000     
 augmentation electrons   268.05814825808176     
 soft         electrons   0.0000000000000000     
 augmentation electrons   268.05814825808176     
 soft         electrons   0.0000000000000000     
 augmentation electrons   268.05814825808176     
 soft         electrons   0.0000000000000000     
 augmentation electrons   268.05814825808176     
 soft         electrons   0.0000000000000000     
 augmentation electrons   268.05814825808176     
 soft         electrons   0.0000000000000000     
 augmentation electrons   268.05814825808176     
 soft         electrons   0.0000000000000000     
 augmentation electrons   268.05814825808176     
 soft         electrons   0.0000000000000000     
 augmentation electrons   268.05814825808176     
 soft         electrons   0.0000000000000000     
 augmentation electrons   268.05814825808176     
 soft         electrons   0.0000000000000000     
 augmentation electrons   268.05814825808176     
 soft         electrons   0.0000000000000000     
 augmentation electrons   268.05814825808176     
 soft         electrons   0.0000000000000000     
 augmentation electrons   268.05814825808176     
 soft         electrons   0.0000000000000000     
 augmentation electrons   268.05814825808176     
 soft         electrons   0.0000000000000000     
 augmentation electrons   268.05814825808176     
 soft         electrons   0.0000000000000000     
 augmentation electrons   268.05814825808176     
 soft         electrons   0.0000000000000000     
 augmentation electrons   268.05814825808176     
 soft         electrons   0.0000000000000000     
 augmentation electrons   268.05814825808176     
 soft         electrons   0.0000000000000000     
 augmentation electrons   268.05814825808176     
 soft         electrons   0.0000000000000000     
 augmentation electrons   268.05814825808176     
 soft         electrons   0.0000000000000000     
 augmentation electrons   268.05814825808176     
 soft         electrons   0.0000000000000000     
 augmentation electrons   268.05814825808176     
 soft         electrons   0.0000000000000000     
 augmentation electrons   268.05814825808176     
 soft         electrons   0.0000000000000000     
 augmentation electrons   268.05814825808176     
 soft         electrons   0.0000000000000000     
 augmentation electrons   268.05814825808176     
 soft         electrons   0.0000000000000000     
 augmentation electrons   268.05814825808176     
 soft         electrons   0.0000000000000000     
 total        electrons   268.05814825808176     
 total        electrons   268.05814825808176     
 total        electrons   268.05814825808176     
 total        electrons   268.05814825808176     
 total        electrons   268.05814825808176     
 total        electrons   268.05814825808176     
 total        electrons   268.05814825808176     
 total        electrons   268.05814825808176     
 total        electrons   268.05814825808176     
 total        electrons   268.05814825808176     
 total        electrons   268.05814825808176     
 total        electrons   268.05814825808176     
 total        electrons   268.05814825808176     
 total        electrons   268.05814825808176     
 total        electrons   268.05814825808176     
 total        electrons   268.05814825808176     
 total        electrons   268.05814825808176     
 total        electrons   268.05814825808176     
 total        electrons   268.05814825808176     
 total        electrons   268.05814825808176     
 augmentation electrons   268.05814825808176     
 soft         electrons   0.0000000000000000     
 total        electrons   268.05814825808176     
 total        electrons   268.05814825808176     
 total        electrons   268.05814825808176     
 total        electrons   268.05814825808176     
 total        electrons   268.05814825808176     
 total        electrons   268.05814825808176     
 total        electrons   268.05814825808176     
 total        electrons   268.05814825808176     
 total        electrons   268.05814825808176     
 total        electrons   268.05814825808176     
 total        electrons   268.05814825808176     
 total        electrons   268.05814825808176     
 total        electrons   268.05814825808176     
 total        electrons   268.05814825808176     
 total        electrons   268.05814825808176     
 total        electrons   268.05814825808176     
 total        electrons   268.05814825808176     
 total        electrons   268.05814825808176     
 total        electrons   268.05814825808176     
 total        electrons   268.05814825808176     
 total        electrons   268.05814825808176     
 total        electrons   268.05814825808176     
 total        electrons   268.05814825808176     
 total        electrons   268.05814825808176     
 total        electrons   268.05814825808176     
 total        electrons   268.05814825808176     
 total        electrons   268.05814825808176     
 total        electrons   268.05814825808176     
 total        electrons   268.05814825808176     
 total        electrons   268.05814825808176     
 total        electrons   268.05814825808176     
 total        electrons   268.05814825808176     
 total        electrons   268.05814825808176     
 total        electrons   268.05814825808176     
 total        electrons   268.05814825808176     
 total        electrons   268.05814825808176     
 total        electrons   268.05814825808176     
 total        electrons   268.05814825808176     
 total        electrons   268.05814825808176     
 total        electrons   268.05814825808176     
 total        electrons   268.05814825808176     
 total        electrons   268.05814825808176     
 total        electrons   268.05814825808176     
 total        electrons   268.05814825808176     
 total        electrons   268.05814825808176     
 total        electrons   268.05814825808176     
 total        electrons   268.05814825808176     
 total        electrons   268.05814825808176     
 total        electrons   268.05814825808176     
 total        electrons   268.05814825808176     
 total        electrons   268.05814825808176     
 total        electrons   268.05814825808176     
 augmentation electrons   1134.5113766423656     
 soft         electrons   0.0000000000000000     
 augmentation electrons   1134.5113766423656     
 soft         electrons   0.0000000000000000     
 augmentation electrons   1134.5113766423656     
 soft         electrons   0.0000000000000000     
 augmentation electrons   1134.5113766423656     
 soft         electrons   0.0000000000000000     
 augmentation electrons   1134.5113766423656     
 soft         electrons   0.0000000000000000     
 augmentation electrons   1134.5113766423656     
 soft         electrons   0.0000000000000000     
 augmentation electrons   1134.5113766423656     
 soft         electrons   0.0000000000000000     
 augmentation electrons   1134.5113766423656     
 soft         electrons   0.0000000000000000     
 augmentation electrons   1134.5113766423656     
 soft         electrons   0.0000000000000000     
 augmentation electrons   1134.5113766423656     
 soft         electrons   0.0000000000000000     
 augmentation electrons   1134.5113766423656     
 soft         electrons   0.0000000000000000     
 augmentation electrons   1134.5113766423656     
 soft         electrons   0.0000000000000000     
 augmentation electrons   1134.5113766423656     
 soft         electrons   0.0000000000000000     
 augmentation electrons   1134.5113766423656     
 soft         electrons   0.0000000000000000     
 augmentation electrons   1134.5113766423656     
 soft         electrons   0.0000000000000000     
 augmentation electrons   1134.5113766423656     
 soft         electrons   0.0000000000000000     
 augmentation electrons   1134.5113766423656     
 soft         electrons   0.0000000000000000     
 augmentation electrons   1134.5113766423656     
 soft         electrons   0.0000000000000000     
 augmentation electrons   1134.5113766423656     
 soft         electrons   0.0000000000000000     
 augmentation electrons   1134.5113766423656     
 soft         electrons   0.0000000000000000     
 augmentation electrons   1134.5113766423656     
 soft         electrons   0.0000000000000000     
 augmentation electrons   1134.5113766423656     
 soft         electrons   0.0000000000000000     
 augmentation electrons   1134.5113766423656     
 soft         electrons   0.0000000000000000     
 augmentation electrons   1134.5113766423656     
 soft         electrons   0.0000000000000000     
 augmentation electrons   1134.5113766423656     
 soft         electrons   0.0000000000000000     
 augmentation electrons   1134.5113766423656     
 soft         electrons   0.0000000000000000     
 augmentation electrons   1134.5113766423656     
 soft         electrons   0.0000000000000000     
 augmentation electrons   1134.5113766423656     
 soft         electrons   0.0000000000000000     
 augmentation electrons   1134.5113766423656     
 soft         electrons   0.0000000000000000     
 augmentation electrons   1134.5113766423656     
 soft         electrons   0.0000000000000000     
 augmentation electrons   1134.5113766423656     
 soft         electrons   0.0000000000000000     
 augmentation electrons   1134.5113766423656     
 soft         electrons   0.0000000000000000     
 augmentation electrons   1134.5113766423656     
 soft         electrons   0.0000000000000000     
 augmentation electrons   1134.5113766423656     
 soft         electrons   0.0000000000000000     
 augmentation electrons   1134.5113766423656     
 soft         electrons   0.0000000000000000     
 augmentation electrons   1134.5113766423656     
 soft         electrons   0.0000000000000000     
 augmentation electrons   1134.5113766423656     
 soft         electrons   0.0000000000000000     
 augmentation electrons   1134.5113766423656     
 soft         electrons   0.0000000000000000     
 augmentation electrons   1134.5113766423656     
 soft         electrons   0.0000000000000000     
 augmentation electrons   1134.5113766423656     
 soft         electrons   0.0000000000000000     
 augmentation electrons   1134.5113766423656     
 soft         electrons   0.0000000000000000     
 augmentation electrons   1134.5113766423656     
 soft         electrons   0.0000000000000000     
 augmentation electrons   1134.5113766423656     
 soft         electrons   0.0000000000000000     
 augmentation electrons   1134.5113766423656     
 soft         electrons   0.0000000000000000     
 augmentation electrons   1134.5113766423656     
 soft         electrons   0.0000000000000000     
 augmentation electrons   1134.5113766423656     
 soft         electrons   0.0000000000000000     
 augmentation electrons   1134.5113766423656     
 soft         electrons   0.0000000000000000     
 augmentation electrons   1134.5113766423656     
 soft         electrons   0.0000000000000000     
 augmentation electrons   1134.5113766423656     
 soft         electrons   0.0000000000000000     
 augmentation electrons   1134.5113766423656     
 soft         electrons   0.0000000000000000     
 augmentation electrons   1134.5113766423656     
 soft         electrons   0.0000000000000000     
 augmentation electrons   1134.5113766423656     
 soft         electrons   0.0000000000000000     
 augmentation electrons   1134.5113766423656     
 soft         electrons   0.0000000000000000     
 augmentation electrons   1134.5113766423656     
 soft         electrons   0.0000000000000000     
 augmentation electrons   1134.5113766423656     
 soft         electrons   0.0000000000000000     
 augmentation electrons   1134.5113766423656     
 soft         electrons   0.0000000000000000     
 augmentation electrons   1134.5113766423656     
 soft         electrons   0.0000000000000000     
 augmentation electrons   1134.5113766423656     
 soft         electrons   0.0000000000000000     
 augmentation electrons   1134.5113766423656     
 soft         electrons   0.0000000000000000     
 augmentation electrons   1134.5113766423656     
 soft         electrons   0.0000000000000000     
 augmentation electrons   1134.5113766423656     
 soft         electrons   0.0000000000000000     
 augmentation electrons   1134.5113766423656     
 soft         electrons   0.0000000000000000     
 augmentation electrons   1134.5113766423656     
 soft         electrons   0.0000000000000000     
 augmentation electrons   1134.5113766423656     
 soft         electrons   0.0000000000000000     
 augmentation electrons   1134.5113766423656     
 soft         electrons   0.0000000000000000     
 augmentation electrons   1134.5113766423656     
 soft         electrons   0.0000000000000000     
 augmentation electrons   1134.5113766423656     
 soft         electrons   0.0000000000000000     
 augmentation electrons   1134.5113766423656     
 soft         electrons   0.0000000000000000     
 augmentation electrons   1134.5113766423656     
 soft         electrons   0.0000000000000000     
 augmentation electrons   1134.5113766423656     
 soft         electrons   0.0000000000000000     
 augmentation electrons   1134.5113766423656     
 soft         electrons   0.0000000000000000     
 augmentation electrons   1134.5113766423656     
 soft         electrons   0.0000000000000000     
 total        electrons   1134.5113766423656     
 total        electrons   1134.5113766423656     
 total        electrons   1134.5113766423656     
 total        electrons   1134.5113766423656     
 total        electrons   1134.5113766423656     
 total        electrons   1134.5113766423656     
 total        electrons   1134.5113766423656     
 total        electrons   1134.5113766423656     
 total        electrons   1134.5113766423656     
 total        electrons   1134.5113766423656     
 total        electrons   1134.5113766423656     
 total        electrons   1134.5113766423656     
 total        electrons   1134.5113766423656     
 total        electrons   1134.5113766423656     
 total        electrons   1134.5113766423656     
 total        electrons   1134.5113766423656     
 total        electrons   1134.5113766423656     
 total        electrons   1134.5113766423656     
 total        electrons   1134.5113766423656     
 total        electrons   1134.5113766423656     
 total        electrons   1134.5113766423656     
 total        electrons   1134.5113766423656     
 total        electrons   1134.5113766423656     
 total        electrons   1134.5113766423656     
 total        electrons   1134.5113766423656     
 total        electrons   1134.5113766423656     
 total        electrons   1134.5113766423656     
 total        electrons   1134.5113766423656     
 total        electrons   1134.5113766423656     
 total        electrons   1134.5113766423656     
 total        electrons   1134.5113766423656     
 total        electrons   1134.5113766423656     
 total        electrons   1134.5113766423656     
 total        electrons   1134.5113766423656     
 total        electrons   1134.5113766423656     
 total        electrons   1134.5113766423656     
 total        electrons   1134.5113766423656     
 total        electrons   1134.5113766423656     
 total        electrons   1134.5113766423656     
 total        electrons   1134.5113766423656     
 total        electrons   1134.5113766423656     
 total        electrons   1134.5113766423656     
 total        electrons   1134.5113766423656     
 total        electrons   1134.5113766423656     
 total        electrons   1134.5113766423656     
 total        electrons   1134.5113766423656     
 total        electrons   1134.5113766423656     
 total        electrons   1134.5113766423656     
 total        electrons   1134.5113766423656     
 total        electrons   1134.5113766423656     
 total        electrons   1134.5113766423656     
 total        electrons   1134.5113766423656     
 total        electrons   1134.5113766423656     
 total        electrons   1134.5113766423656     
 total        electrons   1134.5113766423656     
 total        electrons   1134.5113766423656     
 total        electrons   1134.5113766423656     
 total        electrons   1134.5113766423656     
 total        electrons   1134.5113766423656     
 total        electrons   1134.5113766423656     
 total        electrons   1134.5113766423656     
 total        electrons   1134.5113766423656     
 total        electrons   1134.5113766423656     
 total        electrons   1134.5113766423656     
 total        electrons   1134.5113766423656     
 total        electrons   1134.5113766423656     
 total        electrons   1134.5113766423656     
 total        electrons   1134.5113766423656     
 total        electrons   1134.5113766423656     
 total        electrons   1134.5113766423656     
 total        electrons   1134.5113766423656     
 total        electrons   1134.5113766423656     
 entering main loop
       N       E                     dE             d eps       ncg     rms          rms(c)
DAV:   1     0.233236828480E+04    0.23324E+04   -0.95895E+04  8096   0.124E+03
DAV:   2    -0.191875459734E+03   -0.25242E+04   -0.23435E+04  9432   0.303E+02
DAV:   3    -0.601295892885E+03   -0.40942E+03   -0.38911E+03 11336   0.142E+02
DAV:   4    -0.635422612531E+03   -0.34127E+02   -0.32648E+02 13064   0.458E+01
DAV:   5    -0.637458026306E+03   -0.20354E+01   -0.19644E+01 13768   0.108E+01    0.136E+02
RMM:   6    -0.588241576501E+03    0.49216E+02   -0.11243E+03 13012   0.893E+01    0.698E+01
RMM:   7    -0.660855894917E+03   -0.72614E+02   -0.43286E+02  9545   0.794E+01    0.523E+01
RMM:   8    -0.605672296362E+03    0.55184E+02   -0.20446E+02 11480   0.272E+01    0.458E+01
RMM:   9    -0.546132473260E+03    0.59540E+02   -0.62615E+01 10611   0.218E+01    0.250E+01
RMM:  10    -0.535787825217E+03    0.10345E+02   -0.36016E+01 11798   0.131E+01    0.186E+01
RMM:  11    -0.534884796286E+03    0.90303E+00   -0.56022E+00 10493   0.683E+00    0.159E+01
RMM:  12    -0.534886178174E+03   -0.13819E-02   -0.21249E+00 12323   0.232E+00    0.147E+01
RMM:  13    -0.534803448173E+03    0.82730E-01   -0.29645E-01 12941   0.664E-01    0.142E+01
RMM:  14    -0.535317664208E+03   -0.51422E+00   -0.26156E+00 11483   0.386E+00    0.133E+01
RMM:  15    -0.534687356779E+03    0.63031E+00   -0.33596E+00  8746   0.644E+00    0.878E+00
RMM:  16    -0.533898515096E+03    0.78884E+00   -0.13430E+00 10991   0.298E+00    0.589E+00
RMM:  17    -0.533565920429E+03    0.33259E+00   -0.72384E-01 11530   0.190E+00    0.334E+00
RMM:  18    -0.533471067276E+03    0.94853E-01   -0.39532E-01 12450   0.105E+00    0.197E+00
RMM:  19    -0.533449802318E+03    0.21265E-01   -0.18658E-01 12511   0.785E-01    0.152E+00
RMM:  20    -0.533433573979E+03    0.16228E-01   -0.85946E-02  9991   0.903E-01    0.109E+00
RMM:  21    -0.533421088438E+03    0.12486E-01   -0.56961E-02 11841   0.516E-01    0.620E-01
RMM:  22    -0.533417348797E+03    0.37396E-02   -0.24231E-02 12286   0.265E-01    0.548E-01
RMM:  23    -0.533414925075E+03    0.24237E-02   -0.72378E-03 10091   0.231E-01    0.368E-01
RMM:  24    -0.533413531159E+03    0.13939E-02   -0.47337E-03 10706   0.163E-01    0.209E-01
RMM:  25    -0.533412904033E+03    0.62713E-03   -0.32243E-03 12046   0.115E-01    0.166E-01
RMM:  26    -0.533412605772E+03    0.29826E-03   -0.88884E-04 11953   0.563E-02    0.114E-01
RMM:  27    -0.533412659139E+03   -0.53368E-04   -0.65609E-04 10901   0.525E-02    0.665E-02
RMM:  28    -0.533413168130E+03   -0.50899E-03   -0.56495E-04 10795   0.504E-02    0.374E-02
RMM:  29    -0.533413857637E+03   -0.68951E-03   -0.54051E-04 11149   0.461E-02    0.625E-02
RMM:  30    -0.533414062412E+03   -0.20478E-03   -0.21856E-04 10502   0.270E-02    0.247E-02
RMM:  31    -0.533414147379E+03   -0.84967E-04   -0.11837E-04 10832   0.146E-02    0.231E-02
RMM:  32    -0.533414205676E+03   -0.58296E-04   -0.38329E-05 10275   0.106E-02    0.110E-02
RMM:  33    -0.533414297627E+03   -0.91952E-04   -0.28048E-05  9987   0.775E-03    0.697E-03
RMM:  34    -0.533414428941E+03   -0.13131E-03   -0.83209E-06  8171   0.714E-03    0.986E-03
RMM:  35    -0.533414588595E+03   -0.15965E-03   -0.12448E-05  7966   0.700E-03    0.645E-03
RMM:  36    -0.533414703109E+03   -0.11451E-03   -0.10926E-05  7743   0.508E-03    0.651E-03
RMM:  37    -0.533414759099E+03   -0.55990E-04   -0.68538E-06  7631   0.603E-03    0.517E-03
RMM:  38    -0.533414793694E+03   -0.34595E-04   -0.41778E-06  7303   0.404E-03    0.209E-03
RMM:  39    -0.533414807342E+03   -0.13648E-04   -0.14687E-06  6625   0.264E-03    0.162E-03
RMM:  40    -0.533414811748E+03   -0.44058E-05   -0.57649E-07  5755   0.235E-03    0.107E-03
RMM:  41    -0.533414814317E+03   -0.25693E-05   -0.35602E-07  4684   0.138E-03    0.465E-04
RMM:  42    -0.533414816497E+03   -0.21795E-05   -0.28652E-07  4574   0.125E-03    0.331E-04
RMM:  43    -0.533414817842E+03   -0.13453E-05   -0.21758E-07  3822   0.102E-03    0.289E-04
RMM:  44    -0.533414818400E+03   -0.55858E-06   -0.14969E-07  3709   0.925E-04
   1 F= -.53341482E+03 E0= -.53341146E+03  d E =-.100808E-01
 augmentation electrons   27.859785592949706     
 soft         electrons   240.26069353186540     
 augmentation electrons   27.859785592949706     
 soft         electrons   240.26069353186540     
 augmentation electrons   27.859785592949706     
 soft         electrons   240.26069353186540     
 augmentation electrons   27.859785592949706     
 soft         electrons   240.26069353186540     
 augmentation electrons   27.859785592949706     
 soft         electrons   240.26069353186540     
 augmentation electrons   27.859785592949706     
 soft         electrons   240.26069353186540     
 augmentation electrons   27.859785592949706     
 soft         electrons   240.26069353186540     
 augmentation electrons   27.859785592949706     
 soft         electrons   240.26069353186540     
 augmentation electrons   27.859785592949706     
 soft         electrons   240.26069353186540     
 augmentation electrons   27.859785592949706     
 soft         electrons   240.26069353186540     
 augmentation electrons   27.859785592949706     
 soft         electrons   240.26069353186540     
 augmentation electrons   27.859785592949706     
 soft         electrons   240.26069353186540     
 augmentation electrons   27.859785592949706     
 soft         electrons   240.26069353186540     
 augmentation electrons   27.859785592949706     
 soft         electrons   240.26069353186540     
 augmentation electrons   27.859785592949706     
 soft         electrons   240.26069353186540     
 augmentation electrons   27.859785592949706     
 soft         electrons   240.26069353186540     
 augmentation electrons   27.859785592949706     
 soft         electrons   240.26069353186540     
 augmentation electrons   27.859785592949706     
 soft         electrons   240.26069353186540     
 augmentation electrons   27.859785592949706     
 soft         electrons   240.26069353186540     
 augmentation electrons   27.859785592949706     
 soft         electrons   240.26069353186540     
 augmentation electrons   27.859785592949706     
 soft         electrons   240.26069353186540     
 augmentation electrons   27.859785592949706     
 soft         electrons   240.26069353186540     
 augmentation electrons   27.859785592949706     
 soft         electrons   240.26069353186540     
 augmentation electrons   27.859785592949706     
 soft         electrons   240.26069353186540     
 augmentation electrons   27.859785592949706     
 soft         electrons   240.26069353186540     
 augmentation electrons   27.859785592949706     
 soft         electrons   240.26069353186540     
 augmentation electrons   27.859785592949706     
 soft         electrons   240.26069353186540     
 augmentation electrons   27.859785592949706     
 soft         electrons   240.26069353186540     
 augmentation electrons   27.859785592949706     
 soft         electrons   240.26069353186540     
 augmentation electrons   27.859785592949706     
 soft         electrons   240.26069353186540     
 augmentation electrons   27.859785592949706     
 soft         electrons   240.26069353186540     
 augmentation electrons   27.859785592949706     
 soft         electrons   240.26069353186540     
 augmentation electrons   27.859785592949706     
 soft         electrons   240.26069353186540     
 augmentation electrons   27.859785592949706     
 soft         electrons   240.26069353186540     
 augmentation electrons   27.859785592949706     
 soft         electrons   240.26069353186540     
 augmentation electrons   27.859785592949706     
 soft         electrons   240.26069353186540     
 augmentation electrons   27.859785592949706     
 soft         electrons   240.26069353186540     
 augmentation electrons   27.859785592949706     
 soft         electrons   240.26069353186540     
 augmentation electrons   27.859785592949706     
 soft         electrons   240.26069353186540     
 augmentation electrons   27.859785592949706     
 soft         electrons   240.26069353186540     
 augmentation electrons   27.859785592949706     
 soft         electrons   240.26069353186540     
 augmentation electrons   27.859785592949706     
 soft         electrons   240.26069353186540     
 augmentation electrons   27.859785592949706     
 augmentation electrons   27.859785592949706     
 soft         electrons   240.26069353186540     
 augmentation electrons   27.859785592949706     
 soft         electrons   240.26069353186540     
 augmentation electrons   27.859785592949706     
 soft         electrons   240.26069353186540     
 augmentation electrons   27.859785592949706     
 soft         electrons   240.26069353186540     
 augmentation electrons   27.859785592949706     
 soft         electrons   240.26069353186540     
 augmentation electrons   27.859785592949706     
 soft         electrons   240.26069353186540     
 augmentation electrons   27.859785592949706     
 soft         electrons   240.26069353186540     
 augmentation electrons   27.859785592949706     
 soft         electrons   240.26069353186540     
 augmentation electrons   27.859785592949706     
 soft         electrons   240.26069353186540     
 augmentation electrons   27.859785592949706     
 soft         electrons   240.26069353186540     
 augmentation electrons   27.859785592949706     
 soft         electrons   240.26069353186540     
 augmentation electrons   27.859785592949706     
 soft         electrons   240.26069353186540     
 augmentation electrons   27.859785592949706     
 soft         electrons   240.26069353186540     
 augmentation electrons   27.859785592949706     
 soft         electrons   240.26069353186540     
 augmentation electrons   27.859785592949706     
 soft         electrons   240.26069353186540     
 augmentation electrons   27.859785592949706     
 soft         electrons   240.26069353186540     
 augmentation electrons   27.859785592949706     
 soft         electrons   240.26069353186540     
 augmentation electrons   27.859785592949706     
 soft         electrons   240.26069353186540     
 augmentation electrons   27.859785592949706     
 soft         electrons   240.26069353186540     
 augmentation electrons   27.859785592949706     
 soft         electrons   240.26069353186540     
 augmentation electrons   27.859785592949706     
 soft         electrons   240.26069353186540     
 augmentation electrons   27.859785592949706     
 soft         electrons   240.26069353186540     
 augmentation electrons   27.859785592949706     
 soft         electrons   240.26069353186540     
 augmentation electrons   27.859785592949706     
 soft         electrons   240.26069353186540     
 augmentation electrons   27.859785592949706     
 soft         electrons   240.26069353186540     
 augmentation electrons   27.859785592949706     
 soft         electrons   240.26069353186540     
 augmentation electrons   27.859785592949706     
 soft         electrons   240.26069353186540     
 augmentation electrons   27.859785592949706     
 soft         electrons   240.26069353186540     
 augmentation electrons   27.859785592949706     
 soft         electrons   240.26069353186540     
 soft         electrons   240.26069353186540     
 total        electrons   268.12047912481512     
 total        electrons   268.12047912481512     
 total        electrons   268.12047912481512     
 total        electrons   268.12047912481512     
 total        electrons   268.12047912481512     
 total        electrons   268.12047912481512     
 total        electrons   268.12047912481512     
 total        electrons   268.12047912481512     
 total        electrons   268.12047912481512     
 total        electrons   268.12047912481512     
 total        electrons   268.12047912481512     
 total        electrons   268.12047912481512     
 total        electrons   268.12047912481512     
 total        electrons   268.12047912481512     
 total        electrons   268.12047912481512     
 total        electrons   268.12047912481512     
 total        electrons   268.12047912481512     
 total        electrons   268.12047912481512     
 total        electrons   268.12047912481512     
 total        electrons   268.12047912481512     
 total        electrons   268.12047912481512     
 total        electrons   268.12047912481512     
 total        electrons   268.12047912481512     
 total        electrons   268.12047912481512     
 total        electrons   268.12047912481512     
 total        electrons   268.12047912481512     
 total        electrons   268.12047912481512     
 total        electrons   268.12047912481512     
 total        electrons   268.12047912481512     
 total        electrons   268.12047912481512     
 total        electrons   268.12047912481512     
 total        electrons   268.12047912481512     
 total        electrons   268.12047912481512     
 total        electrons   268.12047912481512     
 total        electrons   268.12047912481512     
 total        electrons   268.12047912481512     
 total        electrons   268.12047912481512     
 total        electrons   268.12047912481512     
 total        electrons   268.12047912481512     
 total        electrons   268.12047912481512     
 total        electrons   268.12047912481512     
 total        electrons   268.12047912481512     
 total        electrons   268.12047912481512     
 total        electrons   268.12047912481512     
 total        electrons   268.12047912481512     
 total        electrons   268.12047912481512     
 total        electrons   268.12047912481512     
 total        electrons   268.12047912481512     
 total        electrons   268.12047912481512     
 total        electrons   268.12047912481512     
 total        electrons   268.12047912481512     
 total        electrons   268.12047912481512     
 total        electrons   268.12047912481512     
 total        electrons   268.12047912481512     
 total        electrons   268.12047912481512     
 total        electrons   268.12047912481512     
 total        electrons   268.12047912481512     
 total        electrons   268.12047912481512     
 total        electrons   268.12047912481512     
 total        electrons   268.12047912481512     
 total        electrons   268.12047912481512     
 total        electrons   268.12047912481512     
 total        electrons   268.12047912481512     
 total        electrons   268.12047912481512     
 total        electrons   268.12047912481512     
 total        electrons   268.12047912481512     
 total        electrons   268.12047912481512     
 total        electrons   268.12047912481512     
 total        electrons   268.12047912481512     
 total        electrons   268.12047912481512     
 total        electrons   268.12047912481512     
 total        electrons   268.12047912481512     
Note: The following floating-point exceptions are signalling: IEEE_OVERFLOW_FLAG
Note: The following floating-point exceptions are signalling: IEEE_OVERFLOW_FLAG
Note: The following floating-point exceptions are signalling: IEEE_OVERFLOW_FLAG
Note: The following floating-point exceptions are signalling: IEEE_OVERFLOW_FLAG
Note: The following floating-point exceptions are signalling: IEEE_INVALID_FLAG IEEE_OVERFLOW_FLAG
Note: The following floating-point exceptions are signalling: IEEE_OVERFLOW_FLAG
Note: The following floating-point exceptions are signalling: IEEE_OVERFLOW_FLAG
Note: The following floating-point exceptions are signalling: IEEE_OVERFLOW_FLAG
Note: The following floating-point exceptions are signalling: IEEE_OVERFLOW_FLAG
Note: The following floating-point exceptions are signalling: IEEE_OVERFLOW_FLAG
Note: The following floating-point exceptions are signalling: IEEE_OVERFLOW_FLAG
Note: The following floating-point exceptions are signalling: IEEE_OVERFLOW_FLAG
Note: The following floating-point exceptions are signalling: IEEE_OVERFLOW_FLAG
Note: The following floating-point exceptions are signalling: IEEE_OVERFLOW_FLAG
Note: The following floating-point exceptions are signalling: IEEE_OVERFLOW_FLAG
Note: The following floating-point exceptions are signalling: IEEE_OVERFLOW_FLAG
Note: The following floating-point exceptions are signalling: IEEE_OVERFLOW_FLAG
Note: The following floating-point exceptions are signalling: IEEE_OVERFLOW_FLAG
Note: The following floating-point exceptions are signalling: IEEE_OVERFLOW_FLAG
Note: The following floating-point exceptions are signalling: IEEE_OVERFLOW_FLAG
Note: The following floating-point exceptions are signalling: IEEE_OVERFLOW_FLAG
Note: The following floating-point exceptions are signalling: IEEE_OVERFLOW_FLAG
Note: The following floating-point exceptions are signalling: IEEE_OVERFLOW_FLAG
Note: The following floating-point exceptions are signalling: IEEE_OVERFLOW_FLAG
Note: The following floating-point exceptions are signalling: IEEE_OVERFLOW_FLAG
Note: The following floating-point exceptions are signalling: IEEE_OVERFLOW_FLAG
Note: The following floating-point exceptions are signalling: IEEE_OVERFLOW_FLAG
Note: The following floating-point exceptions are signalling: IEEE_OVERFLOW_FLAG
Note: The following floating-point exceptions are signalling: IEEE_OVERFLOW_FLAG
Note: The following floating-point exceptions are signalling: IEEE_INVALID_FLAG IEEE_OVERFLOW_FLAG
Note: The following floating-point exceptions are signalling: IEEE_OVERFLOW_FLAG
Note: The following floating-point exceptions are signalling: IEEE_OVERFLOW_FLAG
Note: The following floating-point exceptions are signalling: IEEE_OVERFLOW_FLAG
Note: The following floating-point exceptions are signalling: IEEE_OVERFLOW_FLAG
Note: The following floating-point exceptions are signalling: IEEE_OVERFLOW_FLAG
Note: The following floating-point exceptions are signalling: IEEE_OVERFLOW_FLAG
Note: The following floating-point exceptions are signalling: IEEE_OVERFLOW_FLAG
Note: The following floating-point exceptions are signalling: IEEE_OVERFLOW_FLAG
Note: The following floating-point exceptions are signalling: IEEE_OVERFLOW_FLAG
Note: The following floating-point exceptions are signalling: IEEE_OVERFLOW_FLAG
Note: The following floating-point exceptions are signalling: IEEE_OVERFLOW_FLAG
Note: The following floating-point exceptions are signalling: IEEE_OVERFLOW_FLAG
Note: The following floating-point exceptions are signalling: IEEE_OVERFLOW_FLAG
Note: The following floating-point exceptions are signalling: IEEE_OVERFLOW_FLAG
Note: The following floating-point exceptions are signalling: IEEE_OVERFLOW_FLAG
Note: The following floating-point exceptions are signalling: IEEE_OVERFLOW_FLAG
Note: The following floating-point exceptions are signalling: IEEE_OVERFLOW_FLAG
Note: The following floating-point exceptions are signalling: IEEE_OVERFLOW_FLAG
Note: The following floating-point exceptions are signalling: IEEE_OVERFLOW_FLAG
Note: The following floating-point exceptions are signalling: IEEE_OVERFLOW_FLAG
Note: The following floating-point exceptions are signalling: IEEE_OVERFLOW_FLAG
Note: The following floating-point exceptions are signalling: IEEE_OVERFLOW_FLAG
Note: The following floating-point exceptions are signalling: IEEE_OVERFLOW_FLAG
Note: The following floating-point exceptions are signalling: IEEE_OVERFLOW_FLAG
Note: The following floating-point exceptions are signalling: IEEE_OVERFLOW_FLAG
Note: The following floating-point exceptions are signalling: IEEE_OVERFLOW_FLAG
Note: The following floating-point exceptions are signalling: IEEE_OVERFLOW_FLAG
Note: The following floating-point exceptions are signalling: IEEE_OVERFLOW_FLAG
Note: The following floating-point exceptions are signalling: IEEE_OVERFLOW_FLAG
Note: The following floating-point exceptions are signalling: IEEE_OVERFLOW_FLAG
Note: The following floating-point exceptions are signalling: IEEE_OVERFLOW_FLAG
Note: The following floating-point exceptions are signalling: IEEE_OVERFLOW_FLAG
Note: The following floating-point exceptions are signalling: IEEE_OVERFLOW_FLAG
Note: The following floating-point exceptions are signalling: IEEE_OVERFLOW_FLAG
Note: The following floating-point exceptions are signalling: IEEE_OVERFLOW_FLAG
Note: The following floating-point exceptions are signalling: IEEE_OVERFLOW_FLAG
Note: The following floating-point exceptions are signalling: IEEE_OVERFLOW_FLAG
Note: The following floating-point exceptions are signalling: IEEE_OVERFLOW_FLAG
Note: The following floating-point exceptions are signalling: IEEE_OVERFLOW_FLAG
Note: The following floating-point exceptions are signalling: IEEE_OVERFLOW_FLAG
Note: The following floating-point exceptions are signalling: IEEE_OVERFLOW_FLAG
Note: The following floating-point exceptions are signalling: IEEE_OVERFLOW_FLAG
