   24   24    1    1
  0.8358452E+01  0.6079819E-09  0.6079729E-09  0.6270770E-09  0.5000000E-15
   1.0000000000000000E-004
  CAR 
 Name                                    
     92    365     60

  0.3742002E-15  0.3742002E-15  0.3742002E-15  0.1371742E-02
    1       -5.702904   1.000000
    2       -3.501405   1.000000
    3       -2.433005   1.000000
    4       -2.187968   1.000000
    5       -1.929220   1.000000
    6       -1.739725   1.000000
    7       -1.733851   1.000000
    8       -1.721471   1.000000
    9       -1.396051   1.000000
   10       -1.339486   1.000000
   11       -1.235747   1.000000
   12        0.047443   1.000000
   13        0.360092   1.000000
   14        0.569240   1.000000
   15        0.709867   1.000000
   16        2.518176   1.000000
   17        2.680717   1.000000
   18        2.927358   1.000000
   19        3.091704   1.000000
   20        3.269641   1.000000
   21        3.774562   1.000000
   22        3.859820   1.000000
   23        3.908868   1.000000
   24        4.212292   1.000000
   25        4.558207   1.000000
   26        4.591254   1.000000
   27        4.610770   1.000000
   28        4.640358   1.000000
   29        4.670719   1.000000
   30        4.704017   1.000000
   31        4.710538   1.000000
   32        4.765941   1.000000
   33        4.821643   1.000000
   34        4.878043   1.000000
   35        5.009947   1.000000
   36        5.682888   1.000000
   37        6.094093   1.000000
   38        6.850477   1.000000
   39        6.903418   1.000000
   40        7.355905   1.000000
   41        7.411458   1.000000
   42        7.522988   1.000000
   43        7.632822   1.000000
   44        8.572080   1.000000
   45        8.577315   1.000000
   46        8.759456   1.000012
   47        9.237246  -0.030258
   48        9.271044  -0.015326
   49        9.397120  -0.000075
   50        9.982635  -0.000000
   51       10.014906  -0.000000
   52       10.086931  -0.000000
   53       10.137211  -0.000000
   54       10.224189  -0.000000
   55       10.377784  -0.000000
   56       11.292229  -0.000000
   57       11.711856  -0.000000
   58       12.026299   0.000000
   59       12.958228   0.000000
   60       13.458145   0.000000

  0.1111111E+00  0.3472564E-15  0.3742003E-15  0.2743484E-02
    1       -5.643118   1.000000
    2       -3.480456   1.000000
    3       -2.448281   1.000000
    4       -2.332626   1.000000
    5       -2.175379   1.000000
    6       -1.999464   1.000000
    7       -1.931781   1.000000
    8       -1.924732   1.000000
    9       -1.056105   1.000000
   10       -1.048119   1.000000
   11       -0.673455   1.000000
   12        0.128863   1.000000
   13        0.484268   1.000000
   14        0.550250   1.000000
   15        0.747333   1.000000
   16        2.541948   1.000000
   17        2.674822   1.000000
   18        2.918715   1.000000
   19        3.114798   1.000000
   20        3.302944   1.000000
   21        3.635478   1.000000
   22        3.678052   1.000000
   23        3.908296   1.000000
   24        3.911740   1.000000
   25        4.254326   1.000000
   26        4.429330   1.000000
   27        4.628098   1.000000
   28        4.638699   1.000000
   29        4.678131   1.000000
   30        4.725691   1.000000
   31        4.779058   1.000000
   32        4.779666   1.000000
   33        4.860116   1.000000
   34        4.993026   1.000000
   35        5.462450   1.000000
   36        5.926516   1.000000
   37        5.979589   1.000000
   38        6.198405   1.000000
   39        6.260898   1.000000
   40        7.404765   1.000000
   41        7.680294   1.000000
   42        7.973304   1.000000
   43        8.069614   1.000000
   44        8.361470   1.000000
   45        8.402389   1.000000
   46        8.716240   1.000001
   47        9.225826  -0.034113
   48        9.416849  -0.000024
   49        9.418750  -0.000021
   50        9.955325  -0.000000
   51        9.973058  -0.000000
   52        9.987519  -0.000000
   53       10.157880  -0.000000
   54       10.299565  -0.000000
   55       11.235456  -0.000000
   56       11.465065  -0.000000
   57       11.660805  -0.000000
   58       11.986567   0.000000
   59       12.158924   0.000000
   60       13.390294   0.000000

  0.2222222E+00  0.3076326E-15  0.3742004E-15  0.2743484E-02
    1       -5.465306   1.000000
    2       -3.416714   1.000000
    3       -3.043222   1.000000
    4       -2.538385   1.000000
    5       -2.174129   1.000000
    6       -2.169104   1.000000
    7       -2.143913   1.000000
    8       -2.102607   1.000000
    9       -0.576939   1.000000
   10       -0.563785   1.000000
   11        0.145809   1.000000
   12        0.368582   1.000000
   13        0.503015   1.000000
   14        0.546078   1.000000
   15        1.104896   1.000000
   16        2.595218   1.000000
   17        2.658493   1.000000
   18        2.799547   1.000000
   19        3.049834   1.000000
   20        3.152928   1.000000
   21        3.208458   1.000000
   22        3.391907   1.000000
   23        3.498408   1.000000
   24        3.995025   1.000000
   25        4.063514   1.000000
   26        4.371681   1.000000
   27        4.664930   1.000000
   28        4.671051   1.000000
   29        4.675063   1.000000
   30        4.705089   1.000000
   31        4.726016   1.000000
   32        4.903834   1.000000
   33        4.985989   1.000000
   34        5.039026   1.000000
   35        5.296159   1.000000
   36        5.499196   1.000000
   37        5.695768   1.000000
   38        6.179125   1.000000
   39        6.431479   1.000000
   40        7.045411   1.000000
   41        7.868044   1.000000
   42        7.892736   1.000000
   43        7.940106   1.000000
   44        8.696449   1.000000
   45        8.743533   1.000004
   46        8.959167   1.033671
   47        9.173080   0.010599
   48        9.477387  -0.000000
   49        9.675776  -0.000000
   50        9.684368  -0.000000
   51        9.840480  -0.000000
   52        9.869669  -0.000000
   53        9.944577  -0.000000
   54       10.006983  -0.000000
   55       10.256248  -0.000000
   56       10.360986  -0.000000
   57       10.808630  -0.000000
   58       10.943080  -0.000000
   59       11.332945  -0.000000
   60       11.685025  -0.000000

  0.3333333E+00  0.3314413E-15  0.3742003E-15  0.2743484E-02
    1       -5.173948   1.000000
    2       -3.698945   1.000000
    3       -3.308182   1.000000
    4       -2.734407   1.000000
    5       -2.343748   1.000000
    6       -2.340333   1.000000
    7       -2.121890   1.000000
    8       -2.110396   1.000000
    9       -0.040336   1.000000
   10       -0.024953   1.000000
   11        0.452916   1.000000
   12        0.496674   1.000000
   13        0.752311   1.000000
   14        0.983696   1.000000
   15        1.734552   1.000000
   16        2.395345   1.000000
   17        2.395598   1.000000
   18        2.433510   1.000000
   19        2.634360   1.000000
   20        2.650178   1.000000
   21        3.372733   1.000000
   22        3.419944   1.000000
   23        3.471176   1.000000
   24        3.500642   1.000000
   25        4.303382   1.000000
   26        4.367273   1.000000
   27        4.533893   1.000000
   28        4.548740   1.000000
   29        4.631708   1.000000
   30        4.710425   1.000000
   31        4.731938   1.000000
   32        4.735502   1.000000
   33        4.819915   1.000000
   34        5.061562   1.000000
   35        5.118104   1.000000
   36        5.264389   1.000000
   37        5.339001   1.000000
   38        6.566285   1.000000
   39        6.857501   1.000000
   40        6.980475   1.000000
   41        7.435767   1.000000
   42        7.474129   1.000000
   43        8.165231   1.000000
   44        8.811987   1.000255
   45        9.094031   0.494085
   46        9.188734  -0.019674
   47        9.209743  -0.034843
   48        9.352846  -0.000749
   49        9.440704  -0.000005
   50        9.569086  -0.000000
   51        9.838932  -0.000000
   52        9.897685  -0.000000
   53        9.927283  -0.000000
   54        9.958009  -0.000000
   55       10.197644  -0.000000
   56       10.377211  -0.000000
   57       10.402203  -0.000000
   58       10.448048  -0.000000
   59       10.927592  -0.000000
   60       11.688568  -0.000000

  0.4444444E+00  0.2712986E-15  0.3742005E-15  0.2743484E-02
    1       -4.776079   1.000000
    2       -4.280812   1.000000
    3       -3.153796   1.000000
    4       -2.957046   1.000000
    5       -2.429010   1.000000
    6       -2.427778   1.000000
    7       -2.102586   1.000000
    8       -2.093802   1.000000
    9        0.427601   1.000000
   10        0.441599   1.000000
   11        0.444253   1.000000
   12        0.452232   1.000000
   13        1.253577   1.000000
   14        1.747031   1.000000
   15        1.827714   1.000000
   16        1.846568   1.000000
   17        1.933174   1.000000
   18        2.396868   1.000000
   19        2.595413   1.000000
   20        2.636676   1.000000
   21        2.789071   1.000000
   22        3.471377   1.000000
   23        3.538551   1.000000
   24        3.565377   1.000000
   25        3.766885   1.000000
   26        4.238133   1.000000
   27        4.483099   1.000000
   28        4.523207   1.000000
   29        4.609939   1.000000
   30        4.681385   1.000000
   31        4.744824   1.000000
   32        4.752825   1.000000
   33        4.755780   1.000000
   34        4.969280   1.000000
   35        5.183172   1.000000
   36        5.203156   1.000000
   37        5.621284   1.000000
   38        6.069375   1.000000
   39        7.164967   1.000000
   40        7.179637   1.000000
   41        7.404805   1.000000
   42        7.436985   1.000000
   43        8.541833   1.000000
   44        8.715169   1.000001
   45        8.736176   1.000003
   46        8.901321   1.010260
   47        8.978093   1.034569
   48        8.999416   1.017606
   49        9.680033  -0.000000
   50        9.755852  -0.000000
   51        9.790359  -0.000000
   52        9.836374  -0.000000
   53        9.947568  -0.000000
   54        9.993874  -0.000000
   55       10.148839  -0.000000
   56       10.254224  -0.000000
   57       10.310637  -0.000000
   58       10.484198  -0.000000
   59       10.635752  -0.000000
   60       11.308034  -0.000000

  0.3742117E-15  0.1111111E+00  0.3742001E-15  0.2743484E-02
    1       -5.643117   1.000000
    2       -3.480453   1.000000
    3       -2.448237   1.000000
    4       -2.332666   1.000000
    5       -2.175390   1.000000
    6       -1.999535   1.000000
    7       -1.931691   1.000000
    8       -1.924753   1.000000
    9       -1.056076   1.000000
   10       -1.048258   1.000000
   11       -0.673364   1.000000
   12        0.128865   1.000000
   13        0.484476   1.000000
   14        0.550274   1.000000
   15        0.747169   1.000000
   16        2.541952   1.000000
   17        2.674809   1.000000
   18        2.918674   1.000000
   19        3.114769   1.000000
   20        3.302927   1.000000
   21        3.635457   1.000000
   22        3.678147   1.000000
   23        3.908296   1.000000
   24        3.911744   1.000000
   25        4.254322   1.000000
   26        4.429196   1.000000
   27        4.628087   1.000000
   28        4.638852   1.000000
   29        4.678139   1.000000
   30        4.725560   1.000000
   31        4.779091   1.000000
   32        4.779616   1.000000
   33        4.860104   1.000000
   34        4.993109   1.000000
   35        5.462492   1.000000
   36        5.926524   1.000000
   37        5.979605   1.000000
   38        6.198615   1.000000
   39        6.260639   1.000000
   40        7.404865   1.000000
   41        7.680185   1.000000
   42        7.973233   1.000000
   43        8.069736   1.000000
   44        8.361469   1.000000
   45        8.402538   1.000000
   46        8.716121   1.000001
   47        9.225724  -0.034138
   48        9.416886  -0.000024
   49        9.418792  -0.000021
   50        9.934898  -0.000000
   51        9.967178  -0.000000
   52        9.985489  -0.000000
   53       10.092435  -0.000000
   54       10.164856  -0.000000
   55       10.370434  -0.000000
   56       11.347027  -0.000000
   57       11.469356  -0.000000
   58       11.968692   0.000000
   59       12.133071   0.000000
   60       13.318530   0.000000

  0.1111111E+00  0.1111111E+00  0.3742002E-15  0.2743484E-02
    1       -5.524025   1.000000
    2       -3.433358   1.000000
    3       -2.653698   1.000000
    4       -2.651597   1.000000
    5       -2.469135   1.000000
    6       -2.217329   1.000000
    7       -2.059473   1.000000
    8       -1.525651   1.000000
    9       -1.253204   1.000000
   10       -0.310239   1.000000
   11       -0.175284   1.000000
   12        0.290998   1.000000
   13        0.337669   1.000000
   14        0.851306   1.000000
   15        0.871077   1.000000
   16        2.548374   1.000000
   17        2.612660   1.000000
   18        2.847454   1.000000
   19        3.006790   1.000000
   20        3.242183   1.000000
   21        3.465469   1.000000
   22        3.483241   1.000000
   23        3.805743   1.000000
   24        4.034253   1.000000
   25        4.156772   1.000000
   26        4.181652   1.000000
   27        4.366163   1.000000
   28        4.582274   1.000000
   29        4.614714   1.000000
   30        4.677715   1.000000
   31        4.717271   1.000000
   32        5.002414   1.000000
   33        5.007423   1.000000
   34        5.473094   1.000000
   35        5.509404   1.000000
   36        5.530819   1.000000
   37        5.707017   1.000000
   38        5.760676   1.000000
   39        6.420932   1.000000
   40        7.166210   1.000000
   41        7.808157   1.000000
   42        7.845917   1.000000
   43        8.404578   1.000000
   44        8.491448   1.000000
   45        8.581212   1.000000
   46        8.734824   1.000002
   47        9.177247   0.000602
   48        9.457714  -0.000002
   49        9.715771  -0.000000
   50        9.793869  -0.000000
   51        9.840041  -0.000000
   52        9.920016  -0.000000
   53       10.067649  -0.000000
   54       10.136444  -0.000000
   55       10.173002  -0.000000
   56       11.007400  -0.000000
   57       11.232900  -0.000000
   58       11.470349  -0.000000
   59       11.941418   0.000000
   60       12.372381   0.000000

  0.2222222E+00  0.1111111E+00  0.3742004E-15  0.2743484E-02
    1       -5.289274   1.000000
    2       -3.344672   1.000000
    3       -3.339411   1.000000
    4       -2.884043   1.000000
    5       -2.584987   1.000000
    6       -2.377262   1.000000
    7       -1.927277   1.000000
    8       -1.607172   1.000000
    9       -0.820196   1.000000
   10        0.121608   1.000000
   11        0.239933   1.000000
   12        0.601157   1.000000
   13        0.603434   1.000000
   14        0.953301   1.000000
   15        1.439185   1.000000
   16        2.278038   1.000000
   17        2.557418   1.000000
   18        2.598100   1.000000
   19        2.653755   1.000000
   20        3.182366   1.000000
   21        3.234761   1.000000
   22        3.405244   1.000000
   23        3.650046   1.000000
   24        3.699191   1.000000
   25        4.183779   1.000000
   26        4.246214   1.000000
   27        4.521577   1.000000
   28        4.553320   1.000000
   29        4.565494   1.000000
   30        4.622480   1.000000
   31        4.692659   1.000000
   32        4.768183   1.000000
   33        5.039615   1.000000
   34        5.057270   1.000000
   35        5.176219   1.000000
   36        5.432522   1.000000
   37        5.537198   1.000000
   38        6.179448   1.000000
   39        6.782754   1.000000
   40        6.998960   1.000000
   41        7.287146   1.000000
   42        8.041851   1.000000
   43        8.086839   1.000000
   44        8.598662   1.000000
   45        9.093475   0.498788
   46        9.104437   0.406655
   47        9.418735  -0.000021
   48        9.491793  -0.000000
   49        9.533714  -0.000000
   50        9.562094  -0.000000
   51        9.710606  -0.000000
   52        9.712892  -0.000000
   53        9.910174  -0.000000
   54       10.152671  -0.000000
   55       10.225799  -0.000000
   56       10.254980  -0.000000
   57       10.414887  -0.000000
   58       10.580658  -0.000000
   59       11.087708  -0.000000
   60       11.898716   0.000000

  0.3333333E+00  0.1111111E+00  0.3742004E-15  0.2743484E-02
    1       -4.944596   1.000000
    2       -3.959643   1.000000
    3       -3.213573   1.000000
    4       -3.023152   1.000000
    5       -2.829372   1.000000
    6       -2.387114   1.000000
    7       -1.815130   1.000000
    8       -1.725205   1.000000
    9       -0.239603   1.000000
   10       -0.042805   1.000000
   11        0.733100   1.000000
   12        0.999504   1.000000
   13        1.046328   1.000000
   14        1.424796   1.000000
   15        1.569472   1.000000
   16        2.159810   1.000000
   17        2.171489   1.000000
   18        2.510201   1.000000
   19        2.644018   1.000000
   20        2.671210   1.000000
   21        2.990604   1.000000
   22        3.087970   1.000000
   23        3.639455   1.000000
   24        3.819482   1.000000
   25        3.892619   1.000000
   26        4.311946   1.000000
   27        4.366402   1.000000
   28        4.423249   1.000000
   29        4.525751   1.000000
   30        4.526959   1.000000
   31        4.630762   1.000000
   32        4.743020   1.000000
   33        4.774268   1.000000
   34        5.071028   1.000000
   35        5.315835   1.000000
   36        5.348018   1.000000
   37        5.547029   1.000000
   38        6.332219   1.000000
   39        6.751173   1.000000
   40        6.849231   1.000000
   41        7.594282   1.000000
   42        7.745982   1.000000
   43        8.378034   1.000000
   44        8.716976   1.000001
   45        8.945815   1.028743
   46        8.978440   1.034478
   47        9.019342   0.973035
   48        9.256432  -0.021639
   49        9.597954  -0.000000
   50        9.636237  -0.000000
   51        9.686883  -0.000000
   52        9.870164  -0.000000
   53        9.908880  -0.000000
   54       10.045673  -0.000000
   55       10.140474  -0.000000
   56       10.179842  -0.000000
   57       10.293539  -0.000000
   58       10.380165  -0.000000
   59       10.513871  -0.000000
   60       10.709633  -0.000000

  0.4444444E+00  0.1111111E+00  0.3742001E-15  0.2743484E-02
    1       -4.499033   1.000000
    2       -4.497967   1.000000
    3       -3.070267   1.000000
    4       -3.055157   1.000000
    5       -3.041753   1.000000
    6       -2.372604   1.000000
    7       -1.771461   1.000000
    8       -1.766765   1.000000
    9       -0.094128   1.000000
   10        0.136884   1.000000
   11        0.985306   1.000000
   12        1.009934   1.000000
   13        1.145983   1.000000
   14        1.586306   1.000000
   15        1.587579   1.000000
   16        2.225672   1.000000
   17        2.245467   1.000000
   18        2.353855   1.000000
   19        2.428969   1.000000
   20        2.719099   1.000000
   21        2.993086   1.000000
   22        3.020197   1.000000
   23        3.082868   1.000000
   24        3.893610   1.000000
   25        3.903424   1.000000
   26        3.980916   1.000000
   27        4.365043   1.000000
   28        4.435471   1.000000
   29        4.442711   1.000000
   30        4.597237   1.000000
   31        4.695814   1.000000
   32        4.713986   1.000000
   33        4.858269   1.000000
   34        4.939456   1.000000
   35        5.465770   1.000000
   36        5.474635   1.000000
   37        5.726702   1.000000
   38        5.890755   1.000000
   39        6.670950   1.000000
   40        7.046636   1.000000
   41        7.595068   1.000000
   42        8.012452   1.000000
   43        8.609817   1.000000
   44        8.742247   1.000004
   45        8.793189   1.000093
   46        8.805505   1.000181
   47        8.845328   1.001265
   48        8.853849   1.001829
   49        9.621519  -0.000000
   50        9.648061  -0.000000
   51        9.744056  -0.000000
   52        9.750635  -0.000000
   53       10.001144  -0.000000
   54       10.104831  -0.000000
   55       10.131846  -0.000000
   56       10.153587  -0.000000
   57       10.226166  -0.000000
   58       10.256428  -0.000000
   59       10.994723  -0.000000
   60       11.064293  -0.000000

 -0.4444444E+00  0.1111111E+00  0.3741997E-15  0.2743484E-02
    1       -4.945977   1.000000
    2       -3.959286   1.000000
    3       -3.237519   1.000000
    4       -3.021547   1.000000
    5       -2.838686   1.000000
    6       -2.356689   1.000000
    7       -1.806762   1.000000
    8       -1.729685   1.000000
    9       -0.223394   1.000000
   10       -0.011439   1.000000
   11        0.716388   1.000000
   12        0.988258   1.000000
   13        1.042207   1.000000
   14        1.323957   1.000000
   15        1.678383   1.000000
   16        1.987131   1.000000
   17        2.168071   1.000000
   18        2.635733   1.000000
   19        2.665446   1.000000
   20        2.772217   1.000000
   21        2.986102   1.000000
   22        3.087234   1.000000
   23        3.465429   1.000000
   24        3.741369   1.000000
   25        3.857252   1.000000
   26        4.299676   1.000000
   27        4.397528   1.000000
   28        4.441679   1.000000
   29        4.510968   1.000000
   30        4.511976   1.000000
   31        4.543769   1.000000
   32        4.684064   1.000000
   33        4.947191   1.000000
   34        5.202095   1.000000
   35        5.293203   1.000000
   36        5.504339   1.000000
   37        5.520664   1.000000
   38        6.221195   1.000000
   39        6.848132   1.000000
   40        6.885786   1.000000
   41        7.558974   1.000000
   42        7.700227   1.000000
   43        8.393763   1.000000
   44        8.709715   1.000000
   45        8.982925   1.032829
   46        8.989426   1.028720
   47        9.002239   1.013245
   48        9.256952  -0.021401
   49        9.568669  -0.000000
   50        9.635487  -0.000000
   51        9.723857  -0.000000
   52        9.861827  -0.000000
   53        9.927049  -0.000000
   54       10.000200  -0.000000
   55       10.151139  -0.000000
   56       10.176649  -0.000000
   57       10.267218  -0.000000
   58       10.331603  -0.000000
   59       10.706494  -0.000000
   60       11.600702  -0.000000

 -0.3333333E+00  0.1111111E+00  0.3742000E-15  0.2743484E-02
    1       -5.290654   1.000000
    2       -3.368123   1.000000
    3       -3.340115   1.000000
    4       -2.881403   1.000000
    5       -2.632849   1.000000
    6       -2.339095   1.000000
    7       -1.873946   1.000000
    8       -1.617046   1.000000
    9       -0.799862   1.000000
   10        0.159935   1.000000
   11        0.229863   1.000000
   12        0.573816   1.000000
   13        0.596908   1.000000
   14        0.938551   1.000000
   15        1.326061   1.000000
   16        2.335091   1.000000
   17        2.646449   1.000000
   18        2.692503   1.000000
   19        2.789905   1.000000
   20        3.091513   1.000000
   21        3.154560   1.000000
   22        3.172797   1.000000
   23        3.590029   1.000000
   24        3.657402   1.000000
   25        4.141707   1.000000
   26        4.148848   1.000000
   27        4.389141   1.000000
   28        4.606101   1.000000
   29        4.662845   1.000000
   30        4.717600   1.000000
   31        4.745138   1.000000
   32        4.854203   1.000000
   33        5.010628   1.000000
   34        5.084686   1.000000
   35        5.197375   1.000000
   36        5.495788   1.000000
   37        5.539029   1.000000
   38        6.453502   1.000000
   39        6.739035   1.000000
   40        6.880053   1.000000
   41        7.299652   1.000000
   42        8.019013   1.000000
   43        8.042455   1.000000
   44        8.589027   1.000000
   45        9.108973   0.369414
   46        9.143527   0.128831
   47        9.442403  -0.000005
   48        9.494588  -0.000000
   49        9.523234  -0.000000
   50        9.534269  -0.000000
   51        9.688742  -0.000000
   52        9.714565  -0.000000
   53       10.020656  -0.000000
   54       10.155715  -0.000000
   55       10.220684  -0.000000
   56       10.306056  -0.000000
   57       10.456339  -0.000000
   58       10.579436  -0.000000
   59       11.123370  -0.000000
   60       11.875675   0.000000

 -0.2222222E+00  0.1111111E+00  0.3742001E-15  0.2743484E-02
    1       -5.525041   1.000000
    2       -3.449977   1.000000
    3       -2.655515   1.000000
    4       -2.649331   1.000000
    5       -2.485804   1.000000
    6       -2.310716   1.000000
    7       -1.901365   1.000000
    8       -1.544305   1.000000
    9       -1.223938   1.000000
   10       -0.259409   1.000000
   11       -0.251223   1.000000
   12        0.285473   1.000000
   13        0.350740   1.000000
   14        0.791879   1.000000
   15        0.854444   1.000000
   16        2.640150   1.000000
   17        2.775724   1.000000
   18        2.975879   1.000000
   19        2.999420   1.000000
   20        3.114111   1.000000
   21        3.125867   1.000000
   22        3.584068   1.000000
   23        3.674240   1.000000
   24        3.967502   1.000000
   25        4.022143   1.000000
   26        4.205009   1.000000
   27        4.281095   1.000000
   28        4.636864   1.000000
   29        4.750298   1.000000
   30        4.772586   1.000000
   31        4.794522   1.000000
   32        4.892690   1.000000
   33        4.981707   1.000000
   34        5.437999   1.000000
   35        5.578263   1.000000
   36        5.660073   1.000000
   37        5.830667   1.000000
   38        5.979590   1.000000
   39        6.184054   1.000000
   40        7.200919   1.000000
   41        7.761738   1.000000
   42        7.867901   1.000000
   43        8.406488   1.000000
   44        8.504520   1.000000
   45        8.535641   1.000000
   46        8.699652   1.000000
   47        9.202052  -0.031970
   48        9.458245  -0.000002
   49        9.708234  -0.000000
   50        9.790854  -0.000000
   51        9.858362  -0.000000
   52        9.866557  -0.000000
   53        9.964227  -0.000000
   54       10.217729  -0.000000
   55       10.973010  -0.000000
   56       11.027405  -0.000000
   57       11.407322  -0.000000
   58       11.774820  -0.000000
   59       11.872927   0.000000
   60       12.064433   0.000000

 -0.1111111E+00  0.1111111E+00  0.3742002E-15  0.2743484E-02
    1       -5.643490   1.000000
    2       -3.486425   1.000000
    3       -2.440569   1.000000
    4       -2.327827   1.000000
    5       -2.259207   1.000000
    6       -1.988087   1.000000
    7       -1.899890   1.000000
    8       -1.873932   1.000000
    9       -1.055685   1.000000
   10       -1.030311   1.000000
   11       -0.695778   1.000000
   12        0.126736   1.000000
   13        0.413130   1.000000
   14        0.616350   1.000000
   15        0.726358   1.000000
   16        2.584091   1.000000
   17        2.733739   1.000000
   18        2.980344   1.000000
   19        3.016529   1.000000
   20        3.179515   1.000000
   21        3.691778   1.000000
   22        3.865610   1.000000
   23        3.888802   1.000000
   24        3.909076   1.000000
   25        4.011657   1.000000
   26        4.228338   1.000000
   27        4.533214   1.000000
   28        4.652437   1.000000
   29        4.672465   1.000000
   30        4.754305   1.000000
   31        4.806242   1.000000
   32        4.811755   1.000000
   33        4.934543   1.000000
   34        5.305165   1.000000
   35        5.573839   1.000000
   36        5.717892   1.000000
   37        6.004374   1.000000
   38        6.193572   1.000000
   39        6.261172   1.000000
   40        7.500975   1.000000
   41        7.583097   1.000000
   42        8.000275   1.000000
   43        8.049653   1.000000
   44        8.326769   1.000000
   45        8.535598   1.000000
   46        8.590590   1.000000
   47        9.255412  -0.022107
   48        9.402268  -0.000056
   49        9.417931  -0.000022
   50        9.921973  -0.000000
   51        9.991045  -0.000000
   52       10.016996  -0.000000
   53       10.074978  -0.000000
   54       10.325810  -0.000000
   55       11.452588  -0.000000
   56       11.581696  -0.000000
   57       11.724526  -0.000000
   58       12.233280   0.000000
   59       13.464580   0.000000
   60       13.692633   0.000000

  0.3742521E-15  0.2222222E+00  0.3742002E-15  0.2743484E-02
    1       -5.465303   1.000000
    2       -3.416701   1.000000
    3       -3.043223   1.000000
    4       -2.538255   1.000000
    5       -2.174123   1.000000
    6       -2.169142   1.000000
    7       -2.143956   1.000000
    8       -2.102814   1.000000
    9       -0.576863   1.000000
   10       -0.563816   1.000000
   11        0.145848   1.000000
   12        0.368588   1.000000
   13        0.503106   1.000000
   14        0.546436   1.000000
   15        1.104672   1.000000
   16        2.595218   1.000000
   17        2.658451   1.000000
   18        2.799437   1.000000
   19        3.049767   1.000000
   20        3.152892   1.000000
   21        3.208368   1.000000
   22        3.391839   1.000000
   23        3.498632   1.000000
   24        3.994884   1.000000
   25        4.063530   1.000000
   26        4.371660   1.000000
   27        4.665106   1.000000
   28        4.671151   1.000000
   29        4.675025   1.000000
   30        4.705118   1.000000
   31        4.725726   1.000000
   32        4.903804   1.000000
   33        4.985978   1.000000
   34        5.039230   1.000000
   35        5.296196   1.000000