   49   49   85    1
  0.2046891E+02  0.8733603E-09  0.6079487E-09  0.2183401E-08  0.5000000E-15
   1.0000000000000000E-004
  CAR 
 Name                                    
    185     50    120

  0.3742002E-15  0.3742002E-15  0.1262379E-14  0.1010101E-01
    1      -13.209185   1.000000
    2      -11.866301   1.000000
    3      -11.759489   1.000000
    4      -11.350133   1.000000
    5      -10.671924   1.000000
    6      -10.450174   1.000000
    7      -10.305147   1.000000
    8      -10.217461   1.000000
    9      -10.107245   1.000000
   10       -9.918975   1.000000
   11       -9.917168   1.000000
   12       -9.585660   1.000000
   13       -9.389658   1.000000
   14       -9.375538   1.000000
   15       -9.000255   1.000000
   16       -8.975086   1.000000
   17       -8.344666   1.000000
   18       -7.971374   1.000000
   19       -7.937251   1.000000
   20       -7.668790   1.000000
   21       -7.645685   1.000000
   22       -7.447501   1.000000
   23       -7.388763   1.000000
   24       -7.307299   1.000000
   25       -7.248713   1.000000
   26       -7.200658   1.000000
   27       -6.516466   1.000000
   28       -6.427610   1.000000
   29       -5.806965   1.000000
   30       -5.639562   1.000000
   31       -5.555486   1.000000
   32       -5.456823   1.000000
   33       -5.110772   1.000000
   34       -4.955247   1.000000
   35       -4.916628   1.000000
   36       -4.779511   1.000000
   37       -4.569261   1.000000
   38       -4.513939   1.000000
   39       -4.502534   1.000000
   40       -4.336506   1.000000
   41       -4.223593   1.000000
   42       -4.139855   1.000000
   43       -4.058046   1.000000
   44       -3.991416   1.000000
   45       -3.945397   1.000000
   46       -3.841875   1.000000
   47       -3.796685   1.000000
   48       -3.769771   1.000000
   49       -3.703948   1.000000
   50       -3.676183   1.000000
   51       -3.636948   1.000000
   52       -3.450185   1.000000
   53       -3.346105   1.000000
   54       -3.274235   1.000000
   55       -3.211454   1.000000
   56       -3.170337   1.000000
   57       -3.049856   1.000000
   58       -3.025520   1.000000
   59       -2.977156   1.000000
   60       -2.776269   1.000000
   61       -2.740799   1.000000
   62       -2.735025   1.000000
   63       -2.608368   1.000000
   64       -2.555719   1.000000
   65       -2.506740   1.000000
   66       -2.484511   1.000000
   67       -2.367226   1.000000
   68       -2.286055   1.000000
   69       -2.258918   1.000000
   70       -2.220056   1.000000
   71       -2.173299   1.000000
   72       -1.701976   1.000000
   73       -1.635206   1.000000
   74       -1.468440   1.000000
   75       -1.414256   1.000000
   76       -1.390390   1.000000
   77       -1.323426   1.000000
   78       -1.264323   1.000000
   79       -1.190446   1.000000
   80       -1.090391   1.000000
   81       -0.773401   1.000000
   82       -0.622538   1.000000
   83       -0.459449   1.000000
   84       -0.319754   1.000000
   85       -0.116131   1.000000
   86       -0.096570   1.000000
   87        0.010657   1.000000
   88        0.027076   1.000000
   89        0.113461   1.000000
   90        0.470124   1.004248
   91        0.483154   1.006736
   92        0.782228  -0.017561
   93        0.822400  -0.033701
   94        0.831659  -0.030499
   95        0.904904  -0.004516
   96        0.987499  -0.000098
   97        1.069224  -0.000001
   98        1.194293  -0.000000
   99        1.263755  -0.000000
  100        1.303808  -0.000000
  101        1.318811  -0.000000
  102        1.399087  -0.000000
  103        1.441758  -0.000000
  104        1.459761  -0.000000
  105        1.472666  -0.000000
  106        1.719481  -0.000000
  107        1.848613  -0.000000
  108        1.884943  -0.000000
  109        1.914010  -0.000000
  110        1.930988  -0.000000
  111        1.989294  -0.000000
  112        2.041086  -0.000000
  113        2.076308  -0.000000
  114        2.100022  -0.000000
  115        2.154580  -0.000000
  116        2.230079  -0.000000
  117        2.270662  -0.000000
  118        2.433976  -0.000000
  119        2.450644  -0.000000
  120        2.492407  -0.000000

  0.1111111E+00  0.3694577E-15  0.1266495E-14  0.2020202E-01
    1      -13.184093   1.000000
    2      -11.890778   1.000000
    3      -11.842394   1.000000
    4      -11.269917   1.000000
    5      -10.663549   1.000000
    6      -10.478484   1.000000
    7      -10.292524   1.000000
    8      -10.219701   1.000000
    9      -10.110785   1.000000
   10       -9.913538   1.000000
   11       -9.906455   1.000000
   12       -9.585565   1.000000
   13       -9.389233   1.000000
   14       -9.379192   1.000000
   15       -8.984753   1.000000
   16       -8.956918   1.000000
   17       -8.333588   1.000000
   18       -7.970835   1.000000
   19       -7.934338   1.000000
   20       -7.674794   1.000000
   21       -7.660434   1.000000
   22       -7.507958   1.000000
   23       -7.449393   1.000000
   24       -7.295691   1.000000
   25       -7.243825   1.000000
   26       -7.143469   1.000000
   27       -6.619034   1.000000
   28       -6.422306   1.000000
   29       -5.771865   1.000000
   30       -5.608592   1.000000
   31       -5.526752   1.000000
   32       -5.393552   1.000000
   33       -5.147370   1.000000
   34       -4.953943   1.000000
   35       -4.892167   1.000000
   36       -4.816730   1.000000
   37       -4.693589   1.000000
   38       -4.504390   1.000000
   39       -4.458026   1.000000
   40       -4.273971   1.000000
   41       -4.254745   1.000000
   42       -4.061031   1.000000
   43       -4.007152   1.000000
   44       -3.973004   1.000000
   45       -3.924783   1.000000
   46       -3.824874   1.000000
   47       -3.806010   1.000000
   48       -3.787391   1.000000
   49       -3.694006   1.000000
   50       -3.658857   1.000000
   51       -3.616934   1.000000
   52       -3.445601   1.000000
   53       -3.347456   1.000000
   54       -3.258778   1.000000
   55       -3.207287   1.000000
   56       -3.156033   1.000000
   57       -3.081039   1.000000
   58       -3.055709   1.000000
   59       -2.998161   1.000000
   60       -2.791517   1.000000
   61       -2.743240   1.000000
   62       -2.733887   1.000000
   63       -2.626870   1.000000
   64       -2.594406   1.000000
   65       -2.502556   1.000000
   66       -2.464662   1.000000
   67       -2.355525   1.000000
   68       -2.277652   1.000000
   69       -2.244752   1.000000
   70       -2.222666   1.000000
   71       -2.147616   1.000000
   72       -1.779189   1.000000
   73       -1.614957   1.000000
   74       -1.499802   1.000000
   75       -1.454771   1.000000
   76       -1.422089   1.000000
   77       -1.314130   1.000000
   78       -1.281675   1.000000
   79       -1.206999   1.000000
   80       -1.071397   1.000000
   81       -0.698578   1.000000
   82       -0.656169   1.000000
   83       -0.479323   1.000000
   84       -0.351952   1.000000
   85       -0.158164   1.000000
   86       -0.080389   1.000000
   87        0.009458   1.000000
   88        0.111978   1.000000
   89        0.129769   1.000000
   90        0.425892   1.000652
   91        0.443193   1.001434
   92        0.776022  -0.007168
   93        0.788731  -0.025525
   94        0.936826  -0.001239
   95        0.961093  -0.000395
   96        0.982151  -0.000131
   97        1.013969  -0.000021
   98        1.225974  -0.000000
   99        1.235301  -0.000000
  100        1.323368  -0.000000
  101        1.344278  -0.000000
  102        1.410005  -0.000000
  103        1.451206  -0.000000
  104        1.477449  -0.000000
  105        1.493057  -0.000000
  106        1.742978  -0.000000
  107        1.877148  -0.000000
  108        1.893758  -0.000000
  109        1.910254  -0.000000
  110        1.945784  -0.000000
  111        1.997298  -0.000000
  112        2.042468  -0.000000
  113        2.079364  -0.000000
  114        2.123804  -0.000000
  115        2.172736  -0.000000
  116        2.226655  -0.000000
  117        2.262078  -0.000000
  118        2.420783  -0.000000
  119        2.442428  -0.000000
  120        2.495575  -0.000000

  0.2222222E+00  0.3681327E-15  0.1265439E-14  0.2020202E-01
    1      -13.109458   1.000000
    2      -12.129507   1.000000
    3      -11.778430   1.000000
    4      -11.199082   1.000000
    5      -10.642409   1.000000
    6      -10.515403   1.000000
    7      -10.262814   1.000000
    8      -10.225520   1.000000
    9      -10.107527   1.000000
   10       -9.898380   1.000000
   11       -9.882801   1.000000
   12       -9.609141   1.000000
   13       -9.399328   1.000000
   14       -9.382775   1.000000
   15       -8.938428   1.000000
   16       -8.903048   1.000000
   17       -8.296419   1.000000
   18       -7.963868   1.000000
   19       -7.927725   1.000000
   20       -7.727677   1.000000
   21       -7.716591   1.000000
   22       -7.598023   1.000000
   23       -7.526472   1.000000
   24       -7.312070   1.000000
   25       -7.267878   1.000000
   26       -6.982073   1.000000
   27       -6.829832   1.000000
   28       -6.416042   1.000000
   29       -5.710582   1.000000
   30       -5.553679   1.000000
   31       -5.490324   1.000000
   32       -5.357978   1.000000
   33       -5.213477   1.000000
   34       -4.957573   1.000000
   35       -4.858228   1.000000
   36       -4.824440   1.000000
   37       -4.726788   1.000000
   38       -4.475967   1.000000
   39       -4.338504   1.000000
   40       -4.262865   1.000000
   41       -4.230162   1.000000
   42       -4.064196   1.000000
   43       -3.968138   1.000000
   44       -3.937250   1.000000
   45       -3.876164   1.000000
   46       -3.852961   1.000000
   47       -3.755342   1.000000
   48       -3.719789   1.000000
   49       -3.662055   1.000000
   50       -3.608562   1.000000
   51       -3.558362   1.000000
   52       -3.447890   1.000000
   53       -3.356678   1.000000
   54       -3.254333   1.000000
   55       -3.198216   1.000000
   56       -3.167633   1.000000
   57       -3.129023   1.000000
   58       -3.090802   1.000000
   59       -2.999649   1.000000
   60       -2.805790   1.000000
   61       -2.758299   1.000000
   62       -2.732302   1.000000
   63       -2.656788   1.000000
   64       -2.626658   1.000000
   65       -2.521608   1.000000
   66       -2.487403   1.000000
   67       -2.419729   1.000000
   68       -2.310063   1.000000
   69       -2.169903   1.000000
   70       -2.125802   1.000000
   71       -2.067561   1.000000
   72       -1.944062   1.000000
   73       -1.621696   1.000000
   74       -1.560733   1.000000
   75       -1.530606   1.000000
   76       -1.490174   1.000000
   77       -1.385806   1.000000
   78       -1.282105   1.000000
   79       -1.246999   1.000000
   80       -0.974793   1.000000
   81       -0.823318   1.000000
   82       -0.551586   1.000000
   83       -0.476219   1.000000
   84       -0.421251   1.000000
   85       -0.200413   1.000000
   86       -0.042052   1.000000
   87        0.027160   1.000000
   88        0.143986   1.000000
   89        0.298519   1.000000
   90        0.335376   1.000004
   91        0.359285   1.000017
   92        0.679248   0.576628
   93        0.898627  -0.005655
   94        0.935726  -0.001301
   95        0.957201  -0.000479
   96        1.015952  -0.000018
   97        1.119449  -0.000000
   98        1.207360  -0.000000
   99        1.254129  -0.000000
  100        1.315626  -0.000000
  101        1.385189  -0.000000
  102        1.450042  -0.000000
  103        1.476941  -0.000000
  104        1.531241  -0.000000
  105        1.569419  -0.000000
  106        1.817618  -0.000000
  107        1.839745  -0.000000
  108        1.913571  -0.000000
  109        1.949462  -0.000000
  110        1.998012  -0.000000
  111        2.017268  -0.000000
  112        2.065302  -0.000000
  113        2.088896  -0.000000
  114        2.172542  -0.000000
  115        2.194703  -0.000000
  116        2.239029  -0.000000
  117        2.284354  -0.000000
  118        2.381026  -0.000000
  119        2.416665  -0.000000
  120        2.449468  -0.000000

  0.3333333E+00  0.3672355E-15  0.1308213E-14  0.2020202E-01
    1      -12.987270   1.000000
    2      -12.381065   1.000000
    3      -11.674447   1.000000
    4      -11.250713   1.000000
    5      -10.610678   1.000000
    6      -10.507523   1.000000
    7      -10.241763   1.000000
    8      -10.232373   1.000000
    9      -10.065908   1.000000
   10       -9.881881   1.000000
   11       -9.858929   1.000000
   12       -9.684005   1.000000
   13       -9.409402   1.000000
   14       -9.388594   1.000000
   15       -8.869823   1.000000
   16       -8.821693   1.000000
   17       -8.255899   1.000000
   18       -8.003534   1.000000
   19       -7.926062   1.000000
   20       -7.807514   1.000000
   21       -7.777821   1.000000
   22       -7.618386   1.000000
   23       -7.533516   1.000000
   24       -7.354359   1.000000
   25       -7.325285   1.000000
   26       -7.074644   1.000000
   27       -6.758452   1.000000
   28       -6.359997   1.000000
   29       -5.798940   1.000000
   30       -5.606425   1.000000
   31       -5.510496   1.000000
   32       -5.456779   1.000000
   33       -5.055395   1.000000
   34       -4.888971   1.000000
   35       -4.788842   1.000000
   36       -4.739028   1.000000
   37       -4.707164   1.000000
   38       -4.405939   1.000000
   39       -4.349450   1.000000
   40       -4.173953   1.000000
   41       -4.134488   1.000000
   42       -4.117673   1.000000
   43       -4.071524   1.000000
   44       -3.947527   1.000000
   45       -3.864823   1.000000
   46       -3.821138   1.000000
   47       -3.695129   1.000000
   48       -3.628198   1.000000
   49       -3.596859   1.000000
   50       -3.566640   1.000000
   51       -3.493126   1.000000
   52       -3.453733   1.000000
   53       -3.379160   1.000000
   54       -3.321350   1.000000
   55       -3.237471   1.000000
   56       -3.156937   1.000000
   57       -3.112710   1.000000
   58       -3.012225   1.000000
   59       -2.978585   1.000000
   60       -2.836972   1.000000
   61       -2.751704   1.000000
   62       -2.743868   1.000000
   63       -2.697850   1.000000
   64       -2.677678   1.000000
   65       -2.585140   1.000000
   66       -2.501136   1.000000
   67       -2.431142   1.000000
   68       -2.360356   1.000000
   69       -2.156866   1.000000
   70       -2.064799   1.000000
   71       -2.045043   1.000000
   72       -1.936339   1.000000
   73       -1.729873   1.000000
   74       -1.640474   1.000000
   75       -1.565166   1.000000
   76       -1.496460   1.000000
   77       -1.470101   1.000000
   78       -1.317135   1.000000
   79       -1.281117   1.000000
   80       -1.030936   1.000000
   81       -0.795677   1.000000
   82       -0.625650   1.000000
   83       -0.568389   1.000000
   84       -0.301091   1.000000
   85       -0.183683   1.000000
   86        0.000046   1.000000
   87        0.098710   1.000000
   88        0.154714   1.000000
   89        0.237113   1.000000
   90        0.301748   1.000000
   91        0.530912   1.024255
   92        0.545053   1.030509
   93        0.897310  -0.005920
   94        0.936893  -0.001235
   95        0.982509  -0.000129
   96        1.063392  -0.000001
   97        1.131170  -0.000000
   98        1.145623  -0.000000
   99        1.275267  -0.000000
  100        1.367244  -0.000000
  101        1.498752  -0.000000
  102        1.543434  -0.000000
  103        1.569874  -0.000000
  104        1.586559  -0.000000
  105        1.638491  -0.000000
  106        1.712086  -0.000000
  107        1.892317  -0.000000
  108        1.932801  -0.000000
  109        1.985848  -0.000000
  110        2.055659  -0.000000
  111        2.070487  -0.000000
  112        2.097794  -0.000000
  113        2.126776  -0.000000
  114        2.169600  -0.000000
  115        2.237017  -0.000000
  116        2.304974  -0.000000
  117        2.327411  -0.000000
  118        2.339946  -0.000000
  119        2.358321  -0.000000
  120        2.401175  -0.000000

  0.4444444E+00  0.3795814E-15  0.1235432E-14  0.2020202E-01
    1      -12.821122   1.000000
    2      -12.615989   1.000000
    3      -11.540515   1.000000
    4      -11.382950   1.000000
    5      -10.582775   1.000000
    6      -10.486658   1.000000
    7      -10.238155   1.000000
    8      -10.236908   1.000000
    9       -9.986830   1.000000
   10       -9.884500   1.000000
   11       -9.843674   1.000000
   12       -9.772462   1.000000
   13       -9.408783   1.000000
   14       -9.399194   1.000000
   15       -8.810945   1.000000
   16       -8.748137   1.000000
   17       -8.245633   1.000000
   18       -8.094133   1.000000
   19       -7.971297   1.000000
   20       -7.803997   1.000000
   21       -7.738985   1.000000
   22       -7.637999   1.000000
   23       -7.463294   1.000000
   24       -7.389326   1.000000
   25       -7.374203   1.000000
   26       -7.297738   1.000000
   27       -6.510066   1.000000
   28       -6.295462   1.000000
   29       -6.083759   1.000000
   30       -5.646808   1.000000
   31       -5.501097   1.000000
   32       -5.488376   1.000000
   33       -5.009279   1.000000
   34       -4.745968   1.000000
   35       -4.708978   1.000000
   36       -4.624980   1.000000
   37       -4.603412   1.000000
   38       -4.472070   1.000000
   39       -4.409711   1.000000
   40       -4.189499   1.000000
   41       -4.182900   1.000000
   42       -4.088358   1.000000
   43       -4.013280   1.000000
   44       -3.959541   1.000000
   45       -3.814007   1.000000
   46       -3.752942   1.000000
   47       -3.715826   1.000000
   48       -3.672382   1.000000
   49       -3.640506   1.000000
   50       -3.484771   1.000000
   51       -3.462005   1.000000
   52       -3.429110   1.000000
   53       -3.373502   1.000000
   54       -3.339056   1.000000
   55       -3.269857   1.000000
   56       -3.110807   1.000000
   57       -3.058541   1.000000
   58       -2.990771   1.000000
   59       -2.931248   1.000000
   60       -2.866059   1.000000
   61       -2.789661   1.000000
   62       -2.771972   1.000000
   63       -2.734036   1.000000
   64       -2.686994   1.000000
   65       -2.645929   1.000000
   66       -2.464391   1.000000
   67       -2.421639   1.000000
   68       -2.359939   1.000000
   69       -2.268676   1.000000
   70       -2.097939   1.000000
   71       -2.014070   1.000000
   72       -1.855571   1.000000
   73       -1.751814   1.000000
   74       -1.630954   1.000000
   75       -1.625077   1.000000
   76       -1.588988   1.000000
   77       -1.445067   1.000000
   78       -1.326258   1.000000
   79       -1.290376   1.000000
   80       -1.196667   1.000000
   81       -0.750149   1.000000
   82       -0.650190   1.000000
   83       -0.569363   1.000000
   84       -0.367451   1.000000
   85       -0.075938   1.000000
   86       -0.006126   1.000000
   87        0.101101   1.000000
   88        0.176247   1.000000
   89        0.292367   1.000000
   90        0.366818   1.000027
   91        0.419297   1.000474
   92        0.647712   0.814401
   93        0.798754  -0.032831
   94        0.954109  -0.000556
   95        0.986778  -0.000102
   96        1.027547  -0.000009
   97        1.093839  -0.000000
   98        1.221860  -0.000000
   99        1.329315  -0.000000
  100        1.378510  -0.000000
  101        1.521940  -0.000000
  102        1.551647  -0.000000
  103        1.580894  -0.000000
  104        1.640586  -0.000000
  105        1.713963  -0.000000
  106        1.817309  -0.000000
  107        1.884344  -0.000000
  108        1.994186  -0.000000
  109        2.004603  -0.000000
  110        2.090978  -0.000000
  111        2.119222  -0.000000
  112        2.151621  -0.000000
  113        2.173729  -0.000000
  114        2.192219  -0.000000
  115        2.216833  -0.000000
  116        2.246931  -0.000000
  117        2.270893  -0.000000
  118        2.302548  -0.000000
  119        2.314343  -0.000000
  120        2.412424  -0.000000

  0.3742002E-15  0.9090909E-01  0.1339361E-14  0.2020202E-01
    1      -13.176547   1.000000
    2      -11.837707   1.000000
    3      -11.768465   1.000000
    4      -11.310399   1.000000
    5      -10.655668   1.000000
    6      -10.487507   1.000000
    7      -10.447788   1.000000
    8      -10.428426   1.000000
    9      -10.194131   1.000000
   10       -9.865555   1.000000
   11       -9.779005   1.000000
   12       -9.542098   1.000000
   13       -9.390310   1.000000
   14       -9.366452   1.000000
   15       -8.958031   1.000000
   16       -8.922900   1.000000
   17       -8.337588   1.000000
   18       -7.992151   1.000000
   19       -7.960246   1.000000
   20       -7.846629   1.000000
   21       -7.795905   1.000000
   22       -7.317124   1.000000
   23       -7.222780   1.000000
   24       -7.147429   1.000000
   25       -7.068256   1.000000
   26       -7.032905   1.000000
   27       -6.563152   1.000000
   28       -6.395619   1.000000
   29       -5.784206   1.000000
   30       -5.667049   1.000000
   31       -5.571526   1.000000
   32       -5.445561   1.000000
   33       -5.164787   1.000000
   34       -5.007368   1.000000
   35       -4.843090   1.000000
   36       -4.757539   1.000000
   37       -4.591535   1.000000
   38       -4.496520   1.000000
   39       -4.482150   1.000000
   40       -4.343540   1.000000
   41       -4.278910   1.000000
   42       -4.198280   1.000000
   43       -4.150351   1.000000
   44       -4.006282   1.000000
   45       -3.970757   1.000000
   46       -3.931576   1.000000
   47       -3.858701   1.000000
   48       -3.777097   1.000000
   49       -3.714120   1.000000
   50       -3.664532   1.000000
   51       -3.634879   1.000000
   52       -3.478578   1.000000
   53       -3.381119   1.000000
   54       -3.322005   1.000000
   55       -3.271274   1.000000
   56       -3.183498   1.000000
   57       -3.049814   1.000000
   58       -3.025994   1.000000
   59       -2.954835   1.000000
   60       -2.815806   1.000000
   61       -2.721285   1.000000
   62       -2.698119   1.000000
   63       -2.641532   1.000000
   64       -2.523264   1.000000
   65       -2.502506   1.000000
   66       -2.462417   1.000000
   67       -2.376339   1.000000
   68       -2.322483   1.000000
   69       -2.254913   1.000000
   70       -2.140213   1.000000
   71       -2.120476   1.000000
   72       -1.903517   1.000000
   73       -1.626894   1.000000
   74       -1.444081   1.000000
   75       -1.422887   1.000000
   76       -1.368715   1.000000
   77       -1.297909   1.000000
   78       -1.240063   1.000000
   79       -1.129586   1.000000
   80       -1.079017   1.000000
   81       -0.811979   1.000000
   82       -0.556793   1.000000
   83       -0.480080   1.000000
   84       -0.329032   1.000000
   85       -0.188233   1.000000
   86       -0.145741   1.000000
   87       -0.058124   1.000000
   88       -0.036644   1.000000
   89        0.230301   1.000000
   90        0.369020   1.000030
   91        0.502698   1.012357
   92        0.684070   0.536132
   93        0.747058   0.085837
   94        0.773966  -0.003066
   95        0.858040  -0.018680
   96        0.976079  -0.000182
   97        1.059656  -0.000001
   98        1.158040  -0.000000
   99        1.197303  -0.000000
  100        1.296295  -0.000000
  101        1.368888  -0.000000
  102        1.461291  -0.000000
  103        1.502257  -0.000000
  104        1.526522  -0.000000
  105        1.646319  -0.000000
  106        1.727935  -0.000000
  107        1.828157  -0.000000
  108        1.869245  -0.000000
  109        1.918176  -0.000000
  110        1.948168  -0.000000
  111        2.010257  -0.000000
  112        2.031315  -0.000000
  113        2.085162  -0.000000
  114        2.109802  -0.000000
  115        2.185565  -0.000000
  116        2.240855  -0.000000
  117        2.272538  -0.000000
  118        2.383245  -0.000000
  119        2.424398  -0.000000
  120        2.472367  -0.000000

  0.1111111E+00  0.9090909E-01  0.1250028E-14  0.2020202E-01
    1      -13.131087   1.000000
    2      -11.963480   1.000000
    3      -11.796706   1.000000
    4      -11.208311   1.000000
    5      -10.640426   1.000000
    6      -10.553157   1.000000
    7      -10.477490   1.000000
    8      -10.379829   1.000000
    9      -10.145294   1.000000
   10       -9.857493   1.000000
   11       -9.750574   1.000000
   12       -9.554438   1.000000
   13       -9.430101   1.000000
   14       -9.396115   1.000000
   15       -8.919353   1.000000
   16       -8.865910   1.000000
   17       -8.331243   1.000000
   18       -7.998017   1.000000
   19       -7.943287   1.000000
   20       -7.914880   1.000000
   21       -7.788268   1.000000
   22       -7.432406   1.000000
   23       -7.270016   1.000000
   24       -7.093009   1.000000
   25       -7.035754   1.000000
   26       -7.014435   1.000000
   27       -6.697312   1.000000
   28       -6.396558   1.000000
   29       -5.759025   1.000000
   30       -5.654010   1.000000
   31       -5.485810   1.000000
   32       -5.321981   1.000000
   33       -5.227060   1.000000
   34       -5.060481   1.000000
   35       -4.841684   1.000000
   36       -4.793505   1.000000
   37       -4.664549   1.000000
   38       -4.480234   1.000000
   39       -4.420899   1.000000
   40       -4.330702   1.000000
   41       -4.276234   1.000000
   42       -4.174345   1.000000
   43       -4.045270   1.000000
   44       -3.967226   1.000000
   45       -3.919933   1.000000
   46       -3.899413   1.000000
   47       -3.821454   1.000000
   48       -3.762885   1.000000
   49       -3.716926   1.000000
   50       -3.630288   1.000000
   51       -3.599659   1.000000
   52       -3.511188   1.000000
   53       -3.393887   1.000000
   54       -3.304990   1.000000
   55       -3.262188   1.000000
   56       -3.126950   1.000000
   57       -3.117909   1.000000
   58       -3.049316   1.000000
   59       -2.929350   1.000000
   60       -2.857986   1.000000
   61       -2.753397   1.000000
   62       -2.720979   1.000000
   63       -2.686373   1.000000
   64       -2.561431   1.000000
   65       -2.512210   1.000000
   66       -2.476223   1.000000
   67       -2.352480   1.000000
   68       -2.284067   1.000000
   69       -2.192048   1.000000
   70       -2.154502   1.000000
   71       -2.129678   1.000000
   72       -1.956960   1.000000
   73       -1.607003   1.000000
   74       -1.542240   1.000000
   75       -1.484460   1.000000
   76       -1.435573   1.000000
   77       -1.303714   1.000000
   78       -1.282062   1.000000
   79       -1.118081   1.000000
   80       -1.010476   1.000000
   81       -0.848547   1.000000
   82       -0.582938   1.000000
   83       -0.499030   1.000000
   84       -0.357004   1.000000
   85       -0.236010   1.000000
   86       -0.143194   1.000000
   87        0.039621   1.000000
   88        0.099703   1.000000
   89        0.210321   1.000000
   90        0.322436   1.000001
   91        0.474461   1.004977
   92        0.690265   0.483747
   93        0.744275   0.099080
   94        0.886512  -0.008478
   95        0.928428  -0.001783
   96        0.950447  -0.000663
   97        1.041312  -0.000004
   98        1.127248  -0.000000
   99        1.150140  -0.000000
  100        1.361039  -0.000000
  101        1.442762  -0.000000
  102        1.488653  -0.000000
  103        1.502646  -0.000000
  104        1.563412  -0.000000
  105        1.618071  -0.000000
  106        1.742928  -0.000000
  107        1.866427  -0.000000
  108        1.901881  -0.000000
  109        1.921197  -0.000000
  110        1.938351  -0.000000
  111        2.011862  -0.000000
  112        2.036331  -0.000000
  113        2.128472  -0.000000
  114        2.140571  -0.000000
  115        2.201808  -0.000000
  116        2.242909  -0.000000
  117        2.280458  -0.000000
  118        2.370892  -0.000000
  119        2.407471  -0.000000
  120        2.437824  -0.000000

  0.2222222E+00  0.9090909E-01  0.1327369E-14  0.2020202E-01
    1      -13.036967   1.000000
    2      -12.210706   1.000000
    3      -11.715893   1.000000
    4      -11.185762   1.000000
    5      -10.623732   1.000000
    6      -10.596284   1.000000
    7      -10.497133   1.000000
    8      -10.323549   1.000000
    9      -10.075249   1.000000
   10       -9.823271   1.000000
   11       -9.699690   1.000000
   12       -9.616134   1.000000
   13       -9.499293   1.000000
   14       -9.433715   1.000000
   15       -8.842903   1.000000
   16       -8.766141   1.000000
   17       -8.309686   1.000000
   18       -8.120928   1.000000
   19       -7.940682   1.000000
   20       -7.838652   1.000000
   21       -7.809151   1.000000
   22       -7.583040   1.000000
   23       -7.359771   1.000000
   24       -7.111996   1.000000
   25       -7.038016   1.000000
   26       -6.873754   1.000000
   27       -6.861665   1.000000
   28       -6.377122   1.000000
   29       -5.758667   1.000000
   30       -5.639000   1.000000
   31       -5.473377   1.000000
   32       -5.390280   1.000000
   33       -5.127336   1.000000
   34       -5.036457   1.000000
   35       -4.873729   1.000000
   36       -4.788815   1.000000
   37       -4.620913   1.000000
   38       -4.451974   1.000000
   39       -4.352880   1.000000
   40       -4.284120   1.000000
   41       -4.233757   1.000000
   42       -4.158081   1.000000
   43       -4.038206   1.000000
   44       -3.942462   1.000000
   45       -3.892300   1.000000
   46       -3.866404   1.000000
   47       -3.757413   1.000000
   48       -3.708571   1.000000