   54   54   85    1
  0.1371068E+02  0.6042588E-09  0.6042559E-09  0.2341357E-08  0.5000000E-15
   1.0000000000000000E-004
  CAR 
 Name                                    
    196     41    126

  0.3742002E-15  0.3742002E-15  0.1262379E-14  0.1234568E-01
    1      -11.882657   1.000000
    2      -11.298630   1.000000
    3      -10.484997   1.000000
    4       -9.081900   1.000000
    5       -8.766535   1.000000
    6       -8.583631   1.000000
    7       -8.417251   1.000000
    8       -8.306926   1.000000
    9       -8.116979   1.000000
   10       -8.039412   1.000000
   11       -8.033239   1.000000
   12       -7.960626   1.000000
   13       -7.934869   1.000000
   14       -7.867435   1.000000
   15       -7.664885   1.000000
   16       -7.626146   1.000000
   17       -7.539818   1.000000
   18       -7.419243   1.000000
   19       -7.294289   1.000000
   20       -6.989342   1.000000
   21       -6.608783   1.000000
   22       -6.417978   1.000000
   23       -6.233378   1.000000
   24       -6.176869   1.000000
   25       -6.141817   1.000000
   26       -6.122387   1.000000
   27       -6.110279   1.000000
   28       -5.621681   1.000000
   29       -5.568267   1.000000
   30       -5.510213   1.000000
   31       -5.056210   1.000000
   32       -4.926161   1.000000
   33       -4.801033   1.000000
   34       -4.787212   1.000000
   35       -4.635293   1.000000
   36       -4.400080   1.000000
   37       -4.250318   1.000000
   38       -3.568654   1.000000
   39       -3.535336   1.000000
   40       -3.178671   1.000000
   41       -3.106908   1.000000
   42       -3.042128   1.000000
   43       -2.941510   1.000000
   44       -2.735327   1.000000
   45       -2.710421   1.000000
   46       -2.695609   1.000000
   47       -2.313211   1.000000
   48       -2.301800   1.000000
   49       -2.272432   1.000000
   50       -2.115375   1.000000
   51       -2.052194   1.000000
   52       -2.010901   1.000000
   53       -2.006162   1.000000
   54       -1.907086   1.000000
   55       -1.795152   1.000000
   56       -1.760711   1.000000
   57       -1.758157   1.000000
   58       -1.716166   1.000000
   59       -1.614062   1.000000
   60       -1.545583   1.000000
   61       -1.479988   1.000000
   62       -1.343920   1.000000
   63       -1.275818   1.000000
   64       -1.269917   1.000000
   65       -1.143282   1.000000
   66       -1.071415   1.000000
   67       -1.032431   1.000000
   68       -0.911686   1.000000
   69       -0.817150   1.000000
   70       -0.726749   1.000000
   71       -0.691392   1.000000
   72       -0.582357   1.000000
   73       -0.518703   1.000000
   74       -0.509893   1.000000
   75       -0.477663   1.000000
   76       -0.416962   1.000000
   77       -0.376286   1.000000
   78       -0.178049   1.000000
   79       -0.152227   1.000000
   80        0.216514   1.000000
   81        0.251871   1.000000
   82        0.576245   1.000000
   83        0.853929   1.000000
   84        0.856126   1.000000
   85        0.971224   1.000000
   86        1.129876   1.000000
   87        1.137110   1.000000
   88        1.238932   1.000000
   89        1.239886   1.000000
   90        1.284949   1.000000
   91        1.292790   1.000000
   92        1.433191   1.000002
   93        1.500787   1.000014
   94        1.523169   1.000028
   95        1.704935   1.002738
   96        1.839304   1.021931
   97        1.846593   1.023613
   98        1.925787   1.035287
   99        2.417482  -0.035207
  100        2.480723  -0.023877
  101        2.548312  -0.010250
  102        2.720340  -0.000302
  103        2.905803  -0.000001
  104        2.942494  -0.000000
  105        3.003135  -0.000000
  106        3.067785  -0.000000
  107        3.084675  -0.000000
  108        3.103912  -0.000000
  109        3.178153  -0.000000
  110        3.234793  -0.000000
  111        3.272818  -0.000000
  112        3.365866  -0.000000
  113        3.398963  -0.000000
  114        3.409461  -0.000000
  115        3.431536  -0.000000
  116        3.488565  -0.000000
  117        3.521906  -0.000000
  118        3.550412  -0.000000
  119        3.595213  -0.000000
  120        3.659242  -0.000000
  121        3.667861  -0.000000
  122        3.785041  -0.000000
  123        3.809807  -0.000000
  124        3.863488  -0.000000
  125        3.866575  -0.000000
  126        3.993604  -0.000000

  0.1111111E+00  0.3867788E-15  0.1262378E-14  0.2469136E-01
    1      -11.825445   1.000000
    2      -11.245975   1.000000
    3      -10.443727   1.000000
    4       -9.043409   1.000000
    5       -8.742888   1.000000
    6       -8.638363   1.000000
    7       -8.620418   1.000000
    8       -8.524126   1.000000
    9       -8.444448   1.000000
   10       -8.242585   1.000000
   11       -8.219687   1.000000
   12       -8.103393   1.000000
   13       -8.076363   1.000000
   14       -7.943114   1.000000
   15       -7.453328   1.000000
   16       -7.384573   1.000000
   17       -7.178339   1.000000
   18       -7.139244   1.000000
   19       -7.063779   1.000000
   20       -6.826649   1.000000
   21       -6.556040   1.000000
   22       -6.460835   1.000000
   23       -6.283014   1.000000
   24       -6.226634   1.000000
   25       -6.153890   1.000000
   26       -6.111506   1.000000
   27       -5.959819   1.000000
   28       -5.715992   1.000000
   29       -5.588705   1.000000
   30       -5.497896   1.000000
   31       -4.862429   1.000000
   32       -4.849931   1.000000
   33       -4.637255   1.000000
   34       -4.607083   1.000000
   35       -4.538597   1.000000
   36       -4.257647   1.000000
   37       -4.116929   1.000000
   38       -3.560451   1.000000
   39       -3.536338   1.000000
   40       -3.186580   1.000000
   41       -3.171251   1.000000
   42       -3.104900   1.000000
   43       -2.899372   1.000000
   44       -2.846400   1.000000
   45       -2.744143   1.000000
   46       -2.727658   1.000000
   47       -2.608574   1.000000
   48       -2.373623   1.000000
   49       -2.253890   1.000000
   50       -2.167458   1.000000
   51       -2.084565   1.000000
   52       -2.042276   1.000000
   53       -1.987313   1.000000
   54       -1.947113   1.000000
   55       -1.833542   1.000000
   56       -1.781076   1.000000
   57       -1.723325   1.000000
   58       -1.684053   1.000000
   59       -1.673573   1.000000
   60       -1.587676   1.000000
   61       -1.509863   1.000000
   62       -1.424180   1.000000
   63       -1.362820   1.000000
   64       -1.269590   1.000000
   65       -1.217639   1.000000
   66       -1.160549   1.000000
   67       -0.994303   1.000000
   68       -0.963666   1.000000
   69       -0.885700   1.000000
   70       -0.735564   1.000000
   71       -0.730653   1.000000
   72       -0.642294   1.000000
   73       -0.575592   1.000000
   74       -0.511285   1.000000
   75       -0.435082   1.000000
   76       -0.343996   1.000000
   77       -0.295123   1.000000
   78       -0.209408   1.000000
   79       -0.099940   1.000000
   80        0.070631   1.000000
   81        0.160158   1.000000
   82        0.314264   1.000000
   83        0.670856   1.000000
   84        0.773509   1.000000
   85        0.872101   1.000000
   86        1.107556   1.000000
   87        1.133817   1.000000
   88        1.174294   1.000000
   89        1.207996   1.000000
   90        1.235930   1.000000
   91        1.282759   1.000000
   92        1.431345   1.000001
   93        1.480558   1.000007
   94        1.592735   1.000203
   95        1.709536   1.002999
   96        1.828934   1.019584
   97        2.118214   0.689103
   98        2.222185   0.265807
   99        2.367964  -0.026959
  100        2.526881  -0.013927
  101        2.578257  -0.006332
  102        2.610334  -0.003542
  103        2.814966  -0.000021
  104        2.858720  -0.000005
  105        2.932986  -0.000000
  106        3.089497  -0.000000
  107        3.147708  -0.000000
  108        3.175142  -0.000000
  109        3.212190  -0.000000
  110        3.244985  -0.000000
  111        3.316582  -0.000000
  112        3.370074  -0.000000
  113        3.378739  -0.000000
  114        3.387227  -0.000000
  115        3.429239  -0.000000
  116        3.463927  -0.000000
  117        3.500841  -0.000000
  118        3.524605  -0.000000
  119        3.598212  -0.000000
  120        3.632012  -0.000000
  121        3.662722  -0.000000
  122        3.749849  -0.000000
  123        3.783442  -0.000000
  124        3.807559  -0.000000
  125        3.892024  -0.000000
  126        3.924422  -0.000000

  0.2222222E+00  0.3825705E-15  0.1262378E-14  0.2469136E-01
    1      -11.655803   1.000000
    2      -11.090171   1.000000
    3      -10.322359   1.000000
    4       -9.304478   1.000000
    5       -9.034576   1.000000
    6       -8.927192   1.000000
    7       -8.859090   1.000000
    8       -8.593759   1.000000
    9       -8.520238   1.000000
   10       -8.481147   1.000000
   11       -8.380764   1.000000
   12       -8.349337   1.000000
   13       -8.239237   1.000000
   14       -8.051047   1.000000
   15       -7.295337   1.000000
   16       -7.034068   1.000000
   17       -6.971470   1.000000
   18       -6.958103   1.000000
   19       -6.802715   1.000000
   20       -6.698193   1.000000
   21       -6.403744   1.000000
   22       -6.331829   1.000000
   23       -6.152696   1.000000
   24       -6.131341   1.000000
   25       -6.045672   1.000000
   26       -5.941554   1.000000
   27       -5.772879   1.000000
   28       -5.670486   1.000000
   29       -5.387754   1.000000
   30       -5.303877   1.000000
   31       -4.652205   1.000000
   32       -4.634456   1.000000
   33       -4.409379   1.000000
   34       -4.252994   1.000000
   35       -4.125690   1.000000
   36       -4.067967   1.000000
   37       -3.645535   1.000000
   38       -3.593330   1.000000
   39       -3.551888   1.000000
   40       -3.427315   1.000000
   41       -3.323464   1.000000
   42       -3.243398   1.000000
   43       -3.125539   1.000000
   44       -3.102945   1.000000
   45       -2.874288   1.000000
   46       -2.791528   1.000000
   47       -2.715851   1.000000
   48       -2.527879   1.000000
   49       -2.353908   1.000000
   50       -2.293884   1.000000
   51       -2.105031   1.000000
   52       -2.088200   1.000000
   53       -2.042389   1.000000
   54       -2.022855   1.000000
   55       -1.889171   1.000000
   56       -1.869384   1.000000
   57       -1.819823   1.000000
   58       -1.793028   1.000000
   59       -1.721939   1.000000
   60       -1.694715   1.000000
   61       -1.606666   1.000000
   62       -1.562786   1.000000
   63       -1.460305   1.000000
   64       -1.386051   1.000000
   65       -1.352517   1.000000
   66       -1.226473   1.000000
   67       -1.147320   1.000000
   68       -1.134463   1.000000
   69       -1.030346   1.000000
   70       -0.914707   1.000000
   71       -0.786307   1.000000
   72       -0.750023   1.000000
   73       -0.656711   1.000000
   74       -0.619956   1.000000
   75       -0.508840   1.000000
   76       -0.346819   1.000000
   77       -0.245597   1.000000
   78       -0.213390   1.000000
   79        0.007849   1.000000
   80        0.067207   1.000000
   81        0.127417   1.000000
   82        0.262814   1.000000
   83        0.423999   1.000000
   84        0.487252   1.000000
   85        0.733495   1.000000
   86        0.919465   1.000000
   87        0.989767   1.000000
   88        1.131610   1.000000
   89        1.150763   1.000000
   90        1.162272   1.000000
   91        1.226009   1.000000
   92        1.372253   1.000000
   93        1.541138   1.000048
   94        1.653850   1.000915
   95        1.706447   1.002821
   96        1.801120   1.013841
   97        2.172223   0.466201
   98        2.323097   0.011414
   99        2.371481  -0.028493
  100        2.585933  -0.005543
  101        2.640620  -0.001930
  102        2.748511  -0.000144
  103        2.838157  -0.000010
  104        2.924286  -0.000001
  105        2.978176  -0.000000
  106        2.995174  -0.000000
  107        3.033510  -0.000000
  108        3.091236  -0.000000
  109        3.119472  -0.000000
  110        3.145814  -0.000000
  111        3.241476  -0.000000
  112        3.295449  -0.000000
  113        3.331252  -0.000000
  114        3.363402  -0.000000
  115        3.382664  -0.000000
  116        3.427258  -0.000000
  117        3.506787  -0.000000
  118        3.598045  -0.000000
  119        3.634932  -0.000000
  120        3.638504  -0.000000
  121        3.648564  -0.000000
  122        3.719866  -0.000000
  123        3.785823  -0.000000
  124        3.801539  -0.000000
  125        3.818919  -0.000000
  126        3.941651  -0.000000

  0.3333333E+00  0.3885513E-15  0.1262379E-14  0.2469136E-01
    1      -11.380732   1.000000
    2      -10.838164   1.000000
    3      -10.129324   1.000000
    4       -9.922200   1.000000
    5       -9.555714   1.000000
    6       -9.198358   1.000000
    7       -8.745028   1.000000
    8       -8.656588   1.000000
    9       -8.590713   1.000000
   10       -8.532986   1.000000
   11       -8.462061   1.000000
   12       -8.404727   1.000000
   13       -8.324366   1.000000
   14       -8.087854   1.000000
   15       -7.699197   1.000000
   16       -7.317894   1.000000
   17       -6.788715   1.000000
   18       -6.779447   1.000000
   19       -6.437935   1.000000
   20       -6.372454   1.000000
   21       -6.251796   1.000000
   22       -6.226603   1.000000
   23       -6.085185   1.000000
   24       -6.017745   1.000000
   25       -5.799274   1.000000
   26       -5.727125   1.000000
   27       -5.295390   1.000000
   28       -5.119366   1.000000
   29       -4.991684   1.000000
   30       -4.775438   1.000000
   31       -4.393593   1.000000
   32       -4.355516   1.000000
   33       -4.202310   1.000000
   34       -3.997886   1.000000
   35       -3.940553   1.000000
   36       -3.878168   1.000000
   37       -3.770492   1.000000
   38       -3.725332   1.000000
   39       -3.698290   1.000000
   40       -3.679632   1.000000
   41       -3.604226   1.000000
   42       -3.506825   1.000000
   43       -3.181736   1.000000
   44       -2.927374   1.000000
   45       -2.918429   1.000000
   46       -2.838518   1.000000
   47       -2.666631   1.000000
   48       -2.611340   1.000000
   49       -2.534357   1.000000
   50       -2.459823   1.000000
   51       -2.376520   1.000000
   52       -2.251533   1.000000
   53       -2.160950   1.000000
   54       -2.117780   1.000000
   55       -2.084202   1.000000
   56       -2.019525   1.000000
   57       -1.942203   1.000000
   58       -1.888635   1.000000
   59       -1.810688   1.000000
   60       -1.789277   1.000000
   61       -1.752946   1.000000
   62       -1.718713   1.000000
   63       -1.674316   1.000000
   64       -1.630069   1.000000
   65       -1.447144   1.000000
   66       -1.328694   1.000000
   67       -1.268253   1.000000
   68       -1.171544   1.000000
   69       -1.162543   1.000000
   70       -1.038903   1.000000
   71       -0.930090   1.000000
   72       -0.854516   1.000000
   73       -0.747560   1.000000
   74       -0.622766   1.000000
   75       -0.569669   1.000000
   76       -0.481518   1.000000
   77       -0.233720   1.000000
   78       -0.190601   1.000000
   79       -0.099469   1.000000
   80        0.147252   1.000000
   81        0.178762   1.000000
   82        0.255502   1.000000
   83        0.429993   1.000000
   84        0.480172   1.000000
   85        0.631272   1.000000
   86        0.870659   1.000000
   87        0.875311   1.000000
   88        1.002075   1.000000
   89        1.044159   1.000000
   90        1.144399   1.000000
   91        1.180694   1.000000
   92        1.314716   1.000000
   93        1.517303   1.000024
   94        1.603251   1.000267
   95        1.645952   1.000762
   96        1.883071   1.031559
   97        1.966918   1.023674
   98        2.205535   0.329282
   99        2.277868   0.094767
  100        2.528674  -0.013592
  101        2.552821  -0.009570
  102        2.683290  -0.000749
  103        2.740708  -0.000178
  104        2.777291  -0.000065
  105        2.876141  -0.000003
  106        2.955788  -0.000000
  107        2.994366  -0.000000
  108        3.036629  -0.000000
  109        3.093845  -0.000000
  110        3.122000  -0.000000
  111        3.188377  -0.000000
  112        3.209455  -0.000000
  113        3.269249  -0.000000
  114        3.285006  -0.000000
  115        3.407810  -0.000000
  116        3.476298  -0.000000
  117        3.494857  -0.000000
  118        3.573489  -0.000000
  119        3.614511  -0.000000
  120        3.671473  -0.000000
  121        3.713978  -0.000000
  122        3.748544  -0.000000
  123        3.806457  -0.000000
  124        3.840209  -0.000000
  125        3.924173  -0.000000
  126        3.963585  -0.000000

  0.4444444E+00  0.3777319E-15  0.1262377E-14  0.2469136E-01
    1      -11.027452   1.000000
    2      -10.520034   1.000000
    3      -10.438113   1.000000
    4      -10.054946   1.000000
    5       -9.843608   1.000000
    6       -9.542370   1.000000
    7       -8.751194   1.000000
    8       -8.660973   1.000000
    9       -8.627219   1.000000
   10       -8.520129   1.000000
   11       -8.436110   1.000000
   12       -8.403665   1.000000
   13       -8.117181   1.000000
   14       -8.098396   1.000000
   15       -8.068904   1.000000
   16       -7.719559   1.000000
   17       -6.746118   1.000000
   18       -6.724541   1.000000
   19       -6.386746   1.000000
   20       -6.131508   1.000000
   21       -6.101050   1.000000
   22       -5.973939   1.000000
   23       -5.906033   1.000000
   24       -5.803394   1.000000
   25       -5.780511   1.000000
   26       -5.539354   1.000000
   27       -4.725169   1.000000
   28       -4.517341   1.000000
   29       -4.469962   1.000000
   30       -4.419365   1.000000
   31       -4.326911   1.000000
   32       -4.212282   1.000000
   33       -4.165725   1.000000
   34       -4.131603   1.000000
   35       -4.070182   1.000000
   36       -3.994234   1.000000
   37       -3.910467   1.000000
   38       -3.862934   1.000000
   39       -3.755963   1.000000
   40       -3.640492   1.000000
   41       -3.552084   1.000000
   42       -3.531752   1.000000
   43       -3.472075   1.000000
   44       -3.338841   1.000000
   45       -2.995481   1.000000
   46       -2.916035   1.000000
   47       -2.694420   1.000000
   48       -2.630945   1.000000
   49       -2.543104   1.000000
   50       -2.389857   1.000000
   51       -2.364095   1.000000
   52       -2.331605   1.000000
   53       -2.292559   1.000000
   54       -2.212558   1.000000
   55       -2.174009   1.000000
   56       -2.099990   1.000000
   57       -2.003748   1.000000
   58       -1.939565   1.000000
   59       -1.893026   1.000000
   60       -1.847294   1.000000
   61       -1.839725   1.000000
   62       -1.801668   1.000000
   63       -1.773599   1.000000
   64       -1.738781   1.000000
   65       -1.611190   1.000000
   66       -1.532247   1.000000
   67       -1.469118   1.000000
   68       -1.330027   1.000000
   69       -1.150670   1.000000
   70       -1.049011   1.000000
   71       -0.973622   1.000000
   72       -0.854896   1.000000
   73       -0.723897   1.000000
   74       -0.659918   1.000000
   75       -0.533535   1.000000
   76       -0.493856   1.000000
   77       -0.389025   1.000000
   78       -0.135538   1.000000
   79       -0.087727   1.000000
   80        0.050751   1.000000
   81        0.124241   1.000000
   82        0.373649   1.000000
   83        0.406244   1.000000
   84        0.549001   1.000000
   85        0.667068   1.000000
   86        0.756303   1.000000
   87        0.836716   1.000000
   88        0.943722   1.000000
   89        0.948176   1.000000
   90        1.183424   1.000000
   91        1.189934   1.000000
   92        1.257540   1.000000
   93        1.473353   1.000006
   94        1.696846   1.002326
   95        1.714552   1.003307
   96        1.907822   1.034990
   97        2.001668   0.993250
   98        2.066965   0.862489
   99        2.166359   0.490985
  100        2.201463   0.345434
  101        2.302542   0.043103
  102        2.420377  -0.035010
  103        2.644533  -0.001778
  104        2.751523  -0.000133
  105        2.818283  -0.000019
  106        2.921061  -0.000001
  107        2.964064  -0.000000
  108        2.993599  -0.000000
  109        3.023112  -0.000000
  110        3.046451  -0.000000
  111        3.117303  -0.000000
  112        3.150126  -0.000000
  113        3.205399  -0.000000
  114        3.227076  -0.000000
  115        3.402671  -0.000000
  116        3.431090  -0.000000
  117        3.489417  -0.000000
  118        3.617161  -0.000000
  119        3.669702  -0.000000
  120        3.699350  -0.000000
  121        3.723149  -0.000000
  122        3.765672  -0.000000
  123        3.852909  -0.000000
  124        3.877068  -0.000000
  125        3.942619  -0.000000
  126        4.046545  -0.000000

  0.3742002E-15  0.1111111E+00  0.1262378E-14  0.2469136E-01
    1      -11.825444   1.000000
    2      -11.245975   1.000000
    3      -10.443727   1.000000
    4       -9.043409   1.000000
    5       -8.742885   1.000000
    6       -8.638350   1.000000
    7       -8.620400   1.000000
    8       -8.524093   1.000000
    9       -8.444461   1.000000
   10       -8.242620   1.000000
   11       -8.219700   1.000000
   12       -8.103401   1.000000
   13       -8.076388   1.000000
   14       -7.943130   1.000000
   15       -7.453319   1.000000
   16       -7.384583   1.000000
   17       -7.178330   1.000000
   18       -7.139241   1.000000
   19       -7.063758   1.000000
   20       -6.826631   1.000000
   21       -6.556016   1.000000
   22       -6.460845   1.000000
   23       -6.283000   1.000000
   24       -6.226622   1.000000
   25       -6.153929   1.000000
   26       -6.111504   1.000000
   27       -5.959854   1.000000
   28       -5.716030   1.000000
   29       -5.588673   1.000000
   30       -5.497896   1.000000
   31       -4.862423   1.000000
   32       -4.849930   1.000000
   33       -4.637248   1.000000
   34       -4.607045   1.000000
   35       -4.538562   1.000000
   36       -4.257652   1.000000
   37       -4.116963   1.000000
   38       -3.560435   1.000000
   39       -3.536340   1.000000
   40       -3.186587   1.000000
   41       -3.171220   1.000000
   42       -3.104920   1.000000
   43       -2.899371   1.000000
   44       -2.846406   1.000000
   45       -2.744124   1.000000
   46       -2.727684   1.000000
   47       -2.608541   1.000000
   48       -2.373631   1.000000
   49       -2.253889   1.000000
   50       -2.167481   1.000000
   51       -2.084562   1.000000
   52       -2.042281   1.000000
   53       -1.987330   1.000000
   54       -1.947126   1.000000
   55       -1.833524   1.000000
   56       -1.781071   1.000000
   57       -1.723340   1.000000
   58       -1.684040   1.000000
   59       -1.673565   1.000000
   60       -1.587683   1.000000
   61       -1.509867   1.000000
   62       -1.424172   1.000000
   63       -1.362833   1.000000
   64       -1.269597   1.000000
   65       -1.217634   1.000000
   66       -1.160550   1.000000
   67       -0.994290   1.000000
   68       -0.963678   1.000000
   69       -0.885682   1.000000
   70       -0.735558   1.000000
   71       -0.730646   1.000000
   72       -0.642283   1.000000
   73       -0.575601   1.000000
   74       -0.511274   1.000000
   75       -0.435123   1.000000
   76       -0.343985   1.000000
   77       -0.295148   1.000000
   78       -0.209440   1.000000
   79       -0.099911   1.000000
   80        0.070631   1.000000
   81        0.160159   1.000000
   82        0.314264   1.000000
   83        0.670877   1.000000
   84        0.773482   1.000000
   85        0.872119   1.000000
   86        1.107555   1.000000
   87        1.133816   1.000000
   88        1.174327   1.000000
   89        1.207991   1.000000
   90        1.235898   1.000000
   91        1.282774   1.000000
   92        1.431327   1.000001
   93        1.480567   1.000007
   94        1.592743   1.000203
   95        1.709506   1.002997
   96        1.828930   1.019583
   97        2.118217   0.689095
   98        2.222183   0.265815
   99        2.367930  -0.026943
  100        2.526912  -0.013921
  101        2.578248  -0.006333
  102        2.610338  -0.003542
  103        2.814947  -0.000021
  104        2.858730  -0.000005
  105        2.932983  -0.000000
  106        3.089502  -0.000000
  107        3.147718  -0.000000
  108        3.175170  -0.000000
  109        3.212181  -0.000000
  110        3.245016  -0.000000
  111        3.316585  -0.000000
  112        3.370076  -0.000000
  113        3.378734  -0.000000
  114        3.387220  -0.000000
  115        3.429242  -0.000000
  116        3.463957  -0.000000
  117        3.500844  -0.000000
  118        3.524560  -0.000000
  119        3.598243  -0.000000
  120        3.631972  -0.000000
  121        3.662710  -0.000000
  122        3.749832  -0.000000
  123        3.783446  -0.000000
  124        3.807539  -0.000000
  125        3.891997  -0.000000
  126        3.924424  -0.000000

  0.1111111E+00  0.1111111E+00  0.1262378E-14  0.2469136E-01
    1      -11.712563   1.000000
    2      -11.141617   1.000000
    3      -10.360645   1.000000
    4       -9.027100   1.000000
    5       -8.967688   1.000000
    6       -8.819667   1.000000
    7       -8.778946   1.000000
    8       -8.751713   1.000000
    9       -8.693294   1.000000
   10       -8.537966   1.000000
   11       -8.520489   1.000000
   12       -8.102395   1.000000
   13       -7.930111   1.000000
   14       -7.704678   1.000000
   15       -7.635940   1.000000
   16       -7.184053   1.000000
   17       -7.085424   1.000000
   18       -7.015244   1.000000
   19       -6.758724   1.000000
   20       -6.558384   1.000000
   21       -6.542610   1.000000
   22       -6.416341   1.000000
   23       -6.228117   1.000000
   24       -6.216115   1.000000
   25       -6.068084   1.000000
   26       -5.894460   1.000000
   27       -5.872876   1.000000
   28       -5.582793   1.000000
   29       -5.558065   1.000000
   30       -5.371949   1.000000
   31       -4.941866   1.000000
   32       -4.619754   1.000000
   33       -4.377643   1.000000
   34       -4.370091   1.000000
   35       -4.139697   1.000000
   36       -4.118815   1.000000
   37       -3.858891   1.000000
   38       -3.587635   1.000000
   39       -3.554188   1.000000
   40       -3.407669   1.000000
   41       -3.218618   1.000000
   42       -3.201765   1.000000
   43       -3.115956   1.000000
   44       -2.856516   1.000000
   45       -2.825843   1.000000
   46       -2.731715   1.000000
   47       -2.625604   1.000000
   48       -2.518096   1.000000
   49       -2.411522   1.000000
   50       -2.282853   1.000000
   51       -2.209661   1.000000
   52       -2.022213   1.000000
   53       -2.002166   1.000000
   54       -1.927998   1.000000
   55       -1.897045   1.000000
   56       -1.859775   1.000000
   57       -1.804697   1.000000
   58       -1.775628   1.000000
   59       -1.679149   1.000000
   60       -1.578628   1.000000
   61       -1.569773   1.000000
   62       -1.533860   1.000000
   63       -1.489308   1.000000
   64       -1.437192   1.000000
   65       -1.424176   1.000000
   66       -1.167604   1.000000
   67       -1.117093   1.000000
   68       -1.031891   1.000000
   69       -0.903648   1.000000
   70       -0.890644   1.000000
   71       -0.780776   1.000000
   72       -0.734661   1.000000
   73       -0.610589   1.000000
   74       -0.562354   1.000000
   75       -0.486010   1.000000
   76       -0.324905   1.000000
   77       -0.262177   1.000000
   78       -0.208163   1.000000
   79       -0.060347   1.000000
   80        0.078406   1.000000
   81        0.153231   1.000000
   82        0.285289   1.000000
   83        0.345834   1.000000
   84        0.540470   1.000000
   85        0.879544   1.000000
   86        0.941063   1.000000
   87        1.084804   1.000000
   88        1.086139   1.000000
   89        1.182049   1.000000
   90        1.218836   1.000000
   91        1.319512   1.000000
   92        1.343153   1.000000
   93        1.496774   1.000013
   94        1.654622   1.000932
   95        1.754906   1.006857
   96        1.770635   1.008854
   97        2.198387   0.357772
   98        2.378509  -0.031038
   99        2.395273  -0.034640
  100        2.459079  -0.028783
  101        2.641216  -0.001906
  102        2.773037  -0.000073
  103        2.792727  -0.000041
  104        2.854465  -0.000006
  105        2.989930  -0.000000
  106        3.001978  -0.000000
  107        3.075488  -0.000000
  108        3.083571  -0.000000
  109        3.179450  -0.000000
  110        3.253232  -0.000000
  111        3.265998  -0.000000
  112        3.310389  -0.000000
  113        3.354858  -0.000000
  114        3.368110  -0.000000
  115        3.400481  -0.000000
  116        3.455300  -0.000000
  117        3.539567  -0.000000
  118        3.542668  -0.000000
  119        3.597257  -0.000000
  120        3.625385  -0.000000
  121        3.644363  -0.000000
  122        3.708768  -0.000000
  123        3.785659  -0.000000
  124        3.820514  -0.000000
  125        3.882572  -0.000000
  126        3.887224  -0.000000

  0.2222222E+00  0.1111111E+00  0.1262378E-14  0.2469136E-01
    1      -11.490220   1.000000
    2      -10.937182   1.000000
    3      -10.200959   1.000000
    4       -9.597539   1.000000
    5       -9.290078   1.000000
    6       -9.095145   1.000000