 running on   54 total cores
 distrk:  each k-point on   54 cores,    1 groups
 distr:  one band on    9 cores,    6 groups
 using from now: INCAR     
 vasp.5.4.4.18Apr17-6-g9f103f2a35 (build Dec  7 2020 12:43:57) complex           
 POSCAR found type information on POSCAR  Mo V  B 
 POSCAR found :  3 types and      54 ions
 scaLAPACK will be used
 LDA part: xc-table for Pade appr. of Perdew
 POSCAR, INCAR and KPOINTS ok, starting setup
 resort distribution
 resort distribution
 resort distribution
 resort distribution
 resort distribution
 resort distribution
 resort distribution
 resort distribution
 resort distribution
 resort distribution
 resort distribution
 resort distribution
 resort distribution
 resort distribution
 resort distribution
 resort distribution
 resort distribution
 resort distribution
 resort distribution
 resort distribution
 resort distribution
 resort distribution
 resort distribution
 resort distribution
 resort distribution
 resort distribution
 resort distribution
 resort distribution
 resort distribution
 resort distribution
 resort distribution
 resort distribution
 resort distribution
 resort distribution
 resort distribution
 resort distribution
 resort distribution
 resort distribution
 resort distribution
 resort distribution
 resort distribution
 resort distribution
 resort distribution
 resort distribution
 resort distribution
 resort distribution
 resort distribution
 resort distribution
 resort distribution
 resort distribution
 resort distribution
 resort distribution
 resort distribution
 resort distribution
 FFT: planning ...
 WAVECAR not read
 augmentation electrons   196.02944308687637     
 soft         electrons   0.0000000000000000     
 augmentation electrons   196.02944308687637     
 soft         electrons   0.0000000000000000     
 augmentation electrons   196.02944308687637     
 soft         electrons   0.0000000000000000     
 augmentation electrons   196.02944308687637     
 soft         electrons   0.0000000000000000     
 augmentation electrons   196.02944308687637     
 soft         electrons   0.0000000000000000     
 augmentation electrons   196.02944308687637     
 soft         electrons   0.0000000000000000     
 augmentation electrons   196.02944308687637     
 soft         electrons   0.0000000000000000     
 augmentation electrons   196.02944308687637     
 soft         electrons   0.0000000000000000     
 augmentation electrons   196.02944308687637     
 soft         electrons   0.0000000000000000     
 augmentation electrons   196.02944308687637     
 soft         electrons   0.0000000000000000     
 augmentation electrons   196.02944308687637     
 soft         electrons   0.0000000000000000     
 augmentation electrons   196.02944308687637     
 soft         electrons   0.0000000000000000     
 augmentation electrons   196.02944308687637     
 soft         electrons   0.0000000000000000     
 augmentation electrons   196.02944308687637     
 soft         electrons   0.0000000000000000     
 augmentation electrons   196.02944308687637     
 soft         electrons   0.0000000000000000     
 augmentation electrons   196.02944308687637     
 soft         electrons   0.0000000000000000     
 augmentation electrons   196.02944308687637     
 soft         electrons   0.0000000000000000     
 augmentation electrons   196.02944308687637     
 soft         electrons   0.0000000000000000     
 augmentation electrons   196.02944308687637     
 soft         electrons   0.0000000000000000     
 augmentation electrons   196.02944308687637     
 soft         electrons   0.0000000000000000     
 augmentation electrons   196.02944308687637     
 soft         electrons   0.0000000000000000     
 augmentation electrons   196.02944308687637     
 soft         electrons   0.0000000000000000     
 augmentation electrons   196.02944308687637     
 soft         electrons   0.0000000000000000     
 augmentation electrons   196.02944308687637     
 soft         electrons   0.0000000000000000     
 augmentation electrons   196.02944308687637     
 soft         electrons   0.0000000000000000     
 augmentation electrons   196.02944308687637     
 soft         electrons   0.0000000000000000     
 augmentation electrons   196.02944308687637     
 soft         electrons   0.0000000000000000     
 augmentation electrons   196.02944308687637     
 soft         electrons   0.0000000000000000     
 augmentation electrons   196.02944308687637     
 soft         electrons   0.0000000000000000     
 augmentation electrons   196.02944308687637     
 soft         electrons   0.0000000000000000     
 augmentation electrons   196.02944308687637     
 soft         electrons   0.0000000000000000     
 augmentation electrons   196.02944308687637     
 soft         electrons   0.0000000000000000     
 augmentation electrons   196.02944308687637     
 soft         electrons   0.0000000000000000     
 augmentation electrons   196.02944308687637     
 soft         electrons   0.0000000000000000     
 augmentation electrons   196.02944308687637     
 soft         electrons   0.0000000000000000     
 augmentation electrons   196.02944308687637     
 soft         electrons   0.0000000000000000     
 augmentation electrons   196.02944308687637     
 soft         electrons   0.0000000000000000     
 augmentation electrons   196.02944308687637     
 soft         electrons   0.0000000000000000     
 augmentation electrons   196.02944308687637     
 soft         electrons   0.0000000000000000     
 augmentation electrons   196.02944308687637     
 soft         electrons   0.0000000000000000     
 augmentation electrons   196.02944308687637     
 soft         electrons   0.0000000000000000     
 augmentation electrons   196.02944308687637     
 soft         electrons   0.0000000000000000     
 augmentation electrons   196.02944308687637     
 soft         electrons   0.0000000000000000     
 augmentation electrons   196.02944308687637     
 soft         electrons   0.0000000000000000     
 augmentation electrons   196.02944308687637     
 soft         electrons   0.0000000000000000     
 augmentation electrons   196.02944308687637     
 soft         electrons   0.0000000000000000     
 augmentation electrons   196.02944308687637     
 soft         electrons   0.0000000000000000     
 augmentation electrons   196.02944308687637     
 soft         electrons   0.0000000000000000     
 augmentation electrons   196.02944308687637     
 soft         electrons   0.0000000000000000     
 augmentation electrons   196.02944308687637     
 soft         electrons   0.0000000000000000     
 augmentation electrons   196.02944308687637     
 soft         electrons   0.0000000000000000     
 augmentation electrons   196.02944308687637     
 soft         electrons   0.0000000000000000     
 augmentation electrons   196.02944308687637     
 soft         electrons   0.0000000000000000     
 augmentation electrons   196.02944308687637     
 soft         electrons   0.0000000000000000     
 total        electrons   196.02944308687637     
 total        electrons   196.02944308687637     
 total        electrons   196.02944308687637     
 total        electrons   196.02944308687637     
 total        electrons   196.02944308687637     
 total        electrons   196.02944308687637     
 total        electrons   196.02944308687637     
 total        electrons   196.02944308687637     
 total        electrons   196.02944308687637     
 total        electrons   196.02944308687637     
 total        electrons   196.02944308687637     
 total        electrons   196.02944308687637     
 total        electrons   196.02944308687637     
 total        electrons   196.02944308687637     
 total        electrons   196.02944308687637     
 total        electrons   196.02944308687637     
 total        electrons   196.02944308687637     
 total        electrons   196.02944308687637     
 total        electrons   196.02944308687637     
 total        electrons   196.02944308687637     
 total        electrons   196.02944308687637     
 total        electrons   196.02944308687637     
 total        electrons   196.02944308687637     
 total        electrons   196.02944308687637     
 total        electrons   196.02944308687637     
 total        electrons   196.02944308687637     
 total        electrons   196.02944308687637     
 total        electrons   196.02944308687637     
 total        electrons   196.02944308687637     
 total        electrons   196.02944308687637     
 total        electrons   196.02944308687637     
 total        electrons   196.02944308687637     
 total        electrons   196.02944308687637     
 total        electrons   196.02944308687637     
 total        electrons   196.02944308687637     
 total        electrons   196.02944308687637     
 total        electrons   196.02944308687637     
 total        electrons   196.02944308687637     
 total        electrons   196.02944308687637     
 total        electrons   196.02944308687637     
 total        electrons   196.02944308687637     
 total        electrons   196.02944308687637     
 total        electrons   196.02944308687637     
 total        electrons   196.02944308687637     
 total        electrons   196.02944308687637     
 total        electrons   196.02944308687637     
 total        electrons   196.02944308687637     
 total        electrons   196.02944308687637     
 total        electrons   196.02944308687637     
 total        electrons   196.02944308687637     
 total        electrons   196.02944308687637     
 total        electrons   196.02944308687637     
 total        electrons   196.02944308687637     
 total        electrons   196.02944308687637     
 augmentation electrons   601.43275708774149     
 soft         electrons   0.0000000000000000     
 augmentation electrons   601.43275708774149     
 soft         electrons   0.0000000000000000     
 augmentation electrons   601.43275708774149     
 soft         electrons   0.0000000000000000     
 augmentation electrons   601.43275708774149     
 soft         electrons   0.0000000000000000     
 augmentation electrons   601.43275708774149     
 soft         electrons   0.0000000000000000     
 augmentation electrons   601.43275708774149     
 soft         electrons   0.0000000000000000     
 augmentation electrons   601.43275708774149     
 soft         electrons   0.0000000000000000     
 augmentation electrons   601.43275708774149     
 soft         electrons   0.0000000000000000     
 augmentation electrons   601.43275708774149     
 soft         electrons   0.0000000000000000     
 augmentation electrons   601.43275708774149     
 soft         electrons   0.0000000000000000     
 augmentation electrons   601.43275708774149     
 soft         electrons   0.0000000000000000     
 augmentation electrons   601.43275708774149     
 soft         electrons   0.0000000000000000     
 augmentation electrons   601.43275708774149     
 soft         electrons   0.0000000000000000     
 augmentation electrons   601.43275708774149     
 soft         electrons   0.0000000000000000     
 augmentation electrons   601.43275708774149     
 soft         electrons   0.0000000000000000     
 augmentation electrons   601.43275708774149     
 soft         electrons   0.0000000000000000     
 augmentation electrons   601.43275708774149     
 soft         electrons   0.0000000000000000     
 augmentation electrons   601.43275708774149     
 soft         electrons   0.0000000000000000     
 augmentation electrons   601.43275708774149     
 soft         electrons   0.0000000000000000     
 augmentation electrons   601.43275708774149     
 soft         electrons   0.0000000000000000     
 augmentation electrons   601.43275708774149     
 soft         electrons   0.0000000000000000     
 augmentation electrons   601.43275708774149     
 soft         electrons   0.0000000000000000     
 augmentation electrons   601.43275708774149     
 soft         electrons   0.0000000000000000     
 augmentation electrons   601.43275708774149     
 soft         electrons   0.0000000000000000     
 augmentation electrons   601.43275708774149     
 soft         electrons   0.0000000000000000     
 augmentation electrons   601.43275708774149     
 soft         electrons   0.0000000000000000     
 augmentation electrons   601.43275708774149     
 soft         electrons   0.0000000000000000     
 augmentation electrons   601.43275708774149     
 soft         electrons   0.0000000000000000     
 augmentation electrons   601.43275708774149     
 soft         electrons   0.0000000000000000     
 augmentation electrons   601.43275708774149     
 soft         electrons   0.0000000000000000     
 augmentation electrons   601.43275708774149     
 soft         electrons   0.0000000000000000     
 augmentation electrons   601.43275708774149     
 soft         electrons   0.0000000000000000     
 augmentation electrons   601.43275708774149     
 soft         electrons   0.0000000000000000     
 augmentation electrons   601.43275708774149     
 soft         electrons   0.0000000000000000     
 augmentation electrons   601.43275708774149     
 soft         electrons   0.0000000000000000     
 augmentation electrons   601.43275708774149     
 soft         electrons   0.0000000000000000     
 augmentation electrons   601.43275708774149     
 soft         electrons   0.0000000000000000     
 augmentation electrons   601.43275708774149     
 augmentation electrons   601.43275708774149     
 soft         electrons   0.0000000000000000     
 augmentation electrons   601.43275708774149     
 soft         electrons   0.0000000000000000     
 augmentation electrons   601.43275708774149     
 soft         electrons   0.0000000000000000     
 augmentation electrons   601.43275708774149     
 soft         electrons   0.0000000000000000     
 augmentation electrons   601.43275708774149     
 soft         electrons   0.0000000000000000     
 augmentation electrons   601.43275708774149     
 soft         electrons   0.0000000000000000     
 augmentation electrons   601.43275708774149     
 soft         electrons   0.0000000000000000     
 augmentation electrons   601.43275708774149     
 soft         electrons   0.0000000000000000     
 augmentation electrons   601.43275708774149     
 soft         electrons   0.0000000000000000     
 augmentation electrons   601.43275708774149     
 soft         electrons   0.0000000000000000     
 augmentation electrons   601.43275708774149     
 soft         electrons   0.0000000000000000     
 augmentation electrons   601.43275708774149     
 soft         electrons   0.0000000000000000     
 augmentation electrons   601.43275708774149     
 soft         electrons   0.0000000000000000     
 augmentation electrons   601.43275708774149     
 soft         electrons   0.0000000000000000     
 augmentation electrons   601.43275708774149     
 soft         electrons   0.0000000000000000     
 augmentation electrons   601.43275708774149     
 soft         electrons   0.0000000000000000     
 soft         electrons   0.0000000000000000     
 total        electrons   601.43275708774149     
 total        electrons   601.43275708774149     
 total        electrons   601.43275708774149     
 total        electrons   601.43275708774149     
 total        electrons   601.43275708774149     
 total        electrons   601.43275708774149     
 total        electrons   601.43275708774149     
 total        electrons   601.43275708774149     
 total        electrons   601.43275708774149     
 total        electrons   601.43275708774149     
 total        electrons   601.43275708774149     
 total        electrons   601.43275708774149     
 total        electrons   601.43275708774149     
 total        electrons   601.43275708774149     
 total        electrons   601.43275708774149     
 total        electrons   601.43275708774149     
 total        electrons   601.43275708774149     
 total        electrons   601.43275708774149     
 total        electrons   601.43275708774149     
 total        electrons   601.43275708774149     
 total        electrons   601.43275708774149     
 total        electrons   601.43275708774149     
 total        electrons   601.43275708774149     
 total        electrons   601.43275708774149     
 total        electrons   601.43275708774149     
 total        electrons   601.43275708774149     
 total        electrons   601.43275708774149     
 total        electrons   601.43275708774149     
 total        electrons   601.43275708774149     
 total        electrons   601.43275708774149     
 total        electrons   601.43275708774149     
 total        electrons   601.43275708774149     
 total        electrons   601.43275708774149     
 total        electrons   601.43275708774149     
 total        electrons   601.43275708774149     
 total        electrons   601.43275708774149     
 total        electrons   601.43275708774149     
 total        electrons   601.43275708774149     
 total        electrons   601.43275708774149     
 total        electrons   601.43275708774149     
 total        electrons   601.43275708774149     
 total        electrons   601.43275708774149     
 total        electrons   601.43275708774149     
 total        electrons   601.43275708774149     
 total        electrons   601.43275708774149     
 total        electrons   601.43275708774149     
 total        electrons   601.43275708774149     
 total        electrons   601.43275708774149     
 total        electrons   601.43275708774149     
 total        electrons   601.43275708774149     
 total        electrons   601.43275708774149     
 total        electrons   601.43275708774149     
 total        electrons   601.43275708774149     
 total        electrons   601.43275708774149     
 entering main loop
       N       E                     dE             d eps       ncg     rms          rms(c)
DAV:   1     0.200420285199E+04    0.20042E+04   -0.70807E+04 10332   0.140E+03
DAV:   2    -0.364096230824E+01   -0.20078E+04   -0.18749E+04 10560   0.370E+02
DAV:   3    -0.464983083332E+03   -0.46134E+03   -0.44071E+03 14778   0.181E+02
DAV:   4    -0.506596229552E+03   -0.41613E+02   -0.40574E+02 16752   0.636E+01
DAV:   5    -0.508291043207E+03   -0.16948E+01   -0.16584E+01 17232   0.144E+01    0.109E+02
RMM:   6    -0.517833488975E+03   -0.95424E+01   -0.11191E+03 12694   0.122E+02    0.838E+01
RMM:   7    -0.541691381972E+03   -0.23858E+02   -0.54872E+02 11525   0.109E+02    0.584E+01
RMM:   8    -0.507615329975E+03    0.34076E+02   -0.14728E+02 14170   0.343E+01    0.404E+01
RMM:   9    -0.498602673542E+03    0.90127E+01   -0.12345E+02 12438   0.380E+01    0.422E+01
RMM:  10    -0.434539055544E+03    0.64064E+02   -0.25756E+01 10488   0.243E+01    0.251E+01
RMM:  11    -0.422720220665E+03    0.11819E+02   -0.26896E+01 11083   0.195E+01    0.207E+01
RMM:  12    -0.422020835811E+03    0.69938E+00   -0.79434E+00 13861   0.624E+00    0.176E+01
RMM:  13    -0.422088413878E+03   -0.67578E-01   -0.49537E-01 13246   0.177E+00    0.168E+01
RMM:  14    -0.421165366457E+03    0.92305E+00   -0.72497E-01 10509   0.365E+00    0.140E+01
RMM:  15    -0.420037345084E+03    0.11280E+01   -0.32113E+00 11439   0.622E+00    0.525E+00
RMM:  16    -0.420019832771E+03    0.17512E-01   -0.14464E+00 13393   0.310E+00    0.413E+00
RMM:  17    -0.419987428498E+03    0.32404E-01   -0.52973E-01 12255   0.213E+00    0.331E+00
RMM:  18    -0.419944950119E+03    0.42478E-01   -0.19341E-01 10560   0.179E+00    0.244E+00
RMM:  19    -0.419919626284E+03    0.25324E-01   -0.13199E-01 10759   0.147E+00    0.133E+00
RMM:  20    -0.419908386256E+03    0.11240E-01   -0.50343E-02 10888   0.826E-01    0.856E-01
RMM:  21    -0.419908634528E+03   -0.24827E-03   -0.35214E-02 13422   0.423E-01    0.637E-01
RMM:  22    -0.419905253254E+03    0.33813E-02   -0.13121E-02 11890   0.387E-01    0.346E-01
RMM:  23    -0.419905054645E+03    0.19861E-03   -0.12711E-02 13655   0.286E-01    0.306E-01
RMM:  24    -0.419904046231E+03    0.10084E-02   -0.29086E-03 10926   0.192E-01    0.129E-01
RMM:  25    -0.419904907130E+03   -0.86090E-03   -0.43043E-03 13929   0.144E-01    0.176E-01
RMM:  26    -0.419905066192E+03   -0.15906E-03   -0.87178E-04 11883   0.104E-01    0.144E-01
RMM:  27    -0.419905508226E+03   -0.44203E-03   -0.10828E-03 10736   0.124E-01    0.878E-02
RMM:  28    -0.419906036730E+03   -0.52850E-03   -0.81360E-04 13746   0.636E-02    0.824E-02
RMM:  29    -0.419907384040E+03   -0.13473E-02   -0.57775E-04 10578   0.777E-02    0.911E-02
RMM:  30    -0.419907640684E+03   -0.25664E-03   -0.11807E-04 11397   0.335E-02    0.611E-02
RMM:  31    -0.419907982455E+03   -0.34177E-03   -0.92385E-05 10731   0.366E-02    0.407E-02
RMM:  32    -0.419908139307E+03   -0.15685E-03   -0.51257E-05 10403   0.291E-02    0.246E-02
RMM:  33    -0.419908240064E+03   -0.10076E-03   -0.51845E-05 12234   0.133E-02    0.848E-03
RMM:  34    -0.419908268550E+03   -0.28486E-04   -0.69457E-06  8130   0.790E-03    0.753E-03
RMM:  35    -0.419908316284E+03   -0.47734E-04   -0.64740E-06  8287   0.109E-02    0.433E-03
RMM:  36    -0.419908328550E+03   -0.12265E-04   -0.25661E-06  7140   0.422E-03    0.464E-03
RMM:  37    -0.419908328566E+03   -0.16495E-07   -0.74340E-07  6187   0.421E-03
   1 F= -.41990833E+03 E0= -.41990066E+03  d E =-.419908E+03
 curvature:   0.00 expect dE= 0.000E+00 dE for cont linesearch  0.000E+00
 trial: gam= 0.00000 g(F)=  0.302E+00 g(S)=  0.000E+00 ort = 0.000E+00 (trialstep = 0.100E+01)
 search vector abs. value=  0.302E+00
 bond charge predicted
       N       E                     dE             d eps       ncg     rms          rms(c)
DAV:   1    -0.420062298679E+03   -0.15397E+00   -0.20367E+01 10896   0.111E+01    0.153E+00
RMM:   2    -0.420075379944E+03   -0.13081E-01   -0.56962E-01 11215   0.296E+00    0.122E+00
RMM:   3    -0.420132740874E+03   -0.57361E-01   -0.18904E-01 12601   0.146E+00    0.178E+00
RMM:   4    -0.420066560613E+03    0.66180E-01   -0.79748E-02 12484   0.945E-01    0.635E-01
RMM:   5    -0.420075891578E+03   -0.93310E-02   -0.51360E-02 11054   0.821E-01    0.986E-01
RMM:   6    -0.420059675180E+03    0.16216E-01   -0.17332E-02 10859   0.559E-01    0.221E-01
RMM:   7    -0.420059905801E+03   -0.23062E-03   -0.94669E-03 12651   0.259E-01    0.194E-01
RMM:   8    -0.420059415256E+03    0.49054E-03   -0.28465E-03 11128   0.199E-01    0.915E-02
RMM:   9    -0.420059514233E+03   -0.98977E-04   -0.16002E-03 13479   0.878E-02    0.818E-02
RMM:  10    -0.420059436336E+03    0.77897E-04   -0.37824E-04 10719   0.677E-02    0.387E-02
RMM:  11    -0.420059431643E+03    0.46932E-05   -0.20215E-04 13453   0.332E-02    0.206E-02
RMM:  12    -0.420059432316E+03   -0.67275E-06   -0.61762E-05 11556   0.220E-02    0.204E-02
RMM:  13    -0.420059431372E+03    0.94391E-06   -0.22923E-05 10047   0.165E-02    0.159E-02
RMM:  14    -0.420059429630E+03    0.17416E-05   -0.91822E-06  8268   0.107E-02    0.719E-03
RMM:  15    -0.420059430013E+03   -0.38276E-06   -0.51220E-06  7709   0.783E-03
   2 F= -.42005943E+03 E0= -.42005310E+03  d E =-.151101E+00
 trial-energy change:   -0.151101  1 .order   -0.150835   -0.302025    0.000354
 step:   0.9988(harm=  0.9988)  dis= 0.04737  next Energy=  -420.059164 (dE=-0.151E+00)
 bond charge predicted
       N       E                     dE             d eps       ncg     rms          rms(c)
DAV:   1    -0.420059430297E+03   -0.66745E-06   -0.28153E-05 11772   0.165E-02    0.266E-03
RMM:   2    -0.420059431350E+03   -0.10526E-05   -0.26380E-06  6803   0.674E-03    0.626E-03
RMM:   3    -0.420059431120E+03    0.23018E-06   -0.10649E-06  6241   0.632E-03    0.146E-03
RMM:   4    -0.420059431640E+03   -0.52006E-06   -0.29293E-07  6138   0.204E-03    0.193E-03
RMM:   5    -0.420059431920E+03   -0.27992E-06   -0.21994E-07  6055   0.253E-03
   3 F= -.42005943E+03 E0= -.42005311E+03  d E =-.151103E+00
 curvature:  -0.50 expect dE=-0.237E-01 dE for cont linesearch -0.165E-06
 trial: gam= 0.15578 g(F)=  0.474E-01 g(S)=  0.000E+00 ort = 0.316E-03 (trialstep = 0.100E+01)
 search vector abs. value=  0.548E-01
 bond charge predicted
       N       E                     dE             d eps       ncg     rms          rms(c)
DAV:   1    -0.420090012307E+03   -0.30581E-01   -0.29451E+00 10344   0.430E+00    0.396E-01
RMM:   2    -0.420096136831E+03   -0.61245E-02   -0.73719E-02 11053   0.118E+00    0.476E-01
RMM:   3    -0.420095804424E+03    0.33241E-03   -0.20668E-02 13824   0.408E-01    0.430E-01
RMM:   4    -0.420093564124E+03    0.22403E-02   -0.45665E-03 11737   0.236E-01    0.237E-01
RMM:   5    -0.420093657701E+03   -0.93577E-04   -0.52374E-03 12928   0.220E-01    0.219E-01
RMM:   6    -0.420093255684E+03    0.40202E-03   -0.29959E-03 11027   0.223E-01    0.162E-01
RMM:   7    -0.420092992525E+03    0.26316E-03   -0.15401E-03 10972   0.153E-01    0.932E-02
RMM:   8    -0.420092915165E+03    0.77360E-04   -0.46751E-04 11482   0.792E-02    0.610E-02
RMM:   9    -0.420092865047E+03    0.50118E-04   -0.19031E-04 11203   0.514E-02    0.347E-02
RMM:  10    -0.420092858569E+03    0.64778E-05   -0.96827E-05 12628   0.261E-02    0.172E-02
RMM:  11    -0.420092858069E+03    0.50011E-06   -0.29401E-05 11296   0.148E-02    0.937E-03
RMM:  12    -0.420092858272E+03   -0.20276E-06   -0.92535E-06  8560   0.745E-03
   4 F= -.42009286E+03 E0= -.42008711E+03  d E =-.334264E-01
 trial-energy change:   -0.033426  1 .order   -0.033318   -0.047404   -0.019233
 step:   1.6573(harm=  1.6823)  dis= 0.01752  next Energy=  -420.099213 (dE=-0.398E-01)
 bond charge predicted
       N       E                     dE             d eps       ncg     rms          rms(c)
DAV:   1    -0.420098111173E+03   -0.52531E-02   -0.12765E+00 10332   0.283E+00    0.263E-01
RMM:   2    -0.420100820837E+03   -0.27097E-02   -0.32901E-02 11042   0.788E-01    0.322E-01
RMM:   3    -0.420100600324E+03    0.22051E-03   -0.91322E-03 13837   0.271E-01    0.290E-01
RMM:   4    -0.420099633030E+03    0.96729E-03   -0.19459E-03 11673   0.155E-01    0.165E-01
RMM:   5    -0.420099681671E+03   -0.48640E-04   -0.22543E-03 13061   0.140E-01    0.149E-01
RMM:   6    -0.420099581104E+03    0.10057E-03   -0.14459E-03 11123   0.153E-01    0.132E-01
RMM:   7    -0.420099375328E+03    0.20578E-03   -0.72544E-04 10740   0.110E-01    0.628E-02
RMM:   8    -0.420099340900E+03    0.34429E-04   -0.24198E-04 11548   0.567E-02    0.394E-02
RMM:   9    -0.420099321292E+03    0.19607E-04   -0.91230E-05 10911   0.359E-02    0.235E-02
RMM:  10    -0.420099318197E+03    0.30951E-05   -0.44513E-05 11751   0.180E-02    0.120E-02
RMM:  11    -0.420099318305E+03   -0.10741E-06   -0.13924E-05  9856   0.106E-02    0.725E-03
RMM:  12    -0.420099319194E+03   -0.88971E-06   -0.57662E-06  7780   0.785E-03
   5 F= -.42009932E+03 E0= -.42009397E+03  d E =-.398873E-01
 curvature:  -0.97 expect dE=-0.142E-01 dE for cont linesearch -0.538E-06
 trial: gam= 0.29292 g(F)=  0.146E-01 g(S)=  0.000E+00 ort = 0.174E-03 (trialstep = 0.113E+01)
 search vector abs. value=  0.194E-01
 bond charge predicted
       N       E                     dE             d eps       ncg     rms          rms(c)
DAV:   1    -0.420108664528E+03   -0.93462E-02   -0.14249E+00 10332   0.304E+00    0.366E-01
RMM:   2    -0.420109681456E+03   -0.10169E-02   -0.35678E-02 10881   0.837E-01    0.303E-01
RMM:   3    -0.420110482181E+03   -0.80072E-03   -0.13537E-02 12755   0.401E-01    0.300E-01
RMM:   4    -0.420109938854E+03    0.54333E-03   -0.46136E-03 10935   0.277E-01    0.190E-01
RMM:   5    -0.420110472290E+03   -0.53344E-03   -0.35799E-03 13089   0.163E-01    0.219E-01
RMM:   6    -0.420109495997E+03    0.97629E-03   -0.15644E-03 10918   0.154E-01    0.122E-01
RMM:   7    -0.420109284975E+03    0.21102E-03   -0.67093E-04 10775   0.106E-01    0.403E-02
RMM:   8    -0.420109329663E+03   -0.44689E-04   -0.40457E-04 13618   0.450E-02    0.536E-02
RMM:   9    -0.420109291374E+03    0.38289E-04   -0.10149E-04 10762   0.368E-02    0.256E-02
RMM:  10    -0.420109286112E+03    0.52626E-05   -0.51068E-05 12094   0.189E-02    0.117E-02
RMM:  11    -0.420109285271E+03    0.84047E-06   -0.16394E-05  9678   0.121E-02    0.924E-03
RMM:  12    -0.420109285031E+03    0.24029E-06   -0.41908E-06  7493   0.822E-03
   6 F= -.42010929E+03 E0= -.42010400E+03  d E =-.996584E-02
 trial-energy change:   -0.009966  1 .order   -0.009916   -0.016603   -0.003228
 step:   1.3969(harm=  1.4043)  dis= 0.01014  next Energy=  -420.109665 (dE=-0.103E-01)
 bond charge predicted
       N       E                     dE             d eps       ncg     rms          rms(c)
DAV:   1    -0.420109638526E+03   -0.35325E-03   -0.78690E-02 10668   0.716E-01    0.858E-02
RMM:   2    -0.420109700632E+03   -0.62106E-04   -0.19899E-03 10937   0.196E-01    0.711E-02
RMM:   3    -0.420109768852E+03   -0.68220E-04   -0.76413E-04 12971   0.922E-02    0.775E-02
RMM:   4    -0.420109733860E+03    0.34993E-04   -0.22361E-04 11039   0.591E-02    0.491E-02
RMM:   5    -0.420109740037E+03   -0.61772E-05   -0.23112E-04 12398   0.451E-02    0.550E-02
RMM:   6    -0.420109689847E+03    0.50190E-04   -0.94310E-05 10632   0.403E-02    0.272E-02
RMM:   7    -0.420109681888E+03    0.79584E-05   -0.39629E-05 10342   0.251E-02    0.149E-02
RMM:   8    -0.420109683061E+03   -0.11723E-05   -0.20246E-05  9759   0.146E-02    0.153E-02
RMM:   9    -0.420109680395E+03    0.26655E-05   -0.73937E-06  7902   0.110E-02    0.505E-03
RMM:  10    -0.420109680362E+03    0.32989E-07   -0.28284E-06  7087   0.500E-03
   7 F= -.42010968E+03 E0= -.42010440E+03  d E =-.103612E-01
 curvature:  -0.93 expect dE=-0.539E-02 dE for cont linesearch -0.670E-07
 trial: gam= 0.38181 g(F)=  0.580E-02 g(S)=  0.000E+00 ort = 0.374E-04 (trialstep = 0.118E+01)
 search vector abs. value=  0.866E-02
 bond charge predicted
       N       E                     dE             d eps       ncg     rms          rms(c)
DAV:   1    -0.420115057979E+03   -0.53776E-02   -0.69869E-01 10332   0.208E+00    0.255E-01
RMM:   2    -0.420115747899E+03   -0.68992E-03   -0.22712E-02 10912   0.629E-01    0.325E-01
RMM:   3    -0.420115382198E+03    0.36570E-03   -0.64633E-03 12135   0.311E-01    0.192E-01
RMM:   4    -0.420115363374E+03    0.18824E-04   -0.27747E-03 13167   0.133E-01    0.170E-01
RMM:   5    -0.420114740195E+03    0.62318E-03   -0.14791E-03 10931   0.147E-01    0.121E-01
RMM:   6    -0.420114678272E+03    0.61923E-04   -0.75079E-04 11013   0.113E-01    0.919E-02
RMM:   7    -0.420114599433E+03    0.78839E-04   -0.28509E-04 11231   0.693E-02    0.508E-02
RMM:   8    -0.420114602257E+03   -0.28238E-05   -0.21667E-04 11311   0.528E-02    0.462E-02
RMM:   9    -0.420114573097E+03    0.29159E-04   -0.74101E-05 10691   0.341E-02    0.175E-02
RMM:  10    -0.420114571260E+03    0.18371E-05   -0.34340E-05 10115   0.133E-02    0.880E-03
RMM:  11    -0.420114571346E+03   -0.85358E-07   -0.74774E-06  8360   0.585E-03
   8 F= -.42011457E+03 E0= -.42010924E+03  d E =-.489098E-02
 trial-energy change:   -0.004891  1 .order   -0.004861   -0.006884   -0.002839
 step:   1.9596(harm=  2.0158)  dis= 0.00902  next Energy=  -420.115509 (dE=-0.583E-02)
 bond charge predicted
       N       E                     dE             d eps       ncg     rms          rms(c)
DAV:   1    -0.420115786532E+03   -0.12153E-02   -0.29964E-01 10332   0.136E+00    0.166E-01
RMM:   2    -0.420116102825E+03   -0.31629E-03   -0.96255E-03 10973   0.405E-01    0.212E-01
RMM:   3    -0.420115993953E+03    0.10887E-03   -0.28099E-03 12260   0.201E-01    0.133E-01
RMM:   4    -0.420115886230E+03    0.10772E-03   -0.11923E-03 13041   0.880E-02    0.107E-01
RMM:   5    -0.420115670231E+03    0.21600E-03   -0.65781E-04 10821   0.995E-02    0.835E-02
RMM:   6    -0.420115642710E+03    0.27520E-04   -0.33897E-04 11065   0.744E-02    0.628E-02
RMM:   7    -0.420115601104E+03    0.41606E-04   -0.12187E-04 11197   0.452E-02    0.321E-02
RMM:   8    -0.420115602499E+03   -0.13944E-05   -0.90952E-05 11066   0.352E-02    0.296E-02
RMM:   9    -0.420115590716E+03    0.11783E-04   -0.31247E-05 10141   0.223E-02    0.112E-02
RMM:  10    -0.420115590014E+03    0.70168E-06   -0.14122E-05  8666   0.897E-03    0.588E-03
RMM:  11    -0.420115590156E+03   -0.14244E-06   -0.27333E-06  7180   0.466E-03
   9 F= -.42011559E+03 E0= -.42011024E+03  d E =-.590979E-02
 curvature:  -1.49 expect dE=-0.800E-02 dE for cont linesearch -0.428E-05
 trial: gam= 0.87521 g(F)=  0.535E-02 g(S)=  0.000E+00 ort = 0.157E-03 (trialstep = 0.946E+00)
 search vector abs. value=  0.123E-01
 bond charge predicted
       N       E                     dE             d eps       ncg     rms          rms(c)
DAV:   1    -0.420119746838E+03   -0.41568E-02   -0.52774E-01 10332   0.182E+00    0.224E-01
RMM:   2    -0.420120827316E+03   -0.10805E-02   -0.17266E-02 11148   0.521E-01    0.309E-01
RMM:   3    -0.420120398699E+03    0.42862E-03   -0.49002E-03 11877   0.268E-01    0.183E-01
RMM:   4    -0.420119983226E+03    0.41547E-03   -0.26092E-03 12973   0.127E-01    0.140E-01
RMM:   5    -0.420119696622E+03    0.28660E-03   -0.11812E-03 10626   0.137E-01    0.121E-01
RMM:   6    -0.420119595071E+03    0.10155E-03   -0.61670E-04 11342   0.928E-02    0.741E-02
RMM:   7    -0.420119533448E+03    0.61624E-04   -0.19886E-04 11621   0.553E-02    0.330E-02
RMM:   8    -0.420119538134E+03   -0.46860E-05   -0.13896E-04 11423   0.418E-02    0.343E-02
RMM:   9    -0.420119522035E+03    0.16099E-04   -0.43355E-05 10206   0.278E-02    0.152E-02
RMM:  10    -0.420119520853E+03    0.11823E-05   -0.19568E-05  9198   0.112E-02    0.831E-03
RMM:  11    -0.420119520997E+03   -0.14419E-06   -0.54644E-06  7959   0.571E-03
  10 F= -.42011952E+03 E0= -.42011431E+03  d E =-.393084E-02
 trial-energy change:   -0.003931  1 .order   -0.003896   -0.005195   -0.002598
 step:   1.7689(harm=  1.8918)  dis= 0.01182  next Energy=  -420.120674 (dE=-0.508E-02)
 bond charge predicted
       N       E                     dE             d eps       ncg     rms          rms(c)
DAV:   1    -0.420120984300E+03   -0.14634E-02   -0.39969E-01 10332   0.158E+00    0.194E-01
RMM:   2    -0.420121898847E+03   -0.91455E-03   -0.13053E-02 11148   0.453E-01    0.275E-01
RMM:   3    -0.420121476754E+03    0.42209E-03   -0.36870E-03 11929   0.231E-01    0.159E-01
RMM:   4    -0.420121161833E+03    0.31492E-03   -0.20028E-03 12907   0.112E-01    0.122E-01
RMM:   5    -0.420120974096E+03    0.18774E-03   -0.92608E-04 10626   0.121E-01    0.110E-01
RMM:   6    -0.420120881082E+03    0.93014E-04   -0.48973E-04 11292   0.827E-02    0.636E-02
RMM:   7    -0.420120835078E+03    0.46005E-04   -0.14927E-04 11560   0.481E-02    0.280E-02
RMM:   8    -0.420120840316E+03   -0.52384E-05   -0.10764E-04 11305   0.367E-02    0.307E-02
RMM:   9    -0.420120827181E+03    0.13135E-04   -0.33595E-05 10055   0.246E-02    0.128E-02
RMM:  10    -0.420120826404E+03    0.77724E-06   -0.14907E-05  8890   0.978E-03    0.732E-03
RMM:  11    -0.420120826475E+03   -0.71617E-07   -0.38166E-06  7505   0.531E-03
  11 F= -.42012083E+03 E0= -.42011577E+03  d E =-.523632E-02
 curvature:  -2.08 expect dE=-0.520E-02 dE for cont linesearch -0.200E-04
 trial: gam= 0.41287 g(F)=  0.251E-02 g(S)=  0.000E+00 ort = 0.344E-03 (trialstep = 0.111E+01)
 search vector abs. value=  0.488E-02
 bond charge predicted
       N       E                     dE             d eps       ncg     rms          rms(c)
DAV:   1    -0.420123083325E+03   -0.22569E-02   -0.24093E-01 10416   0.124E+00    0.152E-01
RMM:   2    -0.420124234406E+03   -0.11511E-02   -0.90145E-03 11101   0.367E-01    0.264E-01
RMM:   3    -0.420123270587E+03    0.96382E-03   -0.18476E-03 11403   0.181E-01    0.102E-01
RMM:   4    -0.420123346328E+03   -0.75741E-04   -0.15954E-03 12762   0.101E-01    0.115E-01
RMM:   5    -0.420123164384E+03    0.18194E-03   -0.58162E-04 11060   0.939E-02    0.856E-02
RMM:   6    -0.420123072461E+03    0.91923E-04   -0.26506E-04 10753   0.666E-02    0.412E-02
RMM:   7    -0.420123074627E+03   -0.21665E-05   -0.15889E-04 11676   0.436E-02    0.421E-02
RMM:   8    -0.420123054527E+03    0.20100E-04   -0.71084E-05 10430   0.358E-02    0.169E-02
RMM:   9    -0.420123052788E+03    0.17389E-05   -0.22230E-05  9643   0.143E-02    0.919E-03
RMM:  10    -0.420123052306E+03    0.48260E-06   -0.68920E-06  8052   0.788E-03
  12 F= -.42012305E+03 E0= -.42011826E+03  d E =-.222583E-02
 trial-energy change:   -0.002226  1 .order   -0.002217   -0.002940   -0.001494
 step:   2.1831(harm=  2.2576)  dis= 0.01085  next Energy=  -420.123782 (dE=-0.296E-02)
 bond charge predicted
       N       E                     dE             d eps       ncg     rms          rms(c)
DAV:   1    -0.420123856482E+03   -0.80369E-03   -0.22474E-01 10380   0.120E+00    0.146E-01
RMM:   2    -0.420124986300E+03   -0.11298E-02   -0.84342E-03 11149   0.353E-01    0.256E-01
RMM:   3    -0.420124030465E+03    0.95583E-03   -0.17327E-03 11423   0.174E-01    0.979E-02
RMM:   4    -0.420124126568E+03   -0.96102E-04   -0.15111E-03 12746   0.992E-02    0.115E-01
RMM:   5    -0.420123938751E+03    0.18782E-03   -0.53841E-04 11033   0.908E-02    0.814E-02
RMM:   6    -0.420123858199E+03    0.80552E-04   -0.25072E-04 10775   0.644E-02    0.399E-02
RMM:   7    -0.420123861020E+03   -0.28206E-05   -0.15495E-04 11682   0.425E-02    0.410E-02
RMM:   8    -0.420123841765E+03    0.19255E-04   -0.67228E-05 10414   0.348E-02    0.161E-02
RMM:   9    -0.420123840359E+03    0.14063E-05   -0.20876E-05  9505   0.133E-02    0.879E-03
RMM:  10    -0.420123839977E+03    0.38188E-06   -0.62982E-06  7911   0.776E-03
  13 F= -.42012384E+03 E0= -.42011928E+03  d E =-.301350E-02
 curvature:  -2.07 expect dE=-0.193E-02 dE for cont linesearch -0.355E-05
 trial: gam= 0.41707 g(F)=  0.934E-03 g(S)=  0.000E+00 ort = 0.915E-04 (trialstep = 0.132E+01)
 search vector abs. value=  0.186E-02
 bond charge predicted
       N       E                     dE             d eps       ncg     rms          rms(c)
DAV:   1    -0.420124463956E+03   -0.62360E-03   -0.15880E-01 10392   0.103E+00    0.144E-01
RMM:   2    -0.420124959044E+03   -0.49509E-03   -0.57310E-03 11197   0.308E-01    0.177E-01
RMM:   3    -0.420124780874E+03    0.17817E-03   -0.14953E-03 12097   0.148E-01    0.133E-01
RMM:   4    -0.420124615317E+03    0.16556E-03   -0.85251E-04 11841   0.983E-02    0.902E-02
RMM:   5    -0.420124533319E+03    0.81998E-04   -0.46905E-04 11450   0.850E-02    0.665E-02
RMM:   6    -0.420124510253E+03    0.23066E-04   -0.31389E-04 10605   0.717E-02    0.560E-02
RMM:   7    -0.420124472073E+03    0.38180E-04   -0.10341E-04 10565   0.446E-02    0.249E-02
RMM:   8    -0.420124471083E+03    0.99021E-06   -0.49625E-05 10754   0.243E-02    0.192E-02
RMM:   9    -0.420124465626E+03    0.54576E-05   -0.15693E-05  9314   0.125E-02    0.529E-03
RMM:  10    -0.420124466049E+03   -0.42353E-06   -0.63383E-06  7952   0.594E-03
  14 F= -.42012447E+03 E0= -.42012001E+03  d E =-.626072E-03
 trial-energy change:   -0.000626  1 .order   -0.000610   -0.001288    0.000067
 step:   1.2634(harm=  1.2593)  dis= 0.00406  next Energy=  -420.124468 (dE=-0.628E-03)
 bond charge predicted
       N       E                     dE             d eps       ncg     rms          rms(c)
DAV:   1    -0.420124466986E+03   -0.13610E-05   -0.33601E-04 11952   0.484E-02    0.701E-03
RMM:   2    -0.420124469174E+03   -0.21870E-05   -0.17146E-05 11008   0.154E-02    0.110E-02
RMM:   3    -0.420124467565E+03    0.16083E-05   -0.31159E-06  7106   0.828E-03    0.634E-03
RMM:   4    -0.420124467191E+03    0.37450E-06   -0.19959E-06  6621   0.621E-03    0.473E-03
RMM:   5    -0.420124467069E+03    0.12171E-06   -0.10192E-06  5993   0.514E-03
  15 F= -.42012447E+03 E0= -.42012001E+03  d E =-.627092E-03
 curvature:  -1.20 expect dE=-0.352E-03 dE for cont linesearch -0.236E-07
 trial: gam= 0.34719 g(F)=  0.294E-03 g(S)=  0.000E+00 ort = 0.604E-05 (trialstep = 0.131E+01)
 search vector abs. value=  0.522E-03
 bond charge predicted
       N       E                     dE             d eps       ncg     rms          rms(c)
DAV:   1    -0.420124687372E+03   -0.22018E-03   -0.45240E-02 10416   0.552E-01    0.710E-02
RMM:   2    -0.420124783503E+03   -0.96132E-04   -0.14802E-03 11054   0.158E-01    0.862E-02
RMM:   3    -0.420124767473E+03    0.16031E-04   -0.43912E-04 12469   0.758E-02    0.679E-02
RMM:   4    -0.420124701824E+03    0.65648E-04   -0.16488E-04 13645   0.316E-02    0.361E-02
RMM:   5    -0.420124715018E+03   -0.13194E-04   -0.12258E-04 10864   0.430E-02    0.456E-02
RMM:   6    -0.420124685233E+03    0.29785E-04   -0.62932E-05 10441   0.343E-02    0.222E-02
RMM:   7    -0.420124678218E+03    0.70149E-05   -0.23433E-05  9797   0.217E-02    0.123E-02
RMM:   8    -0.420124677759E+03    0.45939E-06   -0.87105E-06  8291   0.128E-02
  16 F= -.42012468E+03 E0= -.42012021E+03  d E =-.210690E-03
 trial-energy change:   -0.000211  1 .order   -0.000206   -0.000388   -0.000024
 step:   1.3934(harm=  1.3998)  dis= 0.00183  next Energy=  -420.124679 (dE=-0.211E-03)
 reached required accuracy - stopping structural energy minimisation
 augmentation electrons   21.005854677418451     
 soft         electrons   175.08374987698568     
 total        electrons   196.08960455440413     
 augmentation electrons   21.005854677418451     
 soft         electrons   175.08374987698568     
 total        electrons   196.08960455440413     
 augmentation electrons   21.005854677418451     
 soft         electrons   175.08374987698568     
 total        electrons   196.08960455440413     
 augmentation electrons   21.005854677418451     
 soft         electrons   175.08374987698568     
 total        electrons   196.08960455440413     
 augmentation electrons   21.005854677418451     
 soft         electrons   175.08374987698568     
 total        electrons   196.08960455440413     
 augmentation electrons   21.005854677418451     
 soft         electrons   175.08374987698568     
 total        electrons   196.08960455440413     
 augmentation electrons   21.005854677418451     
 soft         electrons   175.08374987698568     
 total        electrons   196.08960455440413     
 augmentation electrons   21.005854677418451     
 soft         electrons   175.08374987698568     
 total        electrons   196.08960455440413     
 augmentation electrons   21.005854677418451     
 soft         electrons   175.08374987698568     
 total        electrons   196.08960455440413     
 augmentation electrons   21.005854677418451     
 soft         electrons   175.08374987698568     
 total        electrons   196.08960455440413     
 augmentation electrons   21.005854677418451     
 soft         electrons   175.08374987698568     
 total        electrons   196.08960455440413     
 augmentation electrons   21.005854677418451     
 soft         electrons   175.08374987698568     
 total        electrons   196.08960455440413     
 augmentation electrons   21.005854677418451     
 soft         electrons   175.08374987698568     
 total        electrons   196.08960455440413     
 augmentation electrons   21.005854677418451     
 soft         electrons   175.08374987698568     
 total        electrons   196.08960455440413     
 augmentation electrons   21.005854677418451     
 soft         electrons   175.08374987698568     
 total        electrons   196.08960455440413     
 augmentation electrons   21.005854677418451     
 soft         electrons   175.08374987698568     
 total        electrons   196.08960455440413     
 augmentation electrons   21.005854677418451     
 soft         electrons   175.08374987698568     
 total        electrons   196.08960455440413     
 augmentation electrons   21.005854677418451     
 soft         electrons   175.08374987698568     
 total        electrons   196.08960455440413     
 augmentation electrons   21.005854677418451     
 soft         electrons   175.08374987698568     
 total        electrons   196.08960455440413     
 augmentation electrons   21.005854677418451     
 soft         electrons   175.08374987698568     
 total        electrons   196.08960455440413     
 augmentation electrons   21.005854677418451     
 soft         electrons   175.08374987698568     
 total        electrons   196.08960455440413     
 augmentation electrons   21.005854677418451     
 soft         electrons   175.08374987698568     
 total        electrons   196.08960455440413     
 augmentation electrons   21.005854677418451     
 soft         electrons   175.08374987698568     
 total        electrons   196.08960455440413     
 augmentation electrons   21.005854677418451     
 soft         electrons   175.08374987698568     
 total        electrons   196.08960455440413     
 augmentation electrons   21.005854677418451     
 soft         electrons   175.08374987698568     
 total        electrons   196.08960455440413     
 augmentation electrons   21.005854677418451     
 soft         electrons   175.08374987698568     
 total        electrons   196.08960455440413     
 augmentation electrons   21.005854677418451     
 soft         electrons   175.08374987698568     
 total        electrons   196.08960455440413     
 augmentation electrons   21.005854677418451     
 soft         electrons   175.08374987698568     
 total        electrons   196.08960455440413     
 augmentation electrons   21.005854677418451     
 soft         electrons   175.08374987698568     
 total        electrons   196.08960455440413     
 augmentation electrons   21.005854677418451     
 soft         electrons   175.08374987698568     
 total        electrons   196.08960455440413     
 augmentation electrons   21.005854677418451     
 soft         electrons   175.08374987698568     
 total        electrons   196.08960455440413     
 augmentation electrons   21.005854677418451     
 soft         electrons   175.08374987698568     
 total        electrons   196.08960455440413     
 augmentation electrons   21.005854677418451     
 soft         electrons   175.08374987698568     
 total        electrons   196.08960455440413     
 augmentation electrons   21.005854677418451     
 soft         electrons   175.08374987698568     
 total        electrons   196.08960455440413     
 augmentation electrons   21.005854677418451     
 soft         electrons   175.08374987698568     
 total        electrons   196.08960455440413     
 augmentation electrons   21.005854677418451     
 soft         electrons   175.08374987698568     
 total        electrons   196.08960455440413     
 augmentation electrons   21.005854677418451     
 soft         electrons   175.08374987698568     
 total        electrons   196.08960455440413     
 augmentation electrons   21.005854677418451     
 soft         electrons   175.08374987698568     
 total        electrons   196.08960455440413     
 augmentation electrons   21.005854677418451     
 soft         electrons   175.08374987698568     
 total        electrons   196.08960455440413     
 augmentation electrons   21.005854677418451     
 soft         electrons   175.08374987698568     
 total        electrons   196.08960455440413     
 augmentation electrons   21.005854677418451     
 soft         electrons   175.08374987698568     
 total        electrons   196.08960455440413     
 augmentation electrons   21.005854677418451     
 soft         electrons   175.08374987698568     
 total        electrons   196.08960455440413     
 augmentation electrons   21.005854677418451     
 soft         electrons   175.08374987698568     
 total        electrons   196.08960455440413     
 augmentation electrons   21.005854677418451     
 soft         electrons   175.08374987698568     
 total        electrons   196.08960455440413     
 augmentation electrons   21.005854677418451     
 soft         electrons   175.08374987698568     
 total        electrons   196.08960455440413     
 augmentation electrons   21.005854677418451     
 soft         electrons   175.08374987698568     
 total        electrons   196.08960455440413     
 augmentation electrons   21.005854677418451     
 soft         electrons   175.08374987698568     
 total        electrons   196.08960455440413     
 augmentation electrons   21.005854677418451     
 soft         electrons   175.08374987698568     
 total        electrons   196.08960455440413     
 augmentation electrons   21.005854677418451     
 soft         electrons   175.08374987698568     
 total        electrons   196.08960455440413     
 augmentation electrons   21.005854677418451     
 soft         electrons   175.08374987698568     
 total        electrons   196.08960455440413     
 augmentation electrons   21.005854677418451     
 soft         electrons   175.08374987698568     
 total        electrons   196.08960455440413     
 augmentation electrons   21.005854677418451     
 soft         electrons   175.08374987698568     
 total        electrons   196.08960455440413     
 augmentation electrons   21.005854677418451     
 soft         electrons   175.08374987698568     
 total        electrons   196.08960455440413     
 augmentation electrons   21.005854677418451     
 soft         electrons   175.08374987698568     
 total        electrons   196.08960455440413     
Note: The following floating-point exceptions are signalling: IEEE_OVERFLOW_FLAG
Note: The following floating-point exceptions are signalling: IEEE_OVERFLOW_FLAG
Note: The following floating-point exceptions are signalling: IEEE_OVERFLOW_FLAG
Note: The following floating-point exceptions are signalling: IEEE_OVERFLOW_FLAG
Note: The following floating-point exceptions are signalling: IEEE_OVERFLOW_FLAG
Note: The following floating-point exceptions are signalling: IEEE_OVERFLOW_FLAG
Note: The following floating-point exceptions are signalling: IEEE_OVERFLOW_FLAG
Note: The following floating-point exceptions are signalling: IEEE_OVERFLOW_FLAG
Note: The following floating-point exceptions are signalling: IEEE_OVERFLOW_FLAG
Note: The following floating-point exceptions are signalling: IEEE_OVERFLOW_FLAG
Note: The following floating-point exceptions are signalling: IEEE_OVERFLOW_FLAG
Note: The following floating-point exceptions are signalling: IEEE_OVERFLOW_FLAG
Note: The following floating-point exceptions are signalling: IEEE_OVERFLOW_FLAG
Note: The following floating-point exceptions are signalling: IEEE_OVERFLOW_FLAG
Note: The following floating-point exceptions are signalling: IEEE_OVERFLOW_FLAG
Note: The following floating-point exceptions are signalling: IEEE_OVERFLOW_FLAG
Note: The following floating-point exceptions are signalling: IEEE_OVERFLOW_FLAG
Note: The following floating-point exceptions are signalling: IEEE_OVERFLOW_FLAG
Note: The following floating-point exceptions are signalling: IEEE_OVERFLOW_FLAG
Note: The following floating-point exceptions are signalling: IEEE_OVERFLOW_FLAG
Note: The following floating-point exceptions are signalling: IEEE_OVERFLOW_FLAG
Note: The following floating-point exceptions are signalling: IEEE_OVERFLOW_FLAG
Note: The following floating-point exceptions are signalling: IEEE_OVERFLOW_FLAG
Note: The following floating-point exceptions are signalling: IEEE_OVERFLOW_FLAG
Note: The following floating-point exceptions are signalling: IEEE_OVERFLOW_FLAG
Note: The following floating-point exceptions are signalling: IEEE_OVERFLOW_FLAG
Note: The following floating-point exceptions are signalling: IEEE_OVERFLOW_FLAG
Note: The following floating-point exceptions are signalling: IEEE_OVERFLOW_FLAG
Note: The following floating-point exceptions are signalling: IEEE_OVERFLOW_FLAG
Note: The following floating-point exceptions are signalling: IEEE_OVERFLOW_FLAG
Note: The following floating-point exceptions are signalling: IEEE_OVERFLOW_FLAG
Note: The following floating-point exceptions are signalling: IEEE_OVERFLOW_FLAG
Note: The following floating-point exceptions are signalling: IEEE_OVERFLOW_FLAG
Note: The following floating-point exceptions are signalling: IEEE_OVERFLOW_FLAG
Note: The following floating-point exceptions are signalling: IEEE_OVERFLOW_FLAG
Note: The following floating-point exceptions are signalling: IEEE_OVERFLOW_FLAG
Note: The following floating-point exceptions are signalling: IEEE_OVERFLOW_FLAG
Note: The following floating-point exceptions are signalling: IEEE_OVERFLOW_FLAG
Note: The following floating-point exceptions are signalling: IEEE_OVERFLOW_FLAG
Note: The following floating-point exceptions are signalling: IEEE_OVERFLOW_FLAG
Note: The following floating-point exceptions are signalling: IEEE_OVERFLOW_FLAG
Note: The following floating-point exceptions are signalling: IEEE_OVERFLOW_FLAG
Note: The following floating-point exceptions are signalling: IEEE_OVERFLOW_FLAG
Note: The following floating-point exceptions are signalling: IEEE_OVERFLOW_FLAG
Note: The following floating-point exceptions are signalling: IEEE_OVERFLOW_FLAG
Note: The following floating-point exceptions are signalling: IEEE_OVERFLOW_FLAG
Note: The following floating-point exceptions are signalling: IEEE_OVERFLOW_FLAG
Note: The following floating-point exceptions are signalling: IEEE_OVERFLOW_FLAG
Note: The following floating-point exceptions are signalling: IEEE_OVERFLOW_FLAG
Note: The following floating-point exceptions are signalling: IEEE_OVERFLOW_FLAG
Note: The following floating-point exceptions are signalling: IEEE_OVERFLOW_FLAG
Note: The following floating-point exceptions are signalling: IEEE_OVERFLOW_FLAG
Note: The following floating-point exceptions are signalling: IEEE_OVERFLOW_FLAG
Note: The following floating-point exceptions are signalling: IEEE_OVERFLOW_FLAG
