    3    3   60    1
  0.8144830E+01  0.3039000E-09  0.3039000E-09  0.3055000E-09  0.5000000E-15
   1.0000000000000000E-004
  CAR 
 Name                                    
     12    216     10

  0.3742002E-15  0.3742002E-15  0.3742002E-15  0.2962963E-03
    1       -6.107671   1.000000
    2        4.006292   1.000000
    3        4.006294   1.000000
    4        5.174424   1.000000
    5        6.634054   1.000000
    6        7.918643   1.000000
    7        7.918644   1.000000
    8       10.984969  -0.000000
    9       11.655163   0.000000
   10       11.655165   0.000000

  0.6666667E-01  0.3766815E-15  0.3742002E-15  0.1777778E-02
    1       -6.025131   1.000000
    2        3.758416   1.000000
    3        4.043366   1.000000
    4        5.204380   1.000000
    5        6.246659   1.000000
    6        7.892394   1.000000
    7        8.391413   1.000000
    8       10.897458  -0.000000
    9       10.982572  -0.000000
   10       11.292975  -0.000000

  0.1333333E+00  0.3754153E-15  0.3742002E-15  0.1777778E-02
    1       -5.780055   1.000000
    2        3.121634   1.000000
    3        4.145410   1.000000
    4        5.264079   1.000000
    5        5.630625   1.000000
    6        7.819202   1.000000
    7        9.246825  -0.000008
    8       10.015700  -0.000000
    9       10.270567  -0.000000
   10       12.040788   0.000000

  0.2000000E+00  0.3870416E-15  0.3742002E-15  0.1777778E-02
    1       -5.379942   1.000000
    2        2.277243   1.000000
    3        4.286363   1.000000
    4        5.068691   1.000000
    5        5.259023   1.000000
    6        7.714062   1.000000
    7        9.416189  -0.000000
    8        9.737094  -0.000000
    9       10.141138  -0.000000
   10       12.796741   0.000000

  0.2666667E+00  0.4120044E-15  0.3742002E-15  0.1777778E-02
    1       -4.836739   1.000000
    2        1.340904   1.000000
    3        4.430084   1.000000
    4        4.607664   1.000000
    5        5.089231   1.000000
    6        7.597018   1.000000
    7        9.268895  -0.000002
    8        9.395315  -0.000000
    9       10.891532  -0.000000
   10       13.207677   0.000000

  0.3333333E+00  0.4025434E-15  0.3742002E-15  0.1777778E-02
    1       -4.166356   1.000000
    2        0.367154   1.000000
    3        4.259330   1.000000
    4        4.544146   1.000000
    5        4.788072   1.000000
    6        7.488519   1.000000
    7        9.228360  -0.000025
    8        9.549439  -0.000000
    9       11.301921  -0.000000
   10       13.419396   0.000000

  0.4000000E+00  0.3732510E-15  0.3742002E-15  0.1777778E-02
    1       -3.388157   1.000000
    2       -0.614757   1.000000
    3        4.026941   1.000000
    4        4.497063   1.000000
    5        4.614322   1.000000
    6        7.405912   1.000000
    7        9.184307  -0.000298
    8       10.042876  -0.000000
    9       11.381837  -0.000000
   10       13.630720   0.000000

  0.4666667E+00  0.3915456E-15  0.3742002E-15  0.1777778E-02
    1       -2.528632   1.000000
    2       -1.576555   1.000000
    3        3.910904   1.000000
    4        4.327400   1.000000
    5        4.644938   1.000000
    6        7.361472   1.000000
    7        9.189791  -0.000225
    8       10.438587  -0.000000
    9       11.351583  -0.000000
   10       13.969208   0.000000

  0.6666667E-01  0.6666667E-01  0.3742002E-15  0.1777778E-02
    1       -5.861314   1.000000
    2        3.331936   1.000000
    3        4.092884   1.000000
    4        5.255493   1.000000
    5        5.796852   1.000000
    6        7.830791   1.000000
    7        9.016744  -0.032984
    8       10.326215  -0.000000
    9       10.344673  -0.000000
   10       11.832008   0.000000

  0.1333333E+00  0.6666667E-01  0.3742002E-15  0.3555556E-02
    1       -5.538642   1.000000
    2        2.629208   1.000000
    3        4.140655   1.000000
    4        5.267881   1.000000
    5        5.327016   1.000000
    6        7.709897   1.000000
    7        9.633836  -0.000000
    8        9.839171  -0.000000
    9        9.874192  -0.000000
   10       12.657113   0.000000

  0.2000000E+00  0.6666667E-01  0.3742002E-15  0.3555556E-02
    1       -5.066784   1.000000
    2        1.779446   1.000000
    3        4.125679   1.000000
    4        4.798038   1.000000
    5        5.370361   1.000000
    6        7.554991   1.000000
    7        9.162015  -0.000881
    8        9.582576  -0.000000
    9       10.734569  -0.000000
   10       13.283158   0.000000

  0.2666667E+00  0.6666667E-01  0.3742002E-15  0.3555556E-02
    1       -4.459682   1.000000
    2        0.857161   1.000000
    3        3.999652   1.000000
    4        4.423920   1.000000
    5        5.372947   1.000000
    6        7.393851   1.000000
    7        8.969613   0.064433
    8        9.627773  -0.000000
    9       11.382858  -0.000000
   10       13.551037   0.000000

  0.3333333E+00  0.6666667E-01  0.3742002E-15  0.3555556E-02
    1       -3.735138   1.000000
    2       -0.098976   1.000000
    3        3.802007   1.000000
    4        4.155751   1.000000
    5        5.355784   1.000000
    6        7.254003   1.000000
    7        8.974640   0.044964
    8        9.917483  -0.000000
    9       11.653060   0.000000
   10       13.730550   0.000000

  0.4000000E+00  0.6666667E-01  0.3742002E-15  0.3555556E-02
    1       -2.915476   1.000000
    2       -1.059859   1.000000
    3        3.632927   1.000000
    4        3.995365   1.000000
    5        5.336158   1.000000
    6        7.159187   1.000000
    7        9.054839  -0.028166
    8       10.259759  -0.000000
    9       11.674615   0.000000
   10       14.002240   0.000000

  0.4666667E+00  0.6666667E-01  0.3742002E-15  0.1777778E-02
    1       -2.126202   1.000000
    2       -1.896655   1.000000
    3        3.568291   1.000000
    4        3.942086   1.000000
    5        5.327515   1.000000
    6        7.125647   1.000000
    7        9.097577  -0.010395
    8       10.413829  -0.000000
    9       11.658239   0.000000
   10       14.318875   0.000000

  0.1333333E+00  0.1333333E+00  0.3742002E-15  0.1777778E-02
    1       -5.144082   1.000000
    2        1.982829   1.000000
    3        3.929091   1.000000
    4        4.884074   1.000000
    5        5.502082   1.000000
    6        7.491526   1.000000
    7        9.142841  -0.002043
    8        9.640692  -0.000000
    9       10.720907  -0.000000
   10       13.538660   0.000000

  0.2000000E+00  0.1333333E+00  0.3742002E-15  0.3555556E-02
    1       -4.607937   1.000000
    2        1.232172   1.000000
    3        3.554173   1.000000
    4        4.558418   1.000000
    5        5.751854   1.000000
    6        7.218805   1.000000
    7        8.719249   1.011975
    8        9.744725  -0.000000
    9       11.587411  -0.000000
   10       14.101936   0.000000

  0.2666667E+00  0.1333333E+00  0.3742002E-15  0.3555556E-02
    1       -3.946155   1.000000
    2        0.399642   1.000000
    3        3.152828   1.000000
    4        4.316629   1.000000
    5        5.968453   1.000000
    6        6.948803   1.000000
    7        8.549363   1.000003
    8        9.965462  -0.000000
    9       12.206124   0.000000
   10       14.253327   0.000000

  0.3333333E+00  0.1333333E+00  0.3742002E-15  0.3555556E-02
    1       -3.179798   1.000000
    2       -0.490444   1.000000
    3        2.838034   1.000000
    4        4.161609   1.000000
    5        6.076136   1.000000
    6        6.733309   1.000000
    7        8.645104   1.000702
    8       10.132491  -0.000000
    9       12.411752   0.000000
   10       14.459751   0.000000

  0.4000000E+00  0.1333333E+00  0.3742002E-15  0.3555556E-02
    1       -2.344383   1.000000
    2       -1.392491   1.000000
    3        2.669655   1.000000
    4        4.087141   1.000000
    5        6.101567   1.000000
    6        6.613744   1.000000
    7        8.825655   0.990925
    8       10.169980  -0.000000
    9       12.423887   0.000000
   10       14.830916   0.000000

  0.2000000E+00  0.2000000E+00  0.3742002E-15  0.1777778E-02
    1       -4.016913   1.000000
    2        0.643401   1.000000
    3        2.856974   1.000000
    4        4.395290   1.000000
    5        6.225580   1.000000
    6        6.801474   1.000000
    7        8.333327   1.000000
    8        9.995986  -0.000000
    9       12.530797   0.000000
   10       14.239691   0.000000

  0.2666667E+00  0.2000000E+00  0.3742002E-15  0.3555556E-02
    1       -3.313187   1.000000
    2       -0.024353   1.000000
    3        2.251182   1.000000
    4        4.315954   1.000000
    5        6.401841   1.000000
    6        6.635867   1.000000
    7        8.184809   1.000000
    8       10.096151  -0.000000
    9       13.213948   0.000000
   10       14.377149   0.000000

  0.3333333E+00  0.2000000E+00  0.3742002E-15  0.3555556E-02
    1       -2.527908   1.000000
    2       -0.791352   1.000000
    3        1.866469   1.000000
    4        4.298412   1.000000
    5        6.108136   1.000000
    6        6.825292   1.000000
    7        8.368128   1.000000
    8        9.947997  -0.000000
    9       13.358740   0.000000
   10       14.958414   0.000000

  0.4000000E+00  0.2000000E+00  0.3742002E-15  0.1777778E-02
    1       -1.851835   1.000000
    2       -1.465484   1.000000
    3        1.738714   1.000000
    4        4.300838   1.000000
    5        5.998176   1.000000
    6        6.856472   1.000000
    7        8.563540   1.000007
    8        9.788429  -0.000000
    9       13.358865   0.000000
   10       15.271020   0.000000

  0.2666667E+00  0.2666667E+00  0.3742002E-15  0.1777778E-02
    1       -2.590227   1.000000
    2       -0.467422   1.000000
    3        1.473372   1.000000
    4        4.421048   1.000000
    5        5.877379   1.000000
    6        7.290650   1.000000
    7        7.976043   1.000000
    8        9.871420  -0.000000
    9       14.191872   0.000000
   10       14.317428   0.000000

  0.3333333E+00  0.2666667E+00  0.3742002E-15  0.3555556E-02
    1       -1.845175   1.000000
    2       -1.019018   1.000000
    3        1.021565   1.000000
    4        4.572442   1.000000
    5        5.501940   1.000000
    6        7.572916   1.000000
    7        8.186849   1.000000
    8        9.438140  -0.000000
    9       14.237873   0.000000
   10       14.923823   0.000000

  0.3333333E+00  0.3333333E+00  0.3742002E-15  0.5925926E-03
    1       -1.300358   1.000000
    2       -1.300355   1.000000
    3        0.625477   1.000000
    4        4.978996   1.000000
    5        4.978998   1.000000
    6        8.082809   1.000000
    7        8.082810   1.000000
    8        9.027390  -0.035439
    9       14.763264   0.000000
   10       14.763265   0.000000

  0.3742002E-15  0.3742002E-15  0.6666667E-01  0.5925926E-03
    1       -6.044720   1.000000
    2        4.059664   1.000000
    3        4.059667   1.000000
    4        4.838240   1.000000
    5        6.874303   1.000000
    6        7.701043   1.000000
    7        7.701045   1.000000
    8       11.024288  -0.000000
    9       11.499242  -0.000000
   10       11.499245  -0.000000

  0.6666667E-01  0.3766815E-15  0.6666667E-01  0.3555556E-02
    1       -5.963180   1.000000
    2        3.806819   1.000000
    3        4.091281   1.000000
    4        4.853477   1.000000
    5        6.420947   1.000000
    6        7.670810   1.000000
    7        8.245140   1.000000
    8       10.958302  -0.000000
    9       11.039161  -0.000000
   10       11.335762  -0.000000

  0.1333333E+00  0.3754153E-15  0.6666667E-01  0.3555556E-02
    1       -5.721160   1.000000
    2        3.157216   1.000000
    3        4.175107   1.000000
    4        4.857925   1.000000
    5        5.844244   1.000000
    6        7.597092   1.000000
    7        9.051491  -0.029607
    8       10.237120  -0.000000
    9       10.434824  -0.000000
   10       12.077636   0.000000

  0.2000000E+00  0.3870416E-15  0.6666667E-01  0.3555556E-02
    1       -5.326226   1.000000
    2        2.297431   1.000000
    3        4.280848   1.000000
    4        4.738791   1.000000
    5        5.425935   1.000000
    6        7.523483   1.000000
    7        9.373376  -0.000000
    8        9.952814  -0.000000
    9       10.214430  -0.000000
   10       12.790165   0.000000

  0.2666667E+00  0.4120044E-15  0.6666667E-01  0.3555556E-02
    1       -4.790482   1.000000
    2        1.348859   1.000000
    3        4.370582   1.000000
    4        4.478807   1.000000
    5        5.119864   1.000000
    6        7.495868   1.000000
    7        9.311629  -0.000000
    8        9.604518  -0.000000
    9       10.784409  -0.000000
   10       13.200650   0.000000

  0.3333333E+00  0.4025434E-15  0.6666667E-01  0.3555556E-02
    1       -4.129916   1.000000
    2        0.369682   1.000000
    3        4.218290   1.000000
    4        4.420354   1.000000
    5        4.806867   1.000000
    6        7.527830   1.000000
    7        9.378797  -0.000000
    8        9.553246  -0.000000
    9       11.088350  -0.000000
   10       13.616307   0.000000

  0.4000000E+00  0.3732510E-15  0.6666667E-01  0.3555556E-02
    1       -3.364295   1.000000
    2       -0.609242   1.000000
    3        4.034155   1.000000
    4        4.434090   1.000000
    5        4.525093   1.000000
    6        7.588180   1.000000
    7        9.257868  -0.000004
    8        9.952380  -0.000000
    9       11.194619  -0.000000
   10       13.966784   0.000000

  0.4666667E+00  0.3915456E-15  0.6666667E-01  0.3555556E-02
    1       -2.525438   1.000000
    2       -1.554692   1.000000
    3        3.943441   1.000000
    4        4.359052   1.000000
    5        4.432694   1.000000
    6        7.631141   1.000000
    7        9.212231  -0.000066
    8       10.210336  -0.000000
    9       11.317703  -0.000000
   10       14.171802   0.000000

  0.6666667E-01  0.6666667E-01  0.6666667E-01  0.3555556E-02
    1       -5.801390   1.000000
    2        3.374124   1.000000
    3        4.124059   1.000000
    4        4.863824   1.000000
    5        6.005933   1.000000
    6        7.590455   1.000000
    7        8.865786   0.811725
    8       10.469898  -0.000000
    9       10.506830  -0.000000
   10       11.874352   0.000000

  0.1333333E+00  0.6666667E-01  0.6666667E-01  0.7111111E-02
    1       -5.482837   1.000000
    2        2.660188   1.000000
    3        4.129961   1.000000
    4        4.806789   1.000000
    5        5.653646   1.000000
    6        7.452106   1.000000
    7        9.500170  -0.000000
    8        9.943308  -0.000000
    9       10.162841  -0.000000
   10       12.686411   0.000000

  0.2000000E+00  0.6666667E-01  0.6666667E-01  0.7111111E-02
    1       -5.017331   1.000000
    2        1.796356   1.000000
    3        4.056834   1.000000
    4        4.624553   1.000000
    5        5.481116   1.000000
    6        7.337065   1.000000
    7        9.347032  -0.000000
    8        9.706055  -0.000000
    9       10.667161  -0.000000
   10       13.252630   0.000000

  0.2666667E+00  0.6666667E-01  0.6666667E-01  0.7111111E-02
    1       -4.418918   1.000000
    2        0.863497   1.000000
    3        3.899627   1.000000
    4        4.393378   1.000000
    5        5.364770   1.000000
    6        7.312185   1.000000
    7        9.192317  -0.000197
    8        9.675162  -0.000000
    9       11.190758  -0.000000
   10       13.601235   0.000000

  0.3333333E+00  0.6666667E-01  0.6666667E-01  0.7111111E-02
    1       -3.705592   1.000000
    2       -0.095347   1.000000
    3        3.723586   1.000000
    4        4.177876   1.000000
    5        5.242522   1.000000
    6        7.369515   1.000000
    7        9.122727  -0.004489
    8        9.898652  -0.000000
    9       11.402449  -0.000000
   10       14.032358   0.000000

  0.4000000E+00  0.6666667E-01  0.6666667E-01  0.7111111E-02
    1       -2.900926   1.000000
    2       -1.048954   1.000000
    3        3.591987   1.000000
    4        4.026600   1.000000
    5        5.146277   1.000000
    6        7.435277   1.000000
    7        9.113865  -0.006150
    8       10.164051  -0.000000
    9       11.496419  -0.000000
   10       14.267401   0.000000

  0.4666667E+00  0.6666667E-01  0.6666667E-01  0.3555556E-02
    1       -2.166373   1.000000
    2       -1.833380   1.000000
    3        3.543398   1.000000
    4        3.973104   1.000000
    5        5.110334   1.000000
    6        7.460383   1.000000
    7        9.121596  -0.004678
    8       10.267806  -0.000000
    9       11.554345  -0.000000
   10       14.381749   0.000000

  0.1333333E+00  0.1333333E+00  0.6666667E-01  0.3555556E-02
    1       -5.093580   1.000000
    2        2.009192   1.000000
    3        3.848191   1.000000
    4        4.673836   1.000000
    5        5.709637   1.000000
    6        7.171928   1.000000
    7        9.439677  -0.000000
    8        9.691311  -0.000000
    9       10.658274  -0.000000
   10       13.520696   0.000000

  0.2000000E+00  0.1333333E+00  0.6666667E-01  0.7111111E-02
    1       -4.565085   1.000000
    2        1.248546   1.000000
    3        3.454793   1.000000
    4        4.488122   1.000000
    5        5.872054   1.000000
    6        6.928736   1.000000
    7        9.058665  -0.026449
    8        9.794596  -0.000000
    9       11.410801  -0.000000
   10       13.896516   0.000000

  0.2666667E+00  0.1333333E+00  0.6666667E-01  0.7111111E-02
    1       -3.913453   1.000000
    2        0.406480   1.000000
    3        3.085707   1.000000
    4        4.304458   1.000000
    5        5.876465   1.000000
    6        6.923868   1.000000
    7        8.837454   0.954695
    8        9.981053  -0.000000
    9       11.930209   0.000000
   10       14.125417   0.000000

  0.3333333E+00  0.1333333E+00  0.6666667E-01  0.7111111E-02
    1       -3.160274   1.000000
    2       -0.484704   1.000000
    3        2.810453   1.000000
    4        4.169951   1.000000
    5        5.729901   1.000000
    6        7.081712   1.000000
    7        8.804950   1.026183
    8       10.121256  -0.000000
    9       12.129890   0.000000
   10       14.496670   0.000000

  0.4000000E+00  0.1333333E+00  0.6666667E-01  0.7111111E-02
    1       -2.347160   1.000000
    2       -1.371082   1.000000
    3        2.665016   1.000000
    4        4.102398   1.000000
    5        5.618284   1.000000
    6        7.180976   1.000000
    7        8.886783   0.659345
    8       10.148810  -0.000000
    9       12.196802   0.000000
   10       14.620376   0.000000

  0.2000000E+00  0.2000000E+00  0.6666667E-01  0.3555556E-02
    1       -3.983194   1.000000
    2        0.655087   1.000000
    3        2.786731   1.000000
    4        4.365468   1.000000
    5        6.375979   1.000000
    6        6.463708   1.000000
    7        8.709307   1.008883
    8       10.019526  -0.000000
    9       12.257087   0.000000
   10       13.953787   0.000000

  0.2666667E+00  0.2000000E+00  0.6666667E-01  0.7111111E-02
    1       -3.291544   1.000000
    2       -0.020301   1.000000
    3        2.227164   1.000000
    4        4.298436   1.000000
    5        6.029491   1.000000
    6        6.889858   1.000000
    7        8.496617   1.000000
    8       10.106289  -0.000000
    9       12.882082   0.000000
   10       14.105710   0.000000

  0.3333333E+00  0.2000000E+00  0.6666667E-01  0.7111111E-02
    1       -2.522489   1.000000
    2       -0.786068   1.000000
    3        1.877017   1.000000
    4        4.286121   1.000000
    5        5.722605   1.000000
    6        7.231998   1.000000
    7        8.526639   1.000001
    8        9.966205  -0.000000
    9       13.083248   0.000000
   10       14.559417   0.000000

  0.4000000E+00  0.2000000E+00  0.6666667E-01  0.3555556E-02
    1       -1.884458   1.000000
    2       -1.427021   1.000000
    3        1.761039   1.000000
    4        4.291193   1.000000
    5        5.607850   1.000000
    6        7.327818   1.000000
    7        8.644564   1.000684
    8        9.822005  -0.000000
    9       13.114331   0.000000
   10       14.792384   0.000000

  0.2666667E+00  0.2666667E+00  0.6666667E-01  0.3555556E-02
    1       -2.582910   1.000000
    2       -0.471244   1.000000
    3        1.493110   1.000000
    4        4.388575   1.000000
    5        5.650411   1.000000
    6        7.427457   1.000000
    7        8.272686   1.000000
    8        9.895088  -0.000000
    9       13.825461   0.000000
   10       14.102674   0.000000

  0.3333333E+00  0.2666667E+00  0.6666667E-01  0.7111111E-02
    1       -1.857494   1.000000
    2       -1.022292   1.000000
    3        1.071396   1.000000
    4        4.527143   1.000000
    5        5.317647   1.000000
    6        7.805670   1.000000
    7        8.341370   1.000000
    8        9.486408  -0.000000
    9       14.003851   0.000000
   10       14.622687   0.000000

  0.3333333E+00  0.3333333E+00  0.6666667E-01  0.1185185E-02
    1       -1.319857   1.000000
    2       -1.319854   1.000000
    3        0.702835   1.000000
    4        4.882457   1.000000
    5        4.882459   1.000000
    6        8.258061   1.000000
    7        8.258062   1.000000
    8        9.082907  -0.015648
    9       14.534269   0.000000
   10       14.534270   0.000000

  0.3742002E-15  0.3742002E-15  0.1333333E+00  0.5925926E-03
    1       -5.859567   1.000000
    2        4.107574   1.000000
    3        4.219304   1.000000
    4        4.219306   1.000000
    5        7.198196   1.000000
    6        7.198197   1.000000
    7        7.364611   1.000000
    8       11.063558  -0.000000
    9       11.063560  -0.000000
   10       11.141662  -0.000000

  0.6666667E-01  0.3766815E-15  0.1333333E+00  0.3555556E-02
    1       -5.781145   1.000000
    2        3.943903   1.000000
    3        4.129353   1.000000
    4        4.232175   1.000000
    5        6.574644   1.000000
    6        7.172640   1.000000
    7        8.074551   1.000000
    8       10.828441  -0.000000
    9       10.929057  -0.000000
   10       11.459531  -0.000000

  0.1333333E+00  0.3754153E-15  0.1333333E+00  0.3555556E-02
    1       -5.548526   1.000000
    2        3.249817   1.000000
    3        4.170133   1.000000
    4        4.254849   1.000000
    5        6.007478   1.000000
    6        7.135827   1.000000
    7        8.806521   1.024578
    8       10.446386  -0.000000
    9       10.648351  -0.000000
   10       12.213203   0.000000

  0.2000000E+00  0.3870416E-15  0.1333333E+00  0.3555556E-02
    1       -5.169664   1.000000
    2        2.346356   1.000000
    3        4.192834   1.000000
    4        4.250905   1.000000
    5        5.552095   1.000000
    6        7.173366   1.000000
    7        9.188127  -0.000245
    8       10.345012  -0.000000
    9       10.443364  -0.000000
   10       12.787965   0.000000

  0.2666667E+00  0.4120044E-15  0.1333333E+00  0.3555556E-02
    1       -4.657056   1.000000
    2        1.369649   1.000000
    3        4.167757   1.000000
    4        4.196727   1.000000
    5        5.171080   1.000000
    6        7.345065   1.000000
    7        9.266946  -0.000002
    8       10.049809  -0.000000
    9       10.764062  -0.000000
   10       12.986538   0.000000

  0.3333333E+00  0.4025434E-15  0.1333333E+00  0.3555556E-02
    1       -4.027392   1.000000
    2        0.383355   1.000000
    3        4.106968   1.000000
    4        4.110078   1.000000
    5        4.840639   1.000000
    6        7.639866   1.000000
    7        9.427165  -0.000000
    8        9.765069  -0.000000
    9       10.919715  -0.000000
   10       13.411372   0.000000

  0.4000000E+00  0.3732510E-15  0.1333333E+00  0.3555556E-02
    1       -3.302935   1.000000
    2       -0.578303   1.000000
    3        4.019311   1.000000
    4        4.058569   1.000000
    5        4.577704   1.000000
    6        7.985859   1.000000
    7        9.495224  -0.000000
    8        9.609499  -0.000000
    9       11.073219  -0.000000
   10       13.781891   0.000000

  0.4666667E+00  0.3915456E-15  0.1333333E+00  0.3555556E-02
    1       -2.541066   1.000000
    2       -1.457936   1.000000
    3        3.966919   1.000000
    4        4.035311   1.000000
    5        4.425488   1.000000
    6        8.258132   1.000000
    7        9.286732  -0.000001
    8        9.676377  -0.000000
    9       11.334987  -0.000000
   10       13.660878   0.000000

  0.6666667E-01  0.6666667E-01  0.1333333E+00  0.3555556E-02
    1       -5.625617   1.000000
    2        3.496838   1.000000
    3        4.068182   1.000000
    4        4.293470   1.000000
    5        6.203882   1.000000
    6        7.074712   1.000000
    7        8.663401   1.001601
    8       10.523209  -0.000000
    9       10.715065  -0.000000
   10       12.007964   0.000000

  0.1333333E+00  0.6666667E-01  0.1333333E+00  0.7111111E-02
    1       -5.319829   1.000000
    2        2.744928   1.000000
    3        3.947300   1.000000
    4        4.358090   1.000000
    5        5.893961   1.000000
    6        6.955045   1.000000
    7        9.255831  -0.000004
    8       10.211089  -0.000000
    9       10.518647  -0.000000
   10       12.807201   0.000000

  0.2000000E+00  0.6666667E-01  0.1333333E+00  0.7111111E-02
    1       -4.873955   1.000000
    2        1.840205   1.000000
    3        3.798796   1.000000
    4        4.363282   1.000000
    5        5.605262   1.000000
    6        7.004670   1.000000
    7        9.417487  -0.000000
    8       10.064133  -0.000000
    9       10.688365  -0.000000
   10       13.120242   0.000000

  0.2666667E+00  0.6666667E-01  0.1333333E+00  0.7111111E-02
    1       -4.302616   1.000000
    2        0.883133   1.000000
    3        3.649671   1.000000
    4        4.295514   1.000000
    5        5.296363   1.000000
    6        7.261601   1.000000
    7        9.465091  -0.000000
    8        9.871187  -0.000000
    9       10.994149  -0.000000
   10       13.300545   0.000000

  0.3333333E+00  0.6666667E-01  0.1333333E+00  0.7111111E-02
    1       -3.624866   1.000000
    2       -0.075698   1.000000
    3        3.528276   1.000000
    4        4.187885   1.000000
    5        5.018325   1.000000
    6        7.636537   1.000000
    7        9.484091  -0.000000
    8        9.776382  -0.000000
    9       11.133320  -0.000000
   10       13.693123   0.000000

  0.4000000E+00  0.6666667E-01  0.1333333E+00  0.7111111E-02
    1       -2.871462   1.000000
    2       -0.997848   1.000000
    3        3.450620   1.000000
    4        4.095590   1.000000
    5        4.829241   1.000000
    6        8.003450   1.000000
    7        9.304189  -0.000000
    8        9.844017  -0.000000
    9       11.321095  -0.000000
   10       13.797098   0.000000

  0.4666667E+00  0.6666667E-01  0.1333333E+00  0.3555556E-02
    1       -2.277606   1.000000
    2       -1.647812   1.000000
    3        3.423961   1.000000
    4        4.060193   1.000000
    5        4.762731   1.000000
    6        8.178110   1.000000
    7        9.189972  -0.000222
    8        9.867846  -0.000000
    9       11.459043  -0.000000
   10       13.700551   0.000000

  0.1333333E+00  0.1333333E+00  0.1333333E+00  0.3555556E-02
    1       -4.946940   1.000000
    2        2.083718   1.000000
    3        3.555715   1.000000
    4        4.396115   1.000000
    5        6.057623   1.000000
    6        6.587707   1.000000
    7        9.694971  -0.000000
    8        9.872405  -0.000000
    9       10.678511  -0.000000
   10       13.498727   0.000000

  0.2000000E+00  0.1333333E+00  0.1333333E+00  0.7111111E-02
    1       -4.442064   1.000000
    2        1.293762   1.000000
    3        3.191942   1.000000
    4        4.353454   1.000000
    5        5.947814   1.000000
    6        6.635671   1.000000
    7        9.592189  -0.000000
    8        9.898023  -0.000000
    9       11.148073  -0.000000
   10       13.486273   0.000000

  0.2666667E+00  0.1333333E+00  0.1333333E+00  0.7111111E-02
    1       -3.822019   1.000000
    2        0.428180   1.000000
    3        2.915644   1.000000
    4        4.267711   1.000000
    5        5.557387   1.000000
    6        7.100272   1.000000
    7        9.404249  -0.000000
    8        9.997171  -0.000000
    9       11.516049  -0.000000
   10       13.563795   0.000000

  0.3333333E+00  0.1333333E+00  0.1333333E+00  0.7111111E-02
    1       -3.110782   1.000000
    2       -0.458795   1.000000
    3        2.731228   1.000000
    4        4.188029   1.000000
    5        5.241318   1.000000
    6        7.600981   1.000000
    7        9.224673  -0.000032
    8       10.057977  -0.000000
    9       11.694014   0.000000
   10       13.817077   0.000000

  0.4000000E+00  0.1333333E+00  0.1333333E+00  0.7111111E-02
    1       -2.373062   1.000000
    2       -1.287296   1.000000
    3        2.638254   1.000000
    4        4.145722   1.000000
    5        5.066622   1.000000
    6        7.973261   1.000000
    7        9.067461  -0.022392
    8       10.059751  -0.000000
    9       11.812943   0.000000
   10       13.898404   0.000000

  0.2000000E+00  0.2000000E+00  0.1333333E+00  0.3555556E-02
    1       -3.888300   1.000000
    2        0.686592   1.000000
    3        2.611290   1.000000
    4        4.299208   1.000000
    5        5.879373   1.000000
    6        6.757349   1.000000
    7        9.365890  -0.000000
    8       10.071525  -0.000000
    9       11.789347   0.000000
   10       13.464833   0.000000

  0.2666667E+00  0.2000000E+00  0.1333333E+00  0.7111111E-02
    1       -3.233510   1.000000
    2       -0.008722   1.000000
    3        2.171039   1.000000
    4        4.259742   1.000000
    5        5.492137   1.000000
    6        7.299615   1.000000
    7        9.136799  -0.002615
    8       10.131174  -0.000000
    9       12.317042   0.000000
   10       13.571497   0.000000
