 running on    4 total cores
 distrk:  each k-point on    4 cores,    1 groups
 distr:  one band on    2 cores,    2 groups
 using from now: INCAR     
 vasp.5.4.4.18Apr17-6-g9f103f2a35 (build Dec  7 2020 12:43:57) complex           
 POSCAR found type information on POSCAR  Mo B 
 POSCAR found :  2 types and       3 ions
 scaLAPACK will be used
 LDA part: xc-table for Pade appr. of Perdew
 POSCAR, INCAR and KPOINTS ok, starting setup
 FFT: planning ...
 WAVECAR not read
 augmentation electrons   12.018373587906812     
 soft         electrons   0.0000000000000000     
 augmentation electrons   12.018373587906812     
 augmentation electrons   12.018373587906812     
 soft         electrons   0.0000000000000000     
 augmentation electrons   12.018373587906812     
 soft         electrons   0.0000000000000000     
 soft         electrons   0.0000000000000000     
 total        electrons   12.018373587906812     
 total        electrons   12.018373587906812     
 total        electrons   12.018373587906812     
 total        electrons   12.018373587906812     
 augmentation electrons   169.75791458332097     
 soft         electrons   0.0000000000000000     
 augmentation electrons   169.75791458332097     
 soft         electrons   0.0000000000000000     
 augmentation electrons   169.75791458332097     
 soft         electrons   0.0000000000000000     
 augmentation electrons   169.75791458332097     
 soft         electrons   0.0000000000000000     
 total        electrons   169.75791458332097     
 total        electrons   169.75791458332097     
 total        electrons   169.75791458332097     
 total        electrons   169.75791458332097     
 entering main loop
       N       E                     dE             d eps       ncg     rms          rms(c)
DAV:   1     0.466139570932E+02    0.46614E+02   -0.56684E+03  4320   0.105E+03
DAV:   2    -0.820009760859E+01   -0.54814E+02   -0.51979E+02  5108   0.216E+02
DAV:   3    -0.103246197670E+02   -0.21245E+01   -0.20326E+01  6030   0.382E+01
DAV:   4    -0.103508387053E+02   -0.26219E-01   -0.26013E-01  5512   0.329E+00
DAV:   5    -0.103511936190E+02   -0.35491E-03   -0.35474E-03  5554   0.294E-01    0.315E+01
RMM:   6    -0.864639754127E+01    0.17048E+01   -0.68361E+00  4329   0.181E+01    0.975E+00
RMM:   7    -0.889620222884E+01   -0.24980E+00   -0.43600E-01  4331   0.538E+00    0.545E+00
RMM:   8    -0.906701550548E+01   -0.17081E+00   -0.55553E-01  4320   0.104E+01    0.304E+00
RMM:   9    -0.906047767908E+01    0.65378E-02   -0.11046E-01  4326   0.273E+00    0.120E+00
RMM:  10    -0.906236863157E+01   -0.18910E-02   -0.13377E-02  4322   0.123E+00    0.241E-01
RMM:  11    -0.906663620272E+01   -0.42676E-02   -0.14005E-02  4320   0.136E+00    0.374E-01
RMM:  12    -0.906801922822E+01   -0.13830E-02   -0.11415E-02  4320   0.116E+00    0.243E-01
RMM:  13    -0.906786958865E+01    0.14964E-03   -0.21553E-03  4320   0.568E-01    0.419E-02
RMM:  14    -0.906794357848E+01   -0.73990E-04   -0.59128E-04  4322   0.367E-01    0.221E-02
RMM:  15    -0.906794792375E+01   -0.43453E-05   -0.43757E-05  4327   0.970E-02    0.131E-02
RMM:  16    -0.906795446810E+01   -0.65444E-05   -0.51662E-05  4320   0.103E-01    0.798E-03
RMM:  17    -0.906795498362E+01   -0.51552E-06   -0.57231E-06  4029   0.323E-02
   1 F= -.90679550E+01 E0= -.90678585E+01  d E =-.906795E+01
 curvature:   0.00 expect dE= 0.000E+00 dE for cont linesearch  0.000E+00
 trial: gam= 0.00000 g(F)=  0.958E-43 g(S)=  0.403E+01 ort = 0.000E+00 (trialstep = 0.100E+01)
 search vector abs. value=  0.403E+01
 bond charge predicted
       N       E                     dE             d eps       ncg     rms          rms(c)
DAV:   1    -0.120355295572E+02   -0.29676E+01   -0.94699E+01  4384   0.843E+01    0.230E+01
RMM:   2    -0.956332055675E+01    0.24722E+01   -0.13269E+01  4322   0.239E+01    0.931E+00
RMM:   3    -0.892132630829E+01    0.64199E+00   -0.76045E-01  4321   0.699E+00    0.790E+00
RMM:   4    -0.901566909269E+01   -0.94343E-01   -0.10609E+00  4322   0.839E+00    0.180E+00
RMM:   5    -0.896598079613E+01    0.49688E-01   -0.22659E-01  4337   0.303E+00    0.686E-01
RMM:   6    -0.896087045756E+01    0.51103E-02   -0.15093E-02  4339   0.128E+00    0.213E-01
RMM:   7    -0.896226917516E+01   -0.13987E-02   -0.11108E-02  4327   0.910E-01    0.128E-01
RMM:   8    -0.896305590967E+01   -0.78673E-03   -0.22613E-03  4337   0.560E-01    0.856E-02
RMM:   9    -0.896509957666E+01   -0.20437E-02   -0.59695E-03  4329   0.100E+00    0.622E-02
RMM:  10    -0.896660028127E+01   -0.15007E-02   -0.21697E-02  4332   0.196E+00    0.283E-02
RMM:  11    -0.896654879546E+01    0.51486E-04   -0.15754E-03  4332   0.574E-01    0.207E-02
RMM:  12    -0.896668621381E+01   -0.13742E-03   -0.49506E-04  4423   0.263E-01    0.112E-02
RMM:  13    -0.896671140148E+01   -0.25188E-04   -0.10169E-04  4451   0.940E-02    0.828E-03
RMM:  14    -0.896673787728E+01   -0.26476E-04   -0.12849E-04  4331   0.148E-01    0.385E-03
RMM:  15    -0.896674226299E+01   -0.43857E-05   -0.26977E-05  4340   0.494E-02    0.210E-03
RMM:  16    -0.896674483627E+01   -0.25733E-05   -0.15121E-05  4168   0.481E-02    0.106E-03
RMM:  17    -0.896674535950E+01   -0.52323E-06   -0.56809E-06  3802   0.261E-02
   2 F= -.89667454E+01 E0= -.89669962E+01  d E =0.101210E+00
 trial-energy change:    0.101210  1 .order   -0.443363   -4.028524    3.141798
 step:   0.4491(harm=  0.5618)  dis= 0.00000  next Energy=    -9.923219 (dE=-0.855E+00)
 bond charge predicted
       N       E                     dE             d eps       ncg     rms          rms(c)
DAV:   1    -0.105726537942E+02   -0.16059E+01   -0.29963E+01  4348   0.526E+01    0.123E+01
RMM:   2    -0.989405200442E+01    0.67860E+00   -0.13239E+00  4320   0.899E+00    0.307E+00
RMM:   3    -0.984769017407E+01    0.46362E-01   -0.17360E-01  4332   0.278E+00    0.138E+00
RMM:   4    -0.985351289894E+01   -0.58227E-02   -0.10483E-01  4320   0.251E+00    0.415E-01
RMM:   5    -0.985853216862E+01   -0.50193E-02   -0.10618E-02  4349   0.877E-01    0.178E-01
RMM:   6    -0.985986058187E+01   -0.13284E-02   -0.29370E-03  4325   0.653E-01    0.132E-01
RMM:   7    -0.986190995317E+01   -0.20494E-02   -0.97013E-03  4321   0.120E+00    0.122E-01
RMM:   8    -0.986165576859E+01    0.25418E-03   -0.28571E-04  4412   0.138E-01    0.922E-02
RMM:   9    -0.986181041972E+01   -0.15465E-03   -0.60643E-04  4323   0.349E-01    0.706E-02
RMM:  10    -0.986182314584E+01   -0.12726E-04   -0.10294E-03  4326   0.405E-01    0.149E-02
RMM:  11    -0.986183259592E+01   -0.94501E-05   -0.11728E-04  4399   0.102E-01    0.673E-03
RMM:  12    -0.986183337967E+01   -0.78375E-06   -0.56607E-06  3918   0.296E-02
   3 F= -.98618334E+01 E0= -.98615240E+01  d E =-.793878E+00
 curvature:  -0.26 expect dE=-0.226E-02 dE for cont linesearch -0.112E-02
 ZBRENT: interpolating
 opt :   0.4349  next Energy=    -9.862763 (dE=-0.795E+00)
 bond charge predicted
       N       E                     dE             d eps       ncg     rms          rms(c)
DAV:   1    -0.986333188736E+01   -0.14993E-02   -0.19596E-02  4702   0.135E+00    0.385E-01
RMM:   2    -0.986288555859E+01    0.44633E-03   -0.10796E-03  4320   0.246E-01    0.114E-01
RMM:   3    -0.986286541223E+01    0.20146E-04   -0.95929E-05  4330   0.738E-02    0.701E-02
RMM:   4    -0.986287755627E+01   -0.12144E-04   -0.75841E-05  4320   0.742E-02    0.182E-02
RMM:   5    -0.986288141647E+01   -0.38602E-05   -0.89050E-06  3946   0.275E-02    0.525E-03
RMM:   6    -0.986288096776E+01    0.44871E-06   -0.59249E-06  4007   0.253E-02
   4 F= -.98628810E+01 E0= -.98625741E+01  d E =-.794926E+00
 curvature:  -0.22 expect dE=-0.911E-03 dE for cont linesearch -0.362E-04
 ZBRENT: interpolating
 opt :   0.4315  next Energy=    -9.862926 (dE=-0.795E+00)
 bond charge predicted
       N       E                     dE             d eps       ncg     rms          rms(c)
DAV:   1    -0.986295204366E+01   -0.70627E-04   -0.11739E-03  4520   0.329E-01    0.962E-02
RMM:   2    -0.986292266761E+01    0.29376E-04   -0.74090E-05  4319   0.643E-02    0.268E-02
RMM:   3    -0.986292218133E+01    0.48628E-06   -0.57912E-06  4033   0.180E-02    0.167E-02
RMM:   4    -0.986292381387E+01   -0.16325E-05   -0.47494E-06  3886   0.184E-02    0.431E-03
RMM:   5    -0.986292422975E+01   -0.41588E-06   -0.56936E-07  2457   0.719E-03
   5 F= -.98629242E+01 E0= -.98626215E+01  d E =-.794969E+00
 curvature:  -0.27 expect dE=-0.108E-02 dE for cont linesearch -0.130E-06
 ZBRENT: interpolating
 opt :   0.4316  next Energy=    -9.862924 (dE=-0.795E+00)
 bond charge predicted
       N       E                     dE             d eps       ncg     rms          rms(c)
DAV:   1    -0.986292419642E+01   -0.38254E-06   -0.27962E-06  5068   0.168E-02    0.427E-03
RMM:   2    -0.986292411280E+01    0.83615E-07   -0.45807E-08  1669   0.226E-03    0.236E-03
RMM:   3    -0.986292401204E+01    0.10076E-06   -0.62701E-08  1912   0.270E-03    0.110E-03
RMM:   4    -0.986292396829E+01    0.43750E-07   -0.84387E-09   616   0.159E-03    0.290E-04
RMM:   5    -0.986292397071E+01   -0.24183E-08   -0.11550E-08   639   0.174E-03
   6 F= -.98629240E+01 E0= -.98626213E+01  d E =-.794969E+00
 curvature:  -0.26 expect dE=-0.102E-02 dE for cont linesearch -0.114E-07
 trial: gam= 0.00109 g(F)=  0.967E-44 g(S)=  0.397E-02 ort =-0.423E-03 (trialstep = 0.886E+00)
 search vector abs. value=  0.398E-02
 bond charge predicted
       N       E                     dE             d eps       ncg     rms          rms(c)
DAV:   1    -0.986602369092E+01   -0.30997E-02   -0.93244E-02  4448   0.260E+00    0.148E-01
RMM:   2    -0.986554785241E+01    0.47584E-03   -0.27249E-03  4326   0.463E-01    0.173E-01
RMM:   3    -0.986549511919E+01    0.52733E-04   -0.11292E-04  4389   0.740E-02    0.105E-01
RMM:   4    -0.986549403132E+01    0.10879E-05   -0.78487E-05  4320   0.925E-02    0.166E-02
RMM:   5    -0.986550623337E+01   -0.12202E-04   -0.37040E-05  4320   0.628E-02    0.239E-02
RMM:   6    -0.986551494504E+01   -0.87117E-05   -0.13419E-05  4307   0.455E-02    0.818E-03
RMM:   7    -0.986551946891E+01   -0.45239E-05   -0.96329E-06  3951   0.422E-02    0.431E-03
RMM:   8    -0.986551990699E+01   -0.43808E-06   -0.42390E-06  3345   0.246E-02
   7 F= -.98655199E+01 E0= -.98652172E+01  d E =-.259594E-02
 trial-energy change:   -0.002596  1 .order   -0.002562   -0.003521   -0.001604
 step:   1.5140(harm=  1.6277)  dis= 0.00000  next Energy=    -9.866100 (dE=-0.318E-02)
 bond charge predicted
       N       E                     dE             d eps       ncg     rms          rms(c)
DAV:   1    -0.986643758502E+01   -0.91812E-03   -0.46897E-02  4524   0.184E+00    0.107E-01
RMM:   2    -0.986617610019E+01    0.26148E-03   -0.13992E-03  4326   0.330E-01    0.123E-01
RMM:   3    -0.986614197833E+01    0.34122E-04   -0.57700E-05  4390   0.528E-02    0.731E-02
RMM:   4    -0.986612838764E+01    0.13591E-04   -0.41441E-05  4320   0.603E-02    0.893E-03
RMM:   5    -0.986612952023E+01   -0.11326E-05   -0.98945E-06  4283   0.296E-02    0.112E-02
RMM:   6    -0.986613074706E+01   -0.12268E-05   -0.19704E-06  3040   0.171E-02    0.422E-03
RMM:   7    -0.986613127838E+01   -0.53132E-06   -0.56578E-07  2644   0.887E-03
   8 F= -.98661313E+01 E0= -.98659289E+01  d E =-.320731E-02
 curvature:  -0.80 expect dE=-0.644E-05 dE for cont linesearch -0.157E-06
 trial: gam=-0.00346 g(F)=  0.481E-44 g(S)=  0.810E-05 ort = 0.280E-04 (trialstep = 0.101E+01)
 search vector abs. value=  0.795E-05
 reached required accuracy - stopping structural energy minimisation
 writing wavefunctions
 augmentation electrons   1.1645073169679834     
 soft         electrons   10.857382361779857     
 augmentation electrons   1.1645073169679834     
 soft         electrons   10.857382361779857     
 augmentation electrons   1.1645073169679834     
 soft         electrons   10.857382361779857     
 augmentation electrons   1.1645073169679834     
 soft         electrons   10.857382361779857     
 total        electrons   12.021889678747840     
 total        electrons   12.021889678747840     
 total        electrons   12.021889678747840     
 total        electrons   12.021889678747840     
